Title
55513
    1DOPE     N    1   4.494   5.721  16.234 -0.1700 -0.0324 -0.1258
    1DOPE   HN1    2   4.564   5.713  16.158  2.3870 -3.2459  2.2672
    1DOPE   HN2    3   4.532   5.787  16.305  1.8791 -1.6641  0.3789
    1DOPE   HN3    4   4.509   5.634  16.290  1.1727  0.8919  1.0455
    1DOPE   C12    5   4.350   5.749  16.190 -0.8361 -0.5484 -0.4616
    1DOPE  H12A    6   4.289   5.724  16.280 -0.1799  4.1041  1.5825
    1DOPE  H12B    7   4.328   5.691  16.098 -1.8483 -1.2439  0.1893
    1DOPE   C11    8   4.328   5.905  16.182 -0.0602  0.3180  0.1555
    1DOPE  H11A    9   4.399   5.951  16.110 -0.2682  1.5305  0.7097
    1DOPE  H11B   10   4.350   5.947  16.282  0.6520 -0.5287  0.3644
    1DOPE     P   11   4.092   5.987  16.232  0.0173  0.0732 -0.0396
    1DOPE   O13   12   4.081   6.132  16.260  0.2778 -0.5224 -0.1143
    1DOPE   O14   13   4.097   5.898  16.354 -0.4046 -0.9297  0.5852
    1DOPE   O11   14   3.963   5.956  16.145  0.2579 -0.1935 -0.5323
    1DOPE   O12   15   4.204   5.951  16.133 -0.2475 -0.3643  0.0776
    1DOPE    C1   16   3.870   5.852  16.170  0.2276  0.0886  0.6973
    1DOPE    HA   17   3.793   5.893  16.239 -0.0572  2.3831 -0.8810
    1DOPE    HB   18   3.916   5.759  16.211  3.4000  0.2146 -2.1790
    1DOPE    C2   19   3.808   5.812  16.034  0.4197 -0.1462  0.0134
    1DOPE    HS   20   3.759   5.713  16.048 -0.5449  0.0985 -1.4264
    1DOPE   O21   21   3.912   5.817  15.935  0.4917 -0.1376  0.2282
    1DOPE   C21   22   3.997   5.714  15.948  0.2309 -0.4737 -0.4692
    1DOPE   O22   23   3.981   5.621  16.026  0.1667  0.3881  0.4179
    1DOPE   C22   24   4.118   5.729  15.853 -0.1946  1.1575  0.7061
    1DOPE   H2R   25   4.216   5.731  15.906  1.2906 -3.2551 -1.4252
    1DOPE   H2S   26   4.110   5.824  15.795  0.1759 -0.5942 -2.4419
    1DOPE    C3   27   3.687   5.904  15.987  0.2416  0.1757 -0.4596
    1DOPE    HX   28   3.730   6.005  15.973 -0.2365  0.6756  1.4094
    1DOPE    HY   29   3.609   5.909  16.066 -0.9565  2.0175 -1.7090
    1DOPE   O31   30   3.625   5.845  15.875  0.3426  0.0156  0.6359
    1DOPE   C31   31   3.500   5.904  15.848  0.7009 -0.0047  0.1656
    1DOPE   O32   32   3.448   5.996  15.910 -0.8797  0.1461  0.0915
    1DOPE   C32   33   3.439   5.830  15.728  0.6208 -0.0022 -0.6346
    1DOPE   H2X   34   3.488   5.874  15.639  1.0619  1.4454  0.2921
    1DOPE   H2Y   35   3.476   5.729  15.755  1.4216  0.6871  0.9734
    1DOPE   C23   36   4.121   5.607  15.762 -0.1696  0.4001  1.0252
    1DOPE   H3R   37   4.044   5.627  15.684 -0.7272  0.1659  1.4974
    1DOPE   H3S   38   4.092   5.508  15.805 -0.4535  0.6170  1.3345
    1DOPE   C24   39   4.258   5.583  15.686  0.0110 -0.7860 -0.1271
    1DOPE   H4R   40   4.315   5.531  15.766  2.3382  1.6527 -0.0467
    1DOPE   H4S   41   4.318   5.677  15.682  0.0153 -0.7859 -0.0734
    1DOPE   C25   42   4.246   5.497  15.556  0.7767 -0.3045 -0.3218
    1DOPE   H5R   43   4.200   5.563  15.480 -0.5685 -0.0791  0.6386
    1DOPE   H5S   44   4.177   5.411  15.575  0.0117  0.2488 -0.5350
    1DOPE   C26   45   4.381   5.440  15.516  0.7147  0.7402  0.3430
    1DOPE   H6R   46   4.411   5.378  15.603  0.2665  1.5279  1.0702
    1DOPE   H6S   47   4.449   5.527  15.508 -1.5591  2.7555  1.5868
    1DOPE   C27   48   4.369   5.346  15.397  0.8606 -0.8594  0.5078
    1DOPE   H7R   49   4.344   5.398  15.302  0.5593 -2.5667 -0.4079
    1DOPE   H7S   50   4.285   5.275  15.413  0.1329 -0.0078  0.5099
    1DOPE   C28   51   4.501   5.283  15.373  0.3003  0.4370 -0.5377
    1DOPE   H8R   52   4.518   5.218  15.462 -2.0435  1.2026  0.5495
    1DOPE   H8S   53   4.585   5.355  15.377  0.5177  0.1979 -0.7748
    1DOPE   C29   54   4.501   5.201  15.246 -0.7124 -0.1729  0.1971
    1DOPE   H9R   55   4.455   5.101  15.249 -1.4495  0.1291 -0.6232
    1DOPE  C210   56   4.546   5.249  15.124  0.0177  0.0154 -0.2893
    1DOPE  H10R   57   4.545   5.183  15.036  1.7137 -0.1395 -0.2202
    1DOPE  C211   58   4.600   5.385  15.097  0.6649 -0.5436  0.2911
    1DOPE  H11R   59   4.683   5.366  15.026  0.0408 -1.4841 -0.2080
    1DOPE  H11S   60   4.641   5.430  15.190  3.3033 -0.7636 -0.6734
    1DOPE  C212   61   4.506   5.486  15.035  0.2985  0.5450 -0.2891
    1DOPE  H12R   62   4.558   5.580  15.006 -0.0155  0.5171 -0.9556
    1DOPE  H12S   63   4.410   5.503  15.089 -0.1444  1.4337 -1.3310
    1DOPE  C213   64   4.451   5.420  14.905 -0.1192  0.7870  0.3225
    1DOPE  H13R   65   4.368   5.353  14.936  0.5457  0.1175  0.6808
    1DOPE  H13S   66   4.528   5.356  14.856 -0.1382  0.2201  1.0083
    1DOPE  C214   67   4.400   5.530  14.809 -0.1496 -0.1313  1.0212
    1DOPE  H14R   68   4.475   5.608  14.785 -0.7319 -0.0507 -0.6655
    1DOPE  H14S   69   4.322   5.581  14.870  2.1292  1.6635  2.6155
    1DOPE  C215   70   4.341   5.485  14.673 -0.2582 -0.2952  0.0586
    1DOPE  H15R   71   4.263   5.409  14.697  1.3348 -1.4369  1.9265
    1DOPE  H15S   72   4.423   5.435  14.617 -0.0733 -0.2577  0.2953
    1DOPE  C216   73   4.286   5.597  14.590 -0.1788 -0.6582 -0.4739
    1DOPE  H16R   74   4.373   5.656  14.554 -0.2685 -0.3825 -0.2472
    1DOPE  H16S   75   4.230   5.667  14.656  2.3835 -1.0205  2.2866
    1DOPE  C217   76   4.211   5.556  14.459  0.0137  0.3102 -0.1736
    1DOPE  H17R   77   4.147   5.633  14.411 -0.8990  0.6333  1.4835
    1DOPE  H17S   78   4.129   5.488  14.491  0.3770  0.8409  2.1351
    1DOPE  C218   79   4.314   5.501  14.355 -0.6103  0.4161  0.0929
    1DOPE  H18R   80   4.386   5.585  14.340 -1.0431  0.9754  1.0515
    1DOPE  H18S   81   4.266   5.477  14.257  1.3067  0.3030 -0.8659
    1DOPE  H18T   82   4.378   5.416  14.387 -1.5762 -0.8923 -1.3173
    1DOPE   C33   83   3.289   5.829  15.727  0.3899  0.6815 -0.7632
    1DOPE   H3X   84   3.246   5.931  15.739 -1.3866  0.3107 -3.1222
    1DOPE   H3Y   85   3.244   5.760  15.802  0.0563  2.5549  0.8425
    1DOPE   C34   86   3.238   5.780  15.592 -0.2542 -0.5633  1.3894
    1DOPE   H4X   87   3.291   5.686  15.565  0.0497 -0.3968  1.3969
    1DOPE   H4Y   88   3.129   5.765  15.606 -0.9193  0.9683 -1.3614
    1DOPE   C35   89   3.231   5.889  15.485 -0.5166 -0.0126 -0.1689
    1DOPE   H5X   90   3.332   5.935  15.479 -0.7135  0.6742  1.3514
    1DOPE   H5Y   91   3.150   5.963  15.498 -0.0694  0.3812  0.4498
    1DOPE   C36   92   3.200   5.829  15.351  0.3343 -0.0382 -0.2859
    1DOPE   H6X   93   3.284   5.768  15.309  0.8244 -0.2339  0.9492
    1DOPE   H6Y   94   3.212   5.913  15.279  0.0564 -0.3007 -0.6381
    1DOPE   C37   95   3.066   5.761  15.343 -0.1224  0.0009  0.2763
    1DOPE   H7X   96   3.048   5.680  15.417 -0.8763 -0.2132 -0.1300
    1DOPE   H7Y   97   2.994   5.844  15.360 -0.3629  0.5179 -2.6420
    1DOPE   C38   98   3.046   5.703  15.205  0.5215 -0.3608  0.2254
    1DOPE   H8X   99   3.144   5.664  15.172  0.5815  0.0431 -0.0711
    1DOPE   H8Y  100   3.031   5.783  15.130 -0.8420 -0.4898  0.3241
    1DOPE   C39  101   2.934   5.599  15.192  0.3735  0.2201 -0.3293
    1DOPE   H9X  102   2.840   5.641  15.154 -0.4242  1.4980  2.7348
    1DOPE  C310  103   2.940   5.468  15.209 -0.9898  0.7375  0.6902
    1DOPE  H10X  104   2.862   5.399  15.173  1.6538 -0.3101 -3.7963
    1DOPE  C311  105   3.064   5.395  15.257 -0.1220 -0.4956 -0.3039
    1DOPE  H11X  106   3.137   5.448  15.322 -0.8740 -1.3921  1.3276
    1DOPE  H11Y  107   3.042   5.319  15.335 -3.2319  1.3629  0.8041
    1DOPE  C312  108   3.131   5.334  15.134  0.1062  0.4479  0.2211
    1DOPE  H12X  109   3.230   5.296  15.168  0.3235  2.1634  1.6630
    1DOPE  H12Y  110   3.153   5.402  15.049 -1.2430 -0.5874 -0.9979
    1DOPE  C313  111   3.062   5.201  15.080 -0.2499 -0.1323  0.5942
    1DOPE  H13X  112   3.056   5.129  15.164 -0.3221 -1.3748 -0.4557
    1DOPE  H13Y  113   2.959   5.221  15.042 -0.5066  1.2849  1.9335
    1DOPE  C314  114   3.135   5.137  14.955  0.2507 -0.1171 -0.2614
    1DOPE  H14X  115   3.241   5.120  14.984  0.4698 -1.6968 -1.8417
    1DOPE  H14Y  116   3.133   5.215  14.876 -3.9729  0.5017  0.2676
    1DOPE  C315  117   3.073   5.010  14.895 -0.5726 -0.3532  0.0585
    1DOPE  H15X  118   2.975   5.048  14.860 -0.7837  1.6365  2.5068
    1DOPE  H15Y  119   3.047   4.942  14.979 -1.6504  0.3287  0.3028
    1DOPE  C316  120   3.162   4.937  14.790 -0.0893 -0.7818  0.6040
    1DOPE  H16X  121   3.196   5.013  14.717 -2.3662  0.0991  0.3754
    1DOPE  H16Y  122   3.094   4.863  14.742  1.9230 -1.0405 -2.0654
    1DOPE  C317  123   3.282   4.861  14.845  0.2217  0.1452 -0.0449
    1DOPE  H17X  124   3.351   4.935  14.892  1.1670 -1.2188  0.8258
    1DOPE  H17Y  125   3.243   4.788  14.919  2.1671  0.2549  1.1839
    1DOPE  C318  126   3.354   4.790  14.739  0.3095  0.0442 -0.1124
    1DOPE  H18X  127   3.444   4.731  14.767  0.6191  0.6736  0.2544
    1DOPE  H18Y  128   3.297   4.725  14.669  0.4953  0.2353 -0.4478
    1DOPE  H18Z  129   3.388   4.871  14.670 -1.3206  1.4546  0.6771
    2DOPE     N  130   5.019   6.230  16.412  0.2404  0.2481  0.0886
    2DOPE   HN1  131   5.115   6.241  16.452 -1.0188 -3.1259  5.0195
    2DOPE   HN2  132   5.010   6.135  16.370  0.6974  1.1799 -2.2481
    2DOPE   HN3  133   5.000   6.306  16.345 -1.4266  0.9675  1.3106
    2DOPE   C12  134   4.940   6.248  16.535  0.3461  0.1334 -0.6480
    2DOPE  H12A  135   4.940   6.357  16.558  3.9983  0.0752  0.2974
    2DOPE  H12B  136   4.998   6.201  16.618 -0.5957 -1.8546 -1.0515
    2DOPE   C11  137   4.796   6.202  16.509 -0.5427 -0.3609  0.2827
    2DOPE  H11A  138   4.738   6.206  16.604  1.7049  2.4089  1.6599
    2DOPE  H11B  139   4.802   6.094  16.482 -2.1590 -0.5972  0.7227
    2DOPE     P  140   4.575   6.231  16.362 -0.1321  0.0632  0.2684
    2DOPE   O13  141   4.497   6.356  16.356  0.2980 -0.1118 -0.2862
    2DOPE   O14  142   4.526   6.124  16.448 -0.1057  0.5834 -0.1928
    2DOPE   O11  143   4.586   6.179  16.204  0.4429 -0.9309 -0.2506
    2DOPE   O12  144   4.722   6.272  16.407  0.0162  0.1603  0.2311
    2DOPE    C1  145   4.642   6.273  16.112 -0.2657 -0.2176 -0.6492
    2DOPE    HA  146   4.682   6.220  16.023 -3.0691 -0.6962 -1.7349
    2DOPE    HB  147   4.723   6.335  16.156  2.2776 -0.9309 -3.9402
    2DOPE    C2  148   4.535   6.366  16.055  1.0262 -0.4027 -0.3840
    2DOPE    HS  149   4.491   6.414  16.146  0.9844 -0.7249 -0.2302
    2DOPE   O21  150   4.439   6.279  15.999  0.2522 -0.0694  0.1664
    2DOPE   C21  151   4.314   6.299  16.028  0.4302 -0.1716  0.0208
    2DOPE   O22  152   4.279   6.373  16.121  0.1135  0.5481 -0.0017
    2DOPE   C22  153   4.220   6.252  15.916  0.0589 -0.0284 -0.2005
    2DOPE   H2R  154   4.171   6.342  15.874 -0.0063 -0.0628 -0.1997
    2DOPE   H2S  155   4.148   6.202  15.984  2.3854 -0.1974  2.2803
    2DOPE    C3  156   4.579   6.471  15.956  0.2871 -0.0369 -0.4062
    2DOPE    HX  157   4.664   6.525  16.003  0.2071  0.4963 -0.8673
    2DOPE    HY  158   4.492   6.539  15.949 -1.5794 -1.9117  2.2480
    2DOPE   O31  159   4.615   6.407  15.825 -0.0959  0.4480 -0.3878
    2DOPE   C31  160   4.625   6.492  15.728  0.5453  1.0940 -0.0486
    2DOPE   O32  161   4.599   6.611  15.732  0.6427  0.0336  0.1980
    2DOPE   C32  162   4.660   6.416  15.598  0.3955  0.5091 -0.2316
    2DOPE   H2X  163   4.768   6.433  15.579  0.4781  0.1776 -0.0842
    2DOPE   H2Y  164   4.645   6.307  15.616 -0.3157  0.5976 -0.2673
    2DOPE   C23  165   4.283   6.153  15.812  0.0965 -0.0722  0.6013
    2DOPE   H3R  166   4.344   6.078  15.866  1.3509  0.9367  0.6177
    2DOPE   H3S  167   4.358   6.211  15.754  0.5970 -1.7126 -0.4585
    2DOPE   C24  168   4.179   6.099  15.716  0.1630  0.8097 -0.7652
    2DOPE   H4R  169   4.133   6.181  15.656 -0.7866 -1.2671 -3.0143
    2DOPE   H4S  170   4.101   6.051  15.780 -1.2597  0.5443 -2.6076
    2DOPE   C25  171   4.242   6.007  15.614  0.3543 -0.2052 -0.4778
    2DOPE   H5R  172   4.282   5.922  15.673 -0.6378  0.0945  0.6615
    2DOPE   H5S  173   4.333   6.045  15.564  0.0263 -1.8176 -2.4440
    2DOPE   C26  174   4.136   5.959  15.516 -0.0478  0.6028  0.4328
    2DOPE   H6R  175   4.069   6.039  15.478 -1.4548 -1.4430 -1.6755
    2DOPE   H6S  176   4.065   5.891  15.567 -0.0890 -0.5624 -1.1003
    2DOPE   C27  177   4.194   5.896  15.386 -0.0155  0.1764  0.2743
    2DOPE   H7R  178   4.296   5.854  15.398  1.3532  1.4358 -4.8326
    2DOPE   H7S  179   4.211   5.984  15.320  2.1829  0.1420  0.7130
    2DOPE   C28  180   4.092   5.800  15.320 -0.2873 -0.0342  0.0014
    2DOPE   H8R  181   4.009   5.853  15.267 -0.2187 -0.1934 -0.2637
    2DOPE   H8S  182   4.056   5.731  15.399  0.2479 -0.4324 -0.0952
    2DOPE   C29  183   4.175   5.703  15.235  0.4353 -0.6170 -0.6841
    2DOPE   H9R  184   4.267   5.657  15.273  1.3609 -0.6757 -2.8293
    2DOPE  C210  185   4.143   5.663  15.108 -0.1173  0.9916 -0.2498
    2DOPE  H10R  186   4.211   5.586  15.069 -2.1141 -0.4345 -1.0582
    2DOPE  C211  187   4.024   5.699  15.018 -0.2041 -0.2533 -0.9286
    2DOPE  H11R  188   4.069   5.736  14.923  3.2357  0.5292  0.8244
    2DOPE  H11S  189   3.975   5.789  15.060 -0.0251 -0.6378  0.1248
    2DOPE  C212  190   3.936   5.578  14.994 -0.8643 -0.2384 -0.2720
    2DOPE  H12R  191   3.866   5.610  14.914 -1.7889  2.3583  1.4545
    2DOPE  H12S  192   3.882   5.548  15.086  0.8516 -1.0082  0.5463
    2DOPE  C213  193   4.020   5.452  14.955  0.1650 -0.2144  0.2233
    2DOPE  H13R  194   4.030   5.401  15.053  0.9353  0.6476  0.6113
    2DOPE  H13S  195   4.123   5.477  14.920  0.2481  1.2374  1.3789
    2DOPE  C214  196   3.956   5.370  14.852  0.2301  0.5441  0.6698
    2DOPE  H14R  197   3.946   5.428  14.758 -0.6869  1.8062  1.5190
    2DOPE  H14S  198   3.852   5.348  14.883  0.3109  0.2103  0.7152
    2DOPE  C215  199   4.014   5.228  14.816  0.0264 -0.0933 -0.8155
    2DOPE  H15R  200   4.001   5.168  14.909  0.4722 -0.3019 -0.8851
    2DOPE  H15S  201   4.125   5.227  14.807  0.4733  0.6003  2.8886
    2DOPE  C216  202   3.960   5.166  14.691  0.0849  0.0200  0.7145
    2DOPE  H16R  203   4.006   5.070  14.658  0.4144  0.6943 -0.8720
    2DOPE  H16S  204   3.983   5.240  14.612 -1.2648  0.5987  0.8388
    2DOPE  C217  205   3.804   5.137  14.691 -0.1751 -0.0815 -0.6555
    2DOPE  H17R  206   3.754   5.231  14.724  1.0579  0.7136 -0.9671
    2DOPE  H17S  207   3.768   5.068  14.770 -0.2640  1.0582  0.3385
    2DOPE  C218  208   3.754   5.104  14.548  0.0848  0.5068 -0.1161
    2DOPE  H18R  209   3.717   5.193  14.492 -0.1085  0.5858  0.1323
    2DOPE  H18S  210   3.663   5.042  14.564  1.8567 -2.7013 -1.6580
    2DOPE  H18T  211   3.831   5.057  14.484 -0.9224  0.9590 -1.7111
    2DOPE   C33  212   4.573   6.442  15.472  0.5041  0.1405 -0.9310
    2DOPE   H3X  213   4.572   6.549  15.443 -0.4727 -0.4188 -3.1250
    2DOPE   H3Y  214   4.467   6.418  15.498  0.5682  0.8237  0.0441
    2DOPE   C34  215   4.625   6.350  15.351  0.2495  0.3342 -0.7252
    2DOPE   H4X  216   4.736   6.345  15.358  0.3057  1.3813 -0.7219
    2DOPE   H4Y  217   4.589   6.246  15.361  2.3274 -0.4980 -1.3498
    2DOPE   C35  218   4.569   6.410  15.225 -0.0554  0.0742 -0.7058
    2DOPE   H5X  219   4.605   6.515  15.226  1.4391 -0.4103  0.0279
    2DOPE   H5Y  220   4.462   6.414  15.252  0.3977  0.3300  1.2131
    2DOPE   C36  221   4.591   6.342  15.087  0.1450 -0.9528  0.4196
    2DOPE   H6X  222   4.553   6.239  15.106  1.3697 -1.2102  1.6842
    2DOPE   H6Y  223   4.699   6.326  15.069  0.5417  1.5089  0.3127
    2DOPE   C37  224   4.535   6.421  14.965  0.1033 -0.8182  0.4965
    2DOPE   H7X  225   4.590   6.517  14.971 -2.8211  1.0797 -0.7851
    2DOPE   H7Y  226   4.554   6.360  14.874  1.3476  2.2873 -1.4668
    2DOPE   C38  227   4.387   6.465  14.974 -0.1819  0.0971 -0.1254
    2DOPE   H8X  228   4.392   6.519  15.071  0.7899 -1.0408  0.4954
    2DOPE   H8Y  229   4.325   6.375  14.995  0.0984  0.4809  2.7896
    2DOPE   C39  230   4.331   6.538  14.860  0.5011  0.2537  0.6858
    2DOPE   H9X  231   4.350   6.485  14.766 -1.2954 -0.5672  0.7397
    2DOPE  C310  232   4.273   6.659  14.859 -0.0157 -0.2553 -1.0323
    2DOPE  H10X  233   4.249   6.708  14.764  0.1660  1.0107 -0.4528
    2DOPE  C311  234   4.267   6.757  14.976  0.2657 -0.2040  0.3251
    2DOPE  H11X  235   4.168   6.749  15.028 -0.6431  0.7446 -1.1838
    2DOPE  H11Y  236   4.349   6.734  15.047  0.6993 -0.5891 -0.2965
    2DOPE  C312  237   4.268   6.904  14.936  0.1497  0.4232 -0.0354
    2DOPE  H12X  238   4.274   6.956  15.034 -0.1334 -1.2104  0.8883
    2DOPE  H12Y  239   4.172   6.935  14.890 -0.4564 -1.0321  0.2017
    2DOPE  C313  240   4.380   6.950  14.840 -0.1966  0.2169 -0.0682
    2DOPE  H13X  241   4.364   6.913  14.736 -1.4133 -1.1679  0.5748
    2DOPE  H13Y  242   4.387   7.061  14.843 -0.7147  0.2338  1.3453
    2DOPE  C314  243   4.522   6.909  14.880 -0.0361 -0.0066 -0.2053
    2DOPE  H14X  244   4.519   6.798  14.881  2.0862 -0.1114 -0.8009
    2DOPE  H14Y  245   4.553   6.947  14.980 -0.5693  1.3412 -0.5291
    2DOPE  C315  246   4.639   6.943  14.784  1.6400  0.0104 -0.0815
    2DOPE  H15X  247   4.589   6.967  14.688 -0.8277  2.5473  1.6920
    2DOPE  H15Y  248   4.705   6.853  14.777  1.5044 -0.1742  0.8723
    2DOPE  C316  249   4.715   7.074  14.820  0.0321 -0.1142  0.8695
    2DOPE  H16X  250   4.746   7.075  14.927  0.2709 -0.8540  0.8134
    2DOPE  H16Y  251   4.650   7.162  14.800  2.5997  1.3911 -1.6259
    2DOPE  C317  252   4.849   7.088  14.739  0.4922 -0.5270  0.1530
    2DOPE  H17X  253   4.898   7.187  14.750  0.3413  0.1008 -3.5616
    2DOPE  H17Y  254   4.909   7.016  14.798 -1.8246 -1.3100  1.6787
    2DOPE  C318  255   4.852   7.049  14.590 -0.3579  0.3704 -0.0237
    2DOPE  H18X  256   4.827   6.944  14.563 -1.9104  1.1712 -1.9285
    2DOPE  H18Y  257   4.783   7.116  14.535 -1.0113 -0.5047 -0.3009
    2DOPE  H18Z  258   4.955   7.067  14.552 -0.3828 -1.0987 -0.8726
    3DOPE     N  259   2.886   6.495  16.410  0.0685  0.0286 -0.4343
    3DOPE   HN1  260   2.950   6.417  16.433 -1.1281 -1.0621 -0.6836
    3DOPE   HN2  261   2.945   6.575  16.440  1.1065 -1.4464  1.7116
    3DOPE   HN3  262   2.806   6.494  16.476  2.1131  0.2361  2.1819
    3DOPE   C12  263   2.824   6.471  16.272 -0.2827 -0.6588 -0.9505
    3DOPE  H12A  264   2.903   6.422  16.210  1.3345  0.7354 -0.0845
    3DOPE  H12B  265   2.805   6.573  16.233 -0.6498 -0.5043 -0.3760
    3DOPE   C11  266   2.691   6.395  16.284  0.6700 -0.1508 -0.0453
    3DOPE  H11A  267   2.710   6.291  16.319  0.3480 -0.5207 -0.9492
    3DOPE  H11B  268   2.642   6.394  16.185  0.2447  0.8591  0.1411
    3DOPE     P  269   2.457   6.455  16.398  0.0872  0.4803  0.1295
    3DOPE   O13  270   2.410   6.567  16.477  0.1785 -0.0345 -0.5239
    3DOPE   O14  271   2.411   6.315  16.437 -0.4636 -0.7265  0.3791
    3DOPE   O11  272   2.408   6.488  16.251  0.7162 -0.2642 -0.2207
    3DOPE   O12  273   2.615   6.455  16.388 -0.3744  0.3167  0.7630
    3DOPE    C1  274   2.461   6.607  16.180 -0.6398  0.2970 -0.4498
    3DOPE    HA  275   2.567   6.623  16.209  0.2460 -3.0824 -1.3295
    3DOPE    HB  276   2.405   6.697  16.216 -2.6800 -0.0853 -2.4679
    3DOPE    C2  277   2.446   6.597  16.027  0.2837  0.5296 -0.5597
    3DOPE    HS  278   2.338   6.599  16.000  0.5144  0.3311 -1.5615
    3DOPE   O21  279   2.500   6.468  15.991  0.3105  0.5731  0.1702
    3DOPE   C21  280   2.423   6.367  15.986  0.8006  0.0615  0.0158
    3DOPE   O22  281   2.299   6.369  15.986  0.1736  0.2602  0.2356
    3DOPE   C22  282   2.506   6.243  15.982 -0.2709 -0.2481 -0.1327
    3DOPE   H2R  283   2.473   6.191  16.074 -2.1843  0.2455 -0.4973
    3DOPE   H2S  284   2.616   6.262  15.985  0.0800 -2.0831  0.2585
    3DOPE    C3  285   2.517   6.716  15.951  0.7076  0.4057 -0.2017
    3DOPE    HX  286   2.624   6.707  15.979  0.6332 -3.5094 -0.6142
    3DOPE    HY  287   2.481   6.814  15.990 -0.4462 -1.2262  3.2448
    3DOPE   O31  288   2.484   6.720  15.811  0.1391 -0.4522  0.1705
    3DOPE   C31  289   2.579   6.668  15.733 -0.6966  0.0356  0.6764
    3DOPE   O32  290   2.688   6.631  15.781  0.0974  0.1722  0.2846
    3DOPE   C32  291   2.541   6.666  15.588  0.2609  0.1864 -0.4845
    3DOPE   H2X  292   2.488   6.570  15.572  0.8978 -0.2520  0.0094
    3DOPE   H2Y  293   2.461   6.742  15.573 -0.9864 -0.7832  0.9150
    3DOPE   C23  294   2.473   6.160  15.850 -0.0306  0.4362  0.3914
    3DOPE   H3R  295   2.366   6.152  15.820  0.7012 -0.8358 -2.1831
    3DOPE   H3S  296   2.514   6.059  15.872  0.0850 -0.1295 -2.1552
    3DOPE   C24  297   2.542   6.230  15.728 -0.1702 -0.1729  0.6697
    3DOPE   H4R  298   2.653   6.227  15.738  0.2590  4.5776 -0.4496
    3DOPE   H4S  299   2.513   6.337  15.732  1.4867  0.3972 -0.9436
    3DOPE   C25  300   2.508   6.170  15.590  0.9355  0.3558 -0.1449
    3DOPE   H5R  301   2.397   6.161  15.586  0.8705  1.3221 -0.8152
    3DOPE   H5S  302   2.542   6.064  15.591 -0.9589 -0.3663 -2.5321
    3DOPE   C26  303   2.562   6.247  15.468 -0.7049  0.1328 -0.4152
    3DOPE   H6R  304   2.666   6.282  15.488  0.5941 -2.2358 -2.5149
    3DOPE   H6S  305   2.497   6.333  15.443  1.4121  1.7968 -0.5032
    3DOPE   C27  306   2.596   6.165  15.340  0.2142  0.0001  0.2455
    3DOPE   H7R  307   2.672   6.085  15.357 -0.7851 -1.0599 -0.1350
    3DOPE   H7S  308   2.640   6.241  15.272  1.5601 -0.9599 -0.0011
    3DOPE   C28  309   2.482   6.096  15.259  0.2416 -0.1091  0.0612
    3DOPE   H8R  310   2.443   6.014  15.322 -1.6428  1.1657  0.6471
    3DOPE   H8S  311   2.522   6.049  15.167 -0.3995  2.3890 -1.5937
    3DOPE   C29  312   2.375   6.196  15.221  0.2699  0.8896 -0.2553
    3DOPE   H9R  313   2.286   6.196  15.286 -0.1048 -1.7267 -0.6314
    3DOPE  C210  314   2.381   6.289  15.120  0.4292  0.5348  0.3434
    3DOPE  H10R  315   2.294   6.345  15.084  1.6164  1.8394 -0.6249
    3DOPE  C211  316   2.499   6.314  15.029  0.3419  0.0356 -0.2017
    3DOPE  H11R  317   2.568   6.227  15.029 -1.2647 -1.3380  1.7922
    3DOPE  H11S  318   2.549   6.407  15.063  0.1262  0.3951 -0.8576
    3DOPE  C212  319   2.454   6.342  14.886 -0.4072  0.4824  0.2483
    3DOPE  H12R  320   2.430   6.450  14.872  3.7088  1.6770  0.9454
    3DOPE  H12S  321   2.367   6.282  14.853  0.4100  0.0563 -1.2250
    3DOPE  C213  322   2.565   6.316  14.779 -0.2442 -0.0843  0.1309
    3DOPE  H13R  323   2.611   6.218  14.803 -1.1145 -0.2170  1.3290
    3DOPE  H13S  324   2.651   6.383  14.800 -0.7078  0.3066  0.8520
    3DOPE  C214  325   2.524   6.343  14.629 -0.6484  0.1453  0.2892
    3DOPE  H14R  326   2.614   6.381  14.576 -2.8325  0.7669 -3.3571
    3DOPE  H14S  327   2.460   6.434  14.628 -1.5421 -0.4439 -2.2280
    3DOPE  C215  328   2.455   6.228  14.547 -0.5866  0.9914 -0.9944
    3DOPE  H15R  329   2.386   6.161  14.602 -1.5522  2.3438 -0.5097
    3DOPE  H15S  330   2.536   6.165  14.505  0.5102  1.2251  0.6982
    3DOPE  C216  331   2.384   6.289  14.426 -0.1437 -0.3118  0.8798
    3DOPE  H16R  332   2.399   6.229  14.334  0.7066  0.5241  0.4602
    3DOPE  H16S  333   2.423   6.389  14.398 -1.6417 -0.0952 -0.5397
    3DOPE  C217  334   2.226   6.292  14.458 -0.1410  0.6827  0.1417
    3DOPE  H17R  335   2.188   6.381  14.404  0.7135  0.2954 -1.1485
    3DOPE  H17S  336   2.207   6.319  14.564 -4.0015 -1.7090  0.2716
    3DOPE  C218  337   2.151   6.163  14.423  0.7902  0.8011 -0.2426
    3DOPE  H18R  338   2.172   6.083  14.497 -1.1054 -0.6438 -1.1963
    3DOPE  H18S  339   2.177   6.139  14.318 -0.8874 -0.1584 -0.4626
    3DOPE  H18T  340   2.044   6.191  14.424 -0.0743 -2.2468 -0.1515
    3DOPE   C33  341   2.660   6.690  15.487  0.1062  0.3701  0.7186
    3DOPE   H3X  342   2.733   6.609  15.505  1.0534  1.3503  1.4816
    3DOPE   H3Y  343   2.722   6.777  15.519  1.1806 -0.5124  1.0900
    3DOPE   C34  344   2.638   6.682  15.331 -0.0787  0.8285 -0.3389
    3DOPE   H4X  345   2.591   6.585  15.301  0.1776  0.3715  0.6746
    3DOPE   H4Y  346   2.568   6.767  15.320  1.5735  2.0357 -1.9892
    3DOPE   C35  347   2.770   6.711  15.257  0.5399  0.2411 -0.5174
    3DOPE   H5X  348   2.854   6.650  15.296 -0.4484  0.0304  1.3811
    3DOPE   H5Y  349   2.812   6.812  15.270  1.1560 -0.0042 -0.5671
    3DOPE   C36  350   2.753   6.683  15.106  0.0681 -0.5333 -0.0077
    3DOPE   H6X  351   2.696   6.770  15.067  2.2378  0.7140 -0.5542
    3DOPE   H6Y  352   2.687   6.594  15.099  0.3925 -0.8760  1.0211
    3DOPE   C37  353   2.885   6.650  15.030 -0.3880 -0.1882  0.2045
    3DOPE   H7X  354   2.944   6.743  15.045 -0.0845 -0.5986  1.6710
    3DOPE   H7Y  355   2.936   6.568  15.085  1.3822  0.1240 -0.8944
    3DOPE   C38  356   2.866   6.615  14.883  0.1104  0.8711  0.2815
    3DOPE   H8X  357   2.806   6.692  14.830 -2.0867 -1.4621 -0.8404
    3DOPE   H8Y  358   2.808   6.521  14.875  2.7244 -0.8952  0.7257
    3DOPE   C39  359   3.004   6.596  14.829 -0.7089 -0.3918 -0.3619
    3DOPE   H9X  360   3.064   6.523  14.886 -0.2737  0.9234  0.9332
    3DOPE  C310  361   3.071   6.680  14.740 -0.2029  0.2786  0.3385
    3DOPE  H10X  362   3.178   6.658  14.721  0.7416  1.4394  3.6223
    3DOPE  C311  363   3.012   6.806  14.682 -0.4160  0.2483 -0.2589
    3DOPE  H11X  364   3.036   6.806  14.574  0.1394 -1.6264 -0.1740
    3DOPE  H11Y  365   2.901   6.809  14.691 -0.4474  1.6912 -0.9483
    3DOPE  C312  366   3.063   6.947  14.729 -0.2025  0.1672 -0.3982
    3DOPE  H12X  367   3.000   7.023  14.677 -0.0581 -0.8458 -2.1284
    3DOPE  H12Y  368   3.169   6.973  14.706  0.4284 -0.1478  1.9204
    3DOPE  C313  369   3.037   6.981  14.875  0.3852 -0.8774  0.1048
    3DOPE  H13X  370   2.931   6.966  14.902  0.5204 -0.6689  0.7909
    3DOPE  H13Y  371   3.107   6.912  14.928  1.5429 -1.6208 -2.2562
    3DOPE  C314  372   3.089   7.118  14.911 -0.3172 -0.5453 -0.1473
    3DOPE  H14X  373   3.032   7.196  14.857 -0.6329  0.2536  1.2854
    3DOPE  H14Y  374   3.195   7.124  14.877 -0.2678 -1.3350 -0.1682
    3DOPE  C315  375   3.099   7.153  15.060 -0.3358 -0.3712  0.9147
    3DOPE  H15X  376   2.996   7.151  15.101  0.2334  0.6800  2.5262
    3DOPE  H15Y  377   3.139   7.256  15.075  0.4779 -1.0296  3.8542
    3DOPE  C316  378   3.184   7.055  15.147 -0.2273  0.2045  0.0908
    3DOPE  H16X  379   3.132   6.957  15.152 -0.4636  0.3882  2.0661
    3DOPE  H16Y  380   3.182   7.081  15.255  0.8304 -2.9530  0.9967
    3DOPE  C317  381   3.329   7.037  15.098  0.2322  0.0360 -0.3760
    3DOPE  H17X  382   3.393   6.976  15.166 -1.1958 -0.2347  0.7693
    3DOPE  H17Y  383   3.324   6.978  15.004 -1.2709 -0.2968 -0.1114
    3DOPE  C318  384   3.411   7.165  15.069  0.7131 -0.4000 -0.0751
    3DOPE  H18X  385   3.391   7.239  15.150 -2.2924 -0.4848 -0.6122
    3DOPE  H18Y  386   3.517   7.137  15.055  0.5298 -0.5974 -1.1761
    3DOPE  H18Z  387   3.376   7.205  14.971 -0.0782 -0.1528  0.2959
    4DOPE     N  388   4.194   4.800  16.850 -0.4370 -0.3461 -0.3448
    4DOPE   HN1  389   4.128   4.733  16.895  0.3973  0.3429  2.1042
    4DOPE   HN2  390   4.287   4.795  16.897 -0.7092  0.1727  0.2716
    4DOPE   HN3  391   4.158   4.898  16.853 -2.4370 -1.0419 -0.1070
    4DOPE   C12  392   4.200   4.771  16.705  0.7995  0.0075  0.1119
    4DOPE  H12A  393   4.254   4.858  16.661  0.4282 -0.2572 -0.9010
    4DOPE  H12B  394   4.094   4.783  16.676  0.5440  0.5281  1.2051
    4DOPE   C11  395   4.262   4.633  16.686  0.2418 -0.2233  0.3052
    4DOPE  H11A  396   4.359   4.631  16.740 -0.8981  0.9352  2.5341
    4DOPE  H11B  397   4.268   4.607  16.578 -1.1483  0.0637  0.1333
    4DOPE     P  398   4.071   4.458  16.706  0.4541 -0.0281 -0.4683
    4DOPE   O13  399   3.983   4.417  16.821 -0.7946 -0.8045 -0.2077
    4DOPE   O14  400   4.132   4.352  16.634 -0.4134 -0.2470  0.3733
    4DOPE   O11  401   3.997   4.555  16.605  0.0015  0.1796  0.4882
    4DOPE   O12  402   4.190   4.542  16.768 -0.3979  0.0781 -0.2440
    4DOPE    C1  403   3.872   4.521  16.545 -0.1313 -0.0615  0.4473
    4DOPE    HA  404   3.816   4.611  16.512  1.2520  1.1257  1.2547
    4DOPE    HB  405   3.806   4.462  16.612 -2.1160 -1.7565 -2.7283
    4DOPE    C2  406   3.881   4.435  16.415  0.0062  0.2948  0.4985
    4DOPE    HS  407   3.921   4.335  16.443  2.5853  0.3843 -2.3639
    4DOPE   O21  408   3.973   4.497  16.324 -0.3575 -0.5580  0.0559
    4DOPE   C21  409   4.048   4.420  16.243 -0.4910  0.6274 -0.8171
    4DOPE   O22  410   4.034   4.301  16.241 -0.0324 -0.4788 -0.3019
    4DOPE   C22  411   4.131   4.512  16.149  0.2602  0.3558  0.8307
    4DOPE   H2R  412   4.163   4.596  16.214 -0.8193  1.6145 -0.2082
    4DOPE   H2S  413   4.058   4.554  16.077 -0.1062  1.9609  2.0734
    4DOPE    C3  414   3.746   4.411  16.347 -0.6061 -0.1815  0.2770
    4DOPE    HX  415   3.704   4.505  16.306  0.1451 -0.4367 -1.1431
    4DOPE    HY  416   3.673   4.361  16.414  1.3226 -1.4373  1.5249
    4DOPE   O31  417   3.773   4.330  16.230 -0.1680 -0.3550 -0.2054
    4DOPE   C31  418   3.661   4.285  16.172  0.2190  0.1102 -0.0872
    4DOPE   O32  419   3.551   4.325  16.206 -0.6174  0.4146  0.2398
    4DOPE   C32  420   3.687   4.192  16.056  0.0283  1.1135 -0.3385
    4DOPE   H2X  421   3.791   4.151  16.055  0.4836  2.1776  0.6502
    4DOPE   H2Y  422   3.613   4.110  16.063  1.5061 -0.2897 -0.4369
    4DOPE   C23  423   4.242   4.424  16.073  0.2697  0.0163 -0.1359
    4DOPE   H3R  424   4.312   4.362  16.133  3.3622  1.1802 -2.3251
    4DOPE   H3S  425   4.312   4.497  16.026 -0.4070  1.4568  0.9969
    4DOPE   C24  426   4.195   4.329  15.962  0.2460  0.8425 -0.3484
    4DOPE   H4R  427   4.157   4.233  16.003 -0.1240  0.7396 -0.9241
    4DOPE   H4S  428   4.290   4.293  15.917 -1.4708 -0.5352 -3.1452
    4DOPE   C25  429   4.118   4.389  15.844 -1.0021 -0.3760 -0.2148
    4DOPE   H5R  430   4.171   4.481  15.811 -0.5306 -0.1064  1.2063
    4DOPE   H5S  431   4.021   4.424  15.885 -0.6703  0.4228 -0.0868
    4DOPE   C26  432   4.101   4.288  15.729 -0.0861  0.1532  0.4262
    4DOPE   H6R  433   4.069   4.184  15.751  0.7754 -0.8281 -2.4818
    4DOPE   H6S  434   4.205   4.293  15.691 -0.9529  1.6460 -2.0402
    4DOPE   C27  435   4.011   4.341  15.612 -0.4241  0.7112  0.6586
    4DOPE   H7R  436   4.032   4.449  15.597  2.0809  0.3413  1.0931
    4DOPE   H7S  437   3.908   4.329  15.652  0.0811  2.1090  2.5266
    4DOPE   C28  438   4.008   4.261  15.485 -0.2945  0.1186 -0.1109
    4DOPE   H8R  439   3.920   4.289  15.423 -0.8725 -1.2123  0.0635
    4DOPE   H8S  440   3.996   4.151  15.497 -0.2968  0.0955 -0.3288
    4DOPE   C29  441   4.137   4.284  15.412  0.2405  0.4786  0.1995
    4DOPE   H9R  442   4.140   4.381  15.362  0.5457  0.1279 -0.4704
    4DOPE  C210  443   4.235   4.195  15.387 -0.4765 -0.2887  0.3764
    4DOPE  H10R  444   4.323   4.224  15.328 -0.9538 -1.2824 -0.8584
    4DOPE  C211  445   4.241   4.054  15.433  0.9061 -0.2816 -0.0980
    4DOPE  H11R  446   4.159   4.036  15.506 -1.9082 -0.3315 -3.0476
    4DOPE  H11S  447   4.338   4.036  15.485  1.0598  2.4426  0.7114
    4DOPE  C212  448   4.210   3.950  15.321  0.5671  0.6420  0.1436
    4DOPE  H12R  449   4.101   3.959  15.303  1.2155  0.2260 -5.5947
    4DOPE  H12S  450   4.235   3.849  15.359 -1.3693 -0.2641 -0.8439
    4DOPE  C213  451   4.275   3.982  15.187 -0.6496  0.4071  0.7192
    4DOPE  H13R  452   4.379   3.980  15.226 -0.0588  0.5108 -0.7965
    4DOPE  H13S  453   4.252   4.086  15.155 -1.0148  0.3298  0.7240
    4DOPE  C214  454   4.250   3.879  15.072  0.4704 -0.4991 -0.5414
    4DOPE  H14R  455   4.142   3.851  15.064  0.4474 -0.5167 -0.1685
    4DOPE  H14S  456   4.302   3.782  15.085 -2.1511 -1.9029  0.2293
    4DOPE  C215  457   4.291   3.937  14.937  0.4796  0.0892 -0.7155
    4DOPE  H15R  458   4.397   3.968  14.933  0.2995  1.2776  1.7393
    4DOPE  H15S  459   4.229   4.027  14.916  1.1112  0.2690 -1.8194
    4DOPE  C216  460   4.262   3.835  14.828  0.2031  0.6455 -0.0549
    4DOPE  H16R  461   4.160   3.794  14.843 -0.2407  1.4887 -0.7121
    4DOPE  H16S  462   4.336   3.752  14.829 -1.1400 -0.6244  1.8860
    4DOPE  C217  463   4.257   3.905  14.687 -0.0931  0.0627  0.1946
    4DOPE  H17R  464   4.173   3.976  14.676  0.8481  1.2221  0.2797
    4DOPE  H17S  465   4.238   3.822  14.615 -1.1504  0.9475 -0.5807
    4DOPE  C218  466   4.392   3.971  14.647  0.4983  0.5066  0.4294
    4DOPE  H18R  467   4.399   3.993  14.538 -1.4487 -0.0529  0.1618
    4DOPE  H18S  468   4.475   3.902  14.673 -0.4781 -0.0464  2.2542
    4DOPE  H18T  469   4.407   4.063  14.709 -1.1948  0.3294  1.1590
    4DOPE   C33  470   3.663   4.265  15.917  0.6301 -0.0348  0.8125
    4DOPE   H3X  471   3.738   4.347  15.919  0.7029 -0.0994  2.0169
    4DOPE   H3Y  472   3.562   4.308  15.906  1.2533  1.0547 -0.9850
    4DOPE   C34  473   3.686   4.165  15.795 -0.1299  0.2371 -0.1278
    4DOPE   H4X  474   3.791   4.145  15.767 -0.6983 -0.5160 -1.8876
    4DOPE   H4Y  475   3.645   4.067  15.828  0.6174 -0.3047 -0.7759
    4DOPE   C35  476   3.616   4.217  15.660 -0.5926 -0.3282  0.2516
    4DOPE   H5X  477   3.678   4.306  15.634  0.4239 -1.4409 -1.3108
    4DOPE   H5Y  478   3.508   4.234  15.676 -0.6862 -0.7972  0.1350
    4DOPE   C36  479   3.626   4.120  15.546  0.0701  0.1695  0.3782
    4DOPE   H6X  480   3.724   4.068  15.551  0.5542  1.0824  0.5690
    4DOPE   H6Y  481   3.613   4.165  15.445  0.4942 -0.3087  0.1037
    4DOPE   C37  482   3.512   4.016  15.553 -0.3367  0.2124 -0.1370
    4DOPE   H7X  483   3.541   3.953  15.640  0.6896 -0.2499 -0.7947
    4DOPE   H7Y  484   3.412   4.061  15.567  0.0989  1.3226 -0.5043
    4DOPE   C38  485   3.512   3.914  15.441 -0.0547 -0.1892  0.0045
    4DOPE   H8X  486   3.446   3.826  15.462 -0.7496  0.2524 -0.2809
    4DOPE   H8Y  487   3.611   3.866  15.453  0.6221  1.4453  1.2810
    4DOPE   C39  488   3.469   3.983  15.311 -0.2990  0.3242 -0.2739
    4DOPE   H9X  489   3.364   4.010  15.294 -1.2383 -2.6668  0.3393
    4DOPE  C310  490   3.552   4.019  15.210  0.4438 -0.1791 -0.0687
    4DOPE  H10X  491   3.514   4.088  15.134  0.5124 -1.2151 -1.0850
    4DOPE  C311  492   3.698   4.002  15.212  0.3955  0.1051 -0.6857
    4DOPE  H11X  493   3.728   3.992  15.318 -0.0069 -2.4851 -0.7523
    4DOPE  H11Y  494   3.738   3.914  15.156  2.1980  0.5709 -0.1842
    4DOPE  C312  495   3.770   4.128  15.151  0.0250 -0.6355 -0.8622
    4DOPE  H12X  496   3.871   4.097  15.183 -1.2523 -1.9595  2.2203
    4DOPE  H12Y  497   3.742   4.227  15.193 -0.8579 -1.3501  0.2995
    4DOPE  C313  498   3.774   4.135  14.999 -0.4207  0.2288 -0.2514
    4DOPE  H13X  499   3.843   4.056  14.961  0.4353 -0.9877  3.4781
    4DOPE  H13Y  500   3.673   4.116  14.957 -0.9281  0.4058  0.8753
    4DOPE  C314  501   3.817   4.271  14.942 -0.5879 -0.3211  0.6706
    4DOPE  H14X  502   3.919   4.296  14.977  0.5740  0.5844 -2.9512
    4DOPE  H14Y  503   3.754   4.349  14.990  0.2043 -0.0631  1.3046
    4DOPE  C315  504   3.804   4.286  14.787  0.0177 -0.3207  0.4273
    4DOPE  H15X  505   3.829   4.392  14.764 -2.0240  0.2667  0.6744
    4DOPE  H15Y  506   3.695   4.274  14.766  0.3602 -2.8432 -0.2278
    4DOPE  C316  507   3.899   4.194  14.708 -0.2704 -0.1721 -0.6085
    4DOPE  H16X  508   3.862   4.089  14.716 -1.0618  0.0476 -1.1961
    4DOPE  H16Y  509   4.003   4.196  14.748  0.3443 -2.2199 -1.9233
    4DOPE  C317  510   3.892   4.229  14.560 -0.2882 -0.0737 -0.5539
    4DOPE  H17X  511   3.790   4.206  14.523 -0.0889 -0.1496 -1.0550
    4DOPE  H17Y  512   3.908   4.339  14.549 -1.1894 -0.1738 -3.6429
    4DOPE  C318  513   4.002   4.153  14.479  0.5224 -0.1074 -0.4422
    4DOPE  H18X  514   3.983   4.043  14.479  0.8539 -0.2062  1.6898
    4DOPE  H18Y  515   4.021   4.184  14.374  3.9519 -1.0745 -0.2342
    4DOPE  H18Z  516   4.100   4.172  14.528 -0.1829 -0.4542  1.1557
    5DOPE     N  517   1.312   6.362  16.271  0.3071  0.0844 -0.3995
    5DOPE   HN1  518   1.411   6.388  16.288  0.5105 -0.2458 -1.0521
    5DOPE   HN2  519   1.301   6.262  16.300  0.5380  0.2899  0.4284
    5DOPE   HN3  520   1.288   6.371  16.170  0.1398  1.4303 -0.2516
    5DOPE   C12  521   1.217   6.456  16.345 -0.7489  0.7144  0.2236
    5DOPE  H12A  522   1.227   6.552  16.289 -0.6037  0.6056  0.0606
    5DOPE  H12B  523   1.270   6.474  16.440 -0.2574  0.7669 -0.0597
    5DOPE   C11  524   1.068   6.411  16.357 -0.1633 -0.3835 -0.2909
    5DOPE  H11A  525   1.019   6.500  16.401  1.0508 -0.2111  0.7827
    5DOPE  H11B  526   1.055   6.332  16.434  1.8218  0.0290  0.5361
    5DOPE     P  527   0.858   6.334  16.211  0.3215 -0.1771  0.1368
    5DOPE   O13  528   0.807   6.390  16.084  0.5303 -0.1308 -0.2076
    5DOPE   O14  529   0.783   6.376  16.338  0.3312 -0.0850  0.2025
    5DOPE   O11  530   0.843   6.177  16.203  0.2645  0.3477  0.4070
    5DOPE   O12  531   1.012   6.361  16.232 -0.2007 -0.4491 -0.0775
    5DOPE    C1  532   0.945   6.097  16.142 -0.4183  0.6419 -0.1817
    5DOPE    HA  533   0.945   5.990  16.172  0.1987  0.8053  0.4351
    5DOPE    HB  534   1.040   6.141  16.178  0.2898 -1.9174  1.3506
    5DOPE    C2  535   0.951   6.103  15.990  0.1647  1.0253 -0.4604
    5DOPE    HS  536   0.969   6.209  15.964  0.1634  0.6406 -2.2002
    5DOPE   O21  537   0.826   6.053  15.946 -0.1476  0.3467  0.2666
    5DOPE   C21  538   0.769   6.116  15.849 -0.3603  0.7485 -0.0576
    5DOPE   O22  539   0.811   6.210  15.787 -0.4437  0.2898 -0.0080
    5DOPE   C22  540   0.633   6.047  15.822 -0.0052 -0.2038 -0.4013
    5DOPE   H2R  541   0.572   6.122  15.767  0.7807  1.1131  0.4660
    5DOPE   H2S  542   0.579   6.017  15.914  2.3829  0.6514  1.3855
    5DOPE    C3  543   1.062   6.019  15.936 -0.2157 -0.0258 -0.0067
    5DOPE    HX  544   1.028   5.918  15.966 -0.9646  0.3873  0.5798
    5DOPE    HY  545   1.160   6.042  15.983 -1.3666  3.8248  0.8889
    5DOPE   O31  546   1.056   6.023  15.793  0.4002  0.2736  0.4263
    5DOPE   C31  547   1.103   6.134  15.749  0.5098  0.1160  0.6262
    5DOPE   O32  548   1.145   6.228  15.813 -0.2173  0.3656 -0.1756
    5DOPE   C32  549   1.099   6.131  15.593  0.3019 -0.5402 -0.2934
    5DOPE   H2X  550   1.202   6.118  15.554  1.8616 -2.4007  3.8750
    5DOPE   H2Y  551   1.045   6.040  15.560 -1.1677  0.5734 -1.0654
    5DOPE   C23  552   0.657   5.919  15.744  0.0182  0.0199  0.4639
    5DOPE   H3R  553   0.565   5.859  15.759 -0.5806  0.6358 -0.5890
    5DOPE   H3S  554   0.737   5.852  15.781  0.5553  0.2260 -0.3026
    5DOPE   C24  555   0.664   5.946  15.591  0.3864  0.3012  0.6792
    5DOPE   H4R  556   0.739   6.025  15.568  0.2806 -0.5256 -3.1255
    5DOPE   H4S  557   0.563   5.980  15.561 -0.1972 -0.1657  2.0417
    5DOPE   C25  558   0.728   5.827  15.515 -0.5244 -0.2054 -0.3442
    5DOPE   H5R  559   0.665   5.735  15.521 -0.0237 -0.4651  1.7575
    5DOPE   H5S  560   0.817   5.808  15.578 -0.2678  1.3216 -0.2182
    5DOPE   C26  561   0.775   5.852  15.372 -0.3483  0.5773  0.0332
    5DOPE   H6R  562   0.827   5.765  15.328 -0.9807 -0.1086  0.6107
    5DOPE   H6S  563   0.841   5.941  15.368  0.2312  0.1227 -1.2205
    5DOPE   C27  564   0.659   5.863  15.279  0.0525 -0.9265 -0.1991
    5DOPE   H7R  565   0.596   5.947  15.316  0.9110 -1.3102  2.2742
    5DOPE   H7S  566   0.600   5.769  15.277  0.8076 -1.5906  2.9455
    5DOPE   C28  567   0.696   5.888  15.130 -0.6485  0.0964 -0.3846
    5DOPE   H8R  568   0.781   5.958  15.111  0.8855 -2.1049 -2.0118
    5DOPE   H8S  569   0.609   5.926  15.072  1.0167  1.2316 -2.3126
    5DOPE   C29  570   0.760   5.767  15.070 -0.3221  0.2302 -0.4544
    5DOPE   H9R  571   0.863   5.743  15.100 -0.9539 -0.6551  1.1585
    5DOPE  C210  572   0.719   5.700  14.960  0.4546 -0.2956 -0.2610
    5DOPE  H10R  573   0.788   5.632  14.908  3.3858  3.5467 -1.8480
    5DOPE  C211  574   0.587   5.740  14.893  0.0507 -0.2507 -0.2225
    5DOPE  H11R  575   0.573   5.850  14.899 -1.5750 -0.5216  1.4456
    5DOPE  H11S  576   0.496   5.696  14.937  0.4931  0.5252  1.5438
    5DOPE  C212  577   0.586   5.715  14.740  0.1533  0.0054  0.6504
    5DOPE  H12R  578   0.675   5.753  14.684  1.0202 -2.3377  0.3226
    5DOPE  H12S  579   0.500   5.773  14.702 -0.1944 -1.4610 -0.9314
    5DOPE  C213  580   0.546   5.572  14.705 -0.0137  0.1574  1.1363
    5DOPE  H13R  581   0.500   5.519  14.791 -0.7767 -0.5206  0.3328
    5DOPE  H13S  582   0.647   5.527  14.698  0.4780  1.3733 -0.0413
    5DOPE  C214  583   0.491   5.546  14.563  0.0249 -0.4527  1.0186
    5DOPE  H14R  584   0.506   5.438  14.544  0.4013 -0.6240  2.2524
    5DOPE  H14S  585   0.548   5.600  14.483  0.1408  2.6014  2.9937
    5DOPE  C215  586   0.340   5.562  14.545  0.5966  0.3967  0.0882
    5DOPE  H15R  587   0.304   5.666  14.559  1.2401  0.8952 -1.6127
    5DOPE  H15S  588   0.282   5.498  14.614  0.0503  0.2053 -0.5466
    5DOPE  C216  589   0.286   5.522  14.401 -0.1614  0.6855 -0.1106
    5DOPE  H16R  590   0.304   5.413  14.394  0.1233  0.7444 -0.3296
    5DOPE  H16S  591   0.330   5.569  14.310 -2.6600  1.1080 -1.1906
    5DOPE  C217  592   0.132   5.541  14.384  0.0239  0.1075  0.7830
    5DOPE  H17R  593   0.074   5.537  14.479 -0.5539  0.3701  0.4516
    5DOPE  H17S  594   0.088   5.459  14.323 -1.8171  0.4800  1.5160
    5DOPE  C218  595   0.091   5.676  14.320  0.1369 -0.1636 -0.5988
    5DOPE  H18R  596   0.127   5.670  14.216  0.0769  1.5496 -0.7503
    5DOPE  H18S  597   0.153   5.751  14.373  1.7746 -0.8618 -1.4614
    5DOPE  H18T  598  -0.017   5.694  14.339  0.5761  1.3552  0.6244
    5DOPE   C33  599   1.061   6.257  15.519  0.4669 -0.0001  0.2236
    5DOPE   H3X  600   1.119   6.342  15.562 -0.1378  0.5319  0.0067
    5DOPE   H3Y  601   0.953   6.281  15.526  0.8658  1.6190  1.5554
    5DOPE   C34  602   1.090   6.235  15.369  0.4045  0.3163  1.3921
    5DOPE   H4X  603   1.199   6.218  15.350 -0.2933 -1.7513 -1.5304
    5DOPE   H4Y  604   1.030   6.147  15.336  0.6989  1.0705 -1.3821
    5DOPE   C35  605   1.034   6.350  15.280  0.2189  0.5554 -0.6609
    5DOPE   H5X  606   1.082   6.445  15.311  0.5113  0.1884  0.0415
    5DOPE   H5Y  607   0.925   6.350  15.301  0.0729 -3.7608 -0.5184
    5DOPE   C36  608   1.041   6.326  15.128 -0.9387 -0.3396  0.4111
    5DOPE   H6X  609   1.147   6.312  15.097 -1.4615 -0.8836 -1.2615
    5DOPE   H6Y  610   1.010   6.424  15.086 -1.8807 -0.7683  0.0841
    5DOPE   C37  611   0.962   6.208  15.076  0.6029 -0.3101 -0.1042
    5DOPE   H7X  612   1.030   6.122  15.089  0.0443 -0.7920 -0.3511
    5DOPE   H7Y  613   0.878   6.188  15.146  0.8486  0.8331  0.5418
    5DOPE   C38  614   0.912   6.234  14.932 -0.3236 -0.0530  0.1279
    5DOPE   H8X  615   1.003   6.250  14.871 -0.1160 -2.1120 -0.1718
    5DOPE   H8Y  616   0.854   6.328  14.939 -0.4675 -0.2049  1.1849
    5DOPE   C39  617   0.819   6.122  14.880 -0.7963  0.1700 -0.1091
    5DOPE   H9X  618   0.825   6.018  14.915 -2.7039 -0.0616 -0.3513
    5DOPE  C310  619   0.711   6.150  14.806 -0.0569 -0.2065  0.3551
    5DOPE  H10X  620   0.640   6.069  14.787 -0.0722 -0.1091  0.0032
    5DOPE  C311  621   0.677   6.287  14.755 -0.0846 -0.2439 -0.2766
    5DOPE  H11X  622   0.610   6.334  14.830 -0.9211 -1.5211 -0.1895
    5DOPE  H11Y  623   0.769   6.349  14.751  1.0002 -1.8712 -2.0975
    5DOPE  C312  624   0.599   6.286  14.627  0.3597 -0.3448  0.0303
    5DOPE  H12X  625   0.505   6.227  14.632 -0.3381  0.8233  1.3844
    5DOPE  H12Y  626   0.666   6.247  14.547  1.7795  0.7632  0.6285
    5DOPE  C313  627   0.554   6.432  14.589  0.5649  0.4373 -0.1181
    5DOPE  H13X  628   0.494   6.461  14.678  0.7029 -2.3110  0.9989
    5DOPE  H13Y  629   0.632   6.506  14.562  0.2151  0.7233 -0.3493
    5DOPE  C314  630   0.471   6.442  14.462  0.0185 -0.1485 -0.4793
    5DOPE  H14X  631   0.393   6.365  14.475 -0.4970  0.2857 -0.9407
    5DOPE  H14Y  632   0.542   6.409  14.383  2.0354 -1.9352  1.9139
    5DOPE  C315  633   0.417   6.582  14.448 -0.0269 -0.2347 -0.1933
    5DOPE  H15X  634   0.507   6.648  14.446 -0.6014  0.5391 -1.2720
    5DOPE  H15Y  635   0.373   6.602  14.548 -1.8650 -3.4574 -0.2108
    5DOPE  C316  636   0.332   6.612  14.319 -0.4649 -0.6812  0.1457
    5DOPE  H16X  637   0.256   6.532  14.318  0.4800 -1.6207 -1.9210
    5DOPE  H16Y  638   0.394   6.604  14.227 -0.6035 -1.1924  0.0974
    5DOPE  C317  639   0.266   6.754  14.317  0.5988  0.4831  0.1483
    5DOPE  H17X  640   0.216   6.765  14.416  1.0484 -1.6912  0.6504
    5DOPE  H17Y  641   0.344   6.832  14.311  0.8502  0.1701 -0.9055
    5DOPE  C318  642   0.165   6.753  14.200 -0.7181  0.4208  0.5102
    5DOPE  H18X  643   0.122   6.651  14.191 -0.3097  0.4210 -2.2974
    5DOPE  H18Y  644   0.090   6.835  14.205 -0.5135  0.6974 -0.7209
    5DOPE  H18Z  645   0.225   6.769  14.109 -0.8566 -0.3773  0.2713
    6DOPE     N  646   1.134   7.066  16.345 -0.0558 -0.2923  0.4257
    6DOPE   HN1  647   1.194   6.986  16.373 -0.0970  0.2560  2.1449
    6DOPE   HN2  648   1.191   7.153  16.341 -0.9690  0.2944 -0.6479
    6DOPE   HN3  649   1.078   7.074  16.432 -0.5124 -3.3989  0.5072
    6DOPE   C12  650   1.054   7.057  16.220 -0.5620  0.0723 -0.1937
    6DOPE  H12A  651   1.000   6.961  16.230 -0.1805 -0.0829  0.4023
    6DOPE  H12B  652   1.121   7.051  16.132  0.4684  1.9526  0.3869
    6DOPE   C11  653   0.950   7.170  16.202 -0.2360 -0.1298 -0.0543
    6DOPE  H11A  654   0.907   7.145  16.102 -0.1354  0.0200 -0.1365
    6DOPE  H11B  655   0.997   7.271  16.203 -2.3307  0.9238 -0.7731
    6DOPE     P  656   0.718   7.248  16.306 -0.3757 -0.1883 -0.1927
    6DOPE   O13  657   0.758   7.388  16.285 -0.1709  0.1540 -0.2043
    6DOPE   O14  658   0.639   7.218  16.423 -0.1405  0.1073 -0.4183
    6DOPE   O11  659   0.647   7.184  16.175 -0.5534 -0.2729  0.6154
    6DOPE   O12  660   0.854   7.166  16.308  0.0778  0.0496  0.0103
    6DOPE    C1  661   0.572   7.265  16.084  0.1598 -0.2536  0.6978
    6DOPE    HA  662   0.621   7.365  16.070 -1.9210  0.6868 -0.2782
    6DOPE    HB  663   0.467   7.283  16.112 -0.0698 -0.7130  0.1499
    6DOPE    C2  664   0.561   7.195  15.938 -0.0188  0.1677  0.1812
    6DOPE    HS  665   0.518   7.269  15.868  1.4934 -0.8533 -1.9263
    6DOPE   O21  666   0.486   7.072  15.945 -0.1064  0.2257  0.3422
    6DOPE   C21  667   0.419   7.040  15.835 -0.0006  0.1999 -0.3397
    6DOPE   O22  668   0.395   7.118  15.744  0.3459 -0.1159 -0.0586
    6DOPE   C22  669   0.378   6.897  15.846 -0.0145 -0.3891  0.4289
    6DOPE   H2R  670   0.305   6.896  15.930  1.6321  0.7868  1.9516
    6DOPE   H2S  671   0.462   6.830  15.876 -0.7965 -1.3063  0.6381
    6DOPE    C3  672   0.707   7.166  15.899  0.4293  0.1488  0.1448
    6DOPE    HX  673   0.743   7.072  15.946 -0.7756 -2.3750 -3.4981
    6DOPE    HY  674   0.770   7.252  15.932  0.3602  0.1674  0.2291
    6DOPE   O31  675   0.720   7.142  15.756  0.2021  0.0156 -0.4332
    6DOPE   C31  676   0.713   7.254  15.686  0.9768  0.7092 -0.5513
    6DOPE   O32  677   0.709   7.365  15.731 -0.5263 -0.3603 -0.1004
    6DOPE   C32  678   0.694   7.220  15.534  0.1865 -0.0180 -0.2991
    6DOPE   H2X  679   0.737   7.118  15.530 -0.6607 -0.4449  0.9782
    6DOPE   H2Y  680   0.583   7.224  15.532  0.1028 -1.3659  0.4224
    6DOPE   C23  681   0.317   6.849  15.709 -0.8852 -0.0167 -0.7753
    6DOPE   H3R  682   0.398   6.862  15.634 -0.2560  1.7223  0.1521
    6DOPE   H3S  683   0.230   6.911  15.681 -0.6862 -0.1598 -1.7223
    6DOPE   C24  684   0.267   6.706  15.709  0.0913 -0.6574 -0.4757
    6DOPE   H4R  685   0.168   6.706  15.759 -0.9645 -0.0125 -2.4407
    6DOPE   H4S  686   0.334   6.637  15.763 -0.3678  0.6910  1.9510
    6DOPE   C25  687   0.246   6.662  15.563 -0.4335  0.4014 -0.4875
    6DOPE   H5R  688   0.214   6.556  15.563 -2.1881  0.8399  1.9953
    6DOPE   H5S  689   0.335   6.681  15.499 -1.8858  2.1438 -2.1409
    6DOPE   C26  690   0.131   6.742  15.489 -0.9941 -0.4376 -0.7919
    6DOPE   H6R  691   0.158   6.850  15.490 -0.3897 -0.5755 -1.4379
    6DOPE   H6S  692   0.049   6.732  15.563  1.8467 -1.2025  2.5321
    6DOPE   C27  693   0.096   6.694  15.357  0.0533 -0.7587  0.0659
    6DOPE   H7R  694   0.105   6.583  15.357  0.5184 -0.7248  0.5270
    6DOPE   H7S  695   0.174   6.728  15.285 -0.5239 -1.1643 -0.7669
    6DOPE   C28  696  -0.039   6.724  15.312 -0.2043 -0.5832  0.0117
    6DOPE   H8R  697  -0.112   6.675  15.381 -0.1316 -1.1635 -0.3142
    6DOPE   H8S  698  -0.054   6.680  15.212  0.7372  1.9841 -1.3424
    6DOPE   C29  699  -0.058   6.870  15.284  0.4063  0.2059  0.2550
    6DOPE   H9R  700   0.006   6.940  15.341  1.0041 -1.2929  1.4857
    6DOPE  C210  701  -0.179   6.914  15.237  0.2315 -0.2989  0.1941
    6DOPE  H10R  702  -0.194   7.019  15.208 -0.5631 -0.1360  1.1587
    6DOPE  C211  703  -0.290   6.827  15.185  0.9000 -0.3692  0.1393
    6DOPE  H11R  704  -0.388   6.866  15.220  1.6603  0.7591  1.0976
    6DOPE  H11S  705  -0.292   6.722  15.221 -0.5660  0.1057  1.5160
    6DOPE  C212  706  -0.283   6.813  15.032 -0.0283 -0.3602  0.0768
    6DOPE  H12R  707  -0.362   6.742  15.001 -0.3324 -0.0293  0.0955
    6DOPE  H12S  708  -0.188   6.765  14.999  0.4863  0.3068  0.5600
    6DOPE  C213  709  -0.291   6.941  14.949 -0.1429  0.4305  0.0936
    6DOPE  H13R  710  -0.279   6.921  14.840 -0.8124  1.6080 -0.2174
    6DOPE  H13S  711  -0.205   7.007  14.973  0.1874 -0.0310  0.1925
    6DOPE  C214  712  -0.418   7.021  14.972  1.5195  0.3158  0.0602
    6DOPE  H14R  713  -0.414   7.053  15.078 -0.8619  0.5762  0.1140
    6DOPE  H14S  714  -0.503   6.953  14.951  0.3788  1.4312  0.9538
    6DOPE  C215  715  -0.432   7.147  14.882 -0.1793 -0.7756 -0.2893
    6DOPE  H15R  716  -0.341   7.206  14.903  0.1163 -0.7150 -1.6174
    6DOPE  H15S  717  -0.523   7.203  14.912  1.0949  1.0512  0.2565
    6DOPE  C216  718  -0.451   7.123  14.733 -0.3466  0.4471  0.1351
    6DOPE  H16R  719  -0.560   7.129  14.711 -0.3604  2.0859  0.4910
    6DOPE  H16S  720  -0.410   7.022  14.714 -0.1066  0.6700 -0.5942
    6DOPE  C217  721  -0.386   7.213  14.639 -0.1125  0.2985  0.6485
    6DOPE  H17R  722  -0.276   7.210  14.652  0.0232 -2.6239 -0.3767
    6DOPE  H17S  723  -0.416   7.313  14.676 -1.7156 -0.2212  0.8606
    6DOPE  C218  724  -0.422   7.196  14.489 -0.0221  0.1136  0.2553
    6DOPE  H18R  725  -0.385   7.287  14.438 -2.7409  1.3001  0.2294
    6DOPE  H18S  726  -0.533   7.189  14.486  0.0437 -3.2142  1.1407
    6DOPE  H18T  727  -0.369   7.106  14.449  0.4419  0.0225  1.0657
    6DOPE   C33  728   0.771   7.327  15.453 -0.3328  0.4749  0.7215
    6DOPE   H3X  729   0.879   7.326  15.480  0.3967 -1.6777 -1.8394
    6DOPE   H3Y  730   0.735   7.431  15.467 -2.4257 -0.0584 -0.2745
    6DOPE   C34  731   0.784   7.304  15.300 -0.8765 -0.0457  0.1671
    6DOPE   H4X  732   0.870   7.364  15.263 -0.5755 -0.5581  0.0307
    6DOPE   H4Y  733   0.832   7.204  15.290  2.8068  1.5432  0.1906
    6DOPE   C35  734   0.653   7.310  15.230 -0.1178  0.2155 -0.1253
    6DOPE   H5X  735   0.577   7.377  15.276 -1.8042 -2.0775  0.6502
    6DOPE   H5Y  736   0.609   7.211  15.252 -1.2860  1.0805  1.6333
    6DOPE   C36  737   0.665   7.353  15.080 -0.2116  0.0861  0.4524
    6DOPE   H6X  738   0.582   7.307  15.023 -0.0915 -0.5984  0.8143
    6DOPE   H6Y  739   0.762   7.319  15.037 -1.5612 -0.6186 -2.2987
    6DOPE   C37  740   0.667   7.503  15.063  0.2322  0.2100 -0.1024
    6DOPE   H7X  741   0.565   7.545  15.078 -0.9787 -2.1863 -1.0787
    6DOPE   H7Y  742   0.729   7.540  15.147  1.6208 -1.8487 -0.1366
    6DOPE   C38  743   0.721   7.554  14.927  0.4489  0.0571 -0.3687
    6DOPE   H8X  744   0.827   7.528  14.907  0.7792  0.6131  0.5987
    6DOPE   H8Y  745   0.721   7.665  14.925  0.4030  0.1852  2.6075
    6DOPE   C39  746   0.644   7.500  14.805  0.0677  0.2278 -0.4605
    6DOPE   H9X  747   0.660   7.398  14.768  0.3666 -0.4922  1.5183
    6DOPE  C310  748   0.547   7.569  14.741  0.1321  0.5486 -1.2117
    6DOPE  H10X  749   0.497   7.517  14.658 -0.3359 -0.4249 -0.3357
    6DOPE  C311  750   0.524   7.717  14.752  0.3440  0.0651  0.5236
    6DOPE  H11X  751   0.455   7.749  14.833 -1.2672 -1.2348 -0.2676
    6DOPE  H11Y  752   0.623   7.768  14.750  0.2823  0.1690 -0.8321
    6DOPE  C312  753   0.447   7.772  14.624  0.2062 -0.0009  0.4264
    6DOPE  H12X  754   0.517   7.780  14.538  1.1475  0.8785  1.2525
    6DOPE  H12Y  755   0.429   7.882  14.625 -0.7900 -0.1586  1.5892
    6DOPE  C313  756   0.303   7.716  14.605 -0.1997  0.3526 -0.0570
    6DOPE  H13X  757   0.305   7.612  14.565 -0.8223  0.9356 -1.6422
    6DOPE  H13Y  758   0.254   7.729  14.704 -0.3283  1.8387 -0.2979
    6DOPE  C314  759   0.217   7.798  14.515  0.9183 -0.1234 -0.4581
    6DOPE  H14X  760   0.235   7.899  14.557 -2.7395 -0.4104  2.3271
    6DOPE  H14Y  761   0.111   7.778  14.540  0.9048  0.1980 -0.2501
    6DOPE  C315  762   0.257   7.792  14.364 -1.0805  0.3963 -1.0141
    6DOPE  H15X  763   0.235   7.687  14.336  0.1713  0.2385 -1.4717
    6DOPE  H15Y  764   0.367   7.808  14.359 -0.8372 -1.2448 -1.3727
    6DOPE  C316  765   0.178   7.885  14.272 -1.0170 -0.0923  0.2038
    6DOPE  H16X  766   0.197   7.987  14.309  2.5483 -0.2484 -0.8773
    6DOPE  H16Y  767   0.068   7.870  14.282 -0.8882 -0.4583  1.1598
    6DOPE  C317  768   0.224   7.889  14.123 -0.3100 -0.3092 -0.2379
    6DOPE  H17X  769   0.206   7.787  14.082 -0.0957  0.1809 -1.5959
    6DOPE  H17Y  770   0.159   7.954  14.062  0.7692  0.7488 -0.3043
    6DOPE  C318  771   0.363   7.945  14.108  0.7527 -0.4168  0.2697
    6DOPE  H18X  772   0.388   7.958  14.000  0.4165  0.1510  0.2575
    6DOPE  H18Y  773   0.372   8.042  14.162  0.9426 -0.0703 -0.3768
    6DOPE  H18Z  774   0.444   7.877  14.142  0.2760 -0.5526  1.1441
    7DOPE     N  775   4.565   7.442  16.400 -0.4896  0.7024 -0.3080
    7DOPE   HN1  776   4.533   7.343  16.394 -0.8196  0.6842  1.3248
    7DOPE   HN2  777   4.668   7.445  16.387  0.2369  0.9093  4.0294
    7DOPE   HN3  778   4.540   7.489  16.489  0.2532 -1.2117  0.9766
    7DOPE   C12  779   4.509   7.516  16.283  0.2869  0.1325  0.0859
    7DOPE  H12A  780   4.534   7.456  16.193 -0.3033 -0.3126  0.2057
    7DOPE  H12B  781   4.561   7.614  16.276 -0.6176  0.5906 -0.3628
    7DOPE   C11  782   4.364   7.518  16.293 -0.2944  0.0999 -0.4296
    7DOPE  H11A  783   4.319   7.418  16.277 -0.6432 -0.0293  1.2084
    7DOPE  H11B  784   4.323   7.590  16.219 -1.8589  0.7816  1.0213
    7DOPE     P  785   4.167   7.599  16.445 -0.5013 -0.1199 -0.0317
    7DOPE   O13  786   4.140   7.718  16.364 -0.5798  0.0366  0.1099
    7DOPE   O14  787   4.137   7.605  16.585 -0.5080 -0.0352  0.1879
    7DOPE   O11  788   4.101   7.473  16.380  0.0516  0.1439  0.1002
    7DOPE   O12  789   4.318   7.563  16.421 -0.2081  0.2131  0.0863
    7DOPE    C1  790   3.966   7.437  16.374  0.2884 -0.1031 -0.1648
    7DOPE    HA  791   3.907   7.490  16.452  0.1718 -1.0279  0.3992
    7DOPE    HB  792   3.959   7.327  16.392 -0.7371 -0.1591 -0.8119
    7DOPE    C2  793   3.905   7.441  16.230 -0.0987 -0.2627  0.5737
    7DOPE    HS  794   3.815   7.377  16.228 -0.5047  0.3208  0.2434
    7DOPE   O21  795   4.002   7.406  16.131  0.0633 -0.5733  0.1016
    7DOPE   C21  796   4.061   7.296  16.124 -0.1390 -0.1452 -0.6420
    7DOPE   O22  797   4.031   7.207  16.202 -1.1559  0.5098  0.3377
    7DOPE   C22  798   4.174   7.293  16.011  0.2286 -0.1260 -0.2792
    7DOPE   H2R  799   4.141   7.210  15.946  0.0806 -0.0724 -0.2718
    7DOPE   H2S  800   4.269   7.272  16.066 -0.7922 -0.2818  1.5227
    7DOPE    C3  801   3.862   7.590  16.218 -0.4317 -0.3108  0.0106
    7DOPE    HX  802   3.955   7.648  16.232 -0.9072  0.8449 -1.4147
    7DOPE    HY  803   3.805   7.608  16.312  0.6894  1.1256  0.4467
    7DOPE   O31  804   3.784   7.622  16.101  0.1500 -0.1545  0.1667
    7DOPE   C31  805   3.846   7.667  15.994  0.3092 -0.5531 -0.0066
    7DOPE   O32  806   3.961   7.703  15.986  0.4807 -0.0598 -0.1541
    7DOPE   C32  807   3.751   7.671  15.877 -0.0974 -0.7924 -0.5331
    7DOPE   H2X  808   3.649   7.636  15.905 -0.1373  0.6039  1.2499
    7DOPE   H2Y  809   3.755   7.772  15.832  2.6006 -1.4499 -1.9417
    7DOPE   C23  810   4.187   7.421  15.928  0.3049 -0.0527 -0.3537
    7DOPE   H3R  811   4.188   7.510  15.995 -0.9224  1.3985 -2.1551
    7DOPE   H3S  812   4.107   7.456  15.859 -0.8597  0.6376  1.2758
    7DOPE   C24  813   4.326   7.415  15.864 -0.1505 -0.5297  0.5733
    7DOPE   H4R  814   4.324   7.349  15.775  1.4695  0.7955 -0.5148
    7DOPE   H4S  815   4.388   7.348  15.928  1.4224  0.2490 -0.0673
    7DOPE   C25  816   4.386   7.550  15.827 -0.3341  0.1847 -0.2494
    7DOPE   H5R  817   4.493   7.537  15.803 -0.0580  0.1447  0.9266
    7DOPE   H5S  818   4.391   7.602  15.925 -0.7292 -1.2143  0.5466
    7DOPE   C26  819   4.304   7.632  15.724  0.7170 -0.3212  0.1106
    7DOPE   H6R  820   4.361   7.727  15.709  1.8366 -0.7127  1.5796
    7DOPE   H6S  821   4.198   7.646  15.753 -0.1327  0.6395 -3.0413
    7DOPE   C27  822   4.297   7.568  15.586 -0.0768 -0.2308 -0.4737
    7DOPE   H7R  823   4.220   7.489  15.598  0.4121 -0.7587 -0.7511
    7DOPE   H7S  824   4.393   7.519  15.558 -1.3692 -2.7987 -0.6329
    7DOPE   C28  825   4.243   7.663  15.476 -0.0050  0.1278  0.5868
    7DOPE   H8R  826   4.249   7.603  15.383  0.0803 -3.8099  2.8975
    7DOPE   H8S  827   4.300   7.757  15.463  3.0441 -1.7755 -0.8764
    7DOPE   C29  828   4.097   7.698  15.495  0.8783 -0.0271 -0.6490
    7DOPE   H9R  829   4.056   7.706  15.597  2.0100  1.9979 -0.2986
    7DOPE  C210  830   4.015   7.748  15.399 -0.3385  0.4620 -0.9873
    7DOPE  H10R  831   3.912   7.779  15.423 -0.3486  1.5112 -2.2585
    7DOPE  C211  832   4.064   7.786  15.262  0.6295 -0.1734 -0.1630
    7DOPE  H11R  833   4.175   7.786  15.255  0.6613 -2.4291 -0.5668
    7DOPE  H11S  834   4.030   7.888  15.235 -1.5267 -0.9919 -0.8088
    7DOPE  C212  835   3.987   7.704  15.148 -0.1928 -0.1697 -0.5847
    7DOPE  H12R  836   3.876   7.712  15.160 -0.3207 -2.5576  0.5216
    7DOPE  H12S  837   4.012   7.599  15.174  0.7422  0.2329  0.1745
    7DOPE  C213  838   4.028   7.744  15.008 -0.2771  0.0234 -0.2122
    7DOPE  H13R  839   4.138   7.749  14.993 -0.1278  2.4189  1.3121
    7DOPE  H13S  840   3.994   7.848  14.988 -0.6339  0.2253  1.3130
    7DOPE  C214  841   3.966   7.642  14.910  0.8048 -0.0762  0.4917
    7DOPE  H14R  842   3.857   7.631  14.928  0.0835  0.0580 -3.0046
    7DOPE  H14S  843   4.019   7.548  14.933 -2.5804 -2.0182  0.9701
    7DOPE  C215  844   3.970   7.693  14.765 -0.5060  0.5438  0.2495
    7DOPE  H15R  845   4.073   7.724  14.736 -0.3351  0.5908  0.8915
    7DOPE  H15S  846   3.907   7.785  14.764  1.3590  1.8965  0.9519
    7DOPE  C216  847   3.937   7.589  14.652 -0.3968 -0.2563 -0.0615
    7DOPE  H16R  848   3.994   7.495  14.664 -1.5435 -0.7001  2.6984
    7DOPE  H16S  849   3.963   7.638  14.556  0.4290  0.5172  0.5365
    7DOPE  C217  850   3.784   7.536  14.658 -0.6627 -0.0985  0.0873
    7DOPE  H17R  851   3.726   7.630  14.669 -0.0697  0.3289 -0.3838
    7DOPE  H17S  852   3.776   7.468  14.746 -0.6399 -0.7788 -0.4264
    7DOPE  C218  853   3.740   7.466  14.530 -0.5941 -0.2675 -0.1197
    7DOPE  H18R  854   3.801   7.376  14.506  0.0207  0.2690 -0.6155
    7DOPE  H18S  855   3.746   7.541  14.448  0.5061 -0.9650 -0.7211
    7DOPE  H18T  856   3.637   7.428  14.545 -0.0396 -2.0981 -0.6981
    7DOPE   C33  857   3.789   7.585  15.755 -0.0930 -0.0463  0.3529
    7DOPE   H3X  858   3.794   7.478  15.783  0.2836 -0.5587 -1.5745
    7DOPE   H3Y  859   3.889   7.610  15.712 -0.1310 -1.1814 -0.4329
    7DOPE   C34  860   3.703   7.613  15.633  0.1560  0.6205 -0.6020
    7DOPE   H4X  861   3.599   7.584  15.658  0.6673  1.6959  3.3745
    7DOPE   H4Y  862   3.712   7.720  15.603 -1.4868  0.7539 -0.6793
    7DOPE   C35  863   3.748   7.530  15.513  0.3966  0.2797 -1.2973
    7DOPE   H5X  864   3.723   7.423  15.528 -1.0921  1.0760  3.3473
    7DOPE   H5Y  865   3.859   7.527  15.502  0.8598 -0.6119  2.3642
    7DOPE   C36  866   3.685   7.587  15.391  0.7575 -0.5026  0.2734
    7DOPE   H6X  867   3.751   7.672  15.365 -2.4520  1.4520 -2.2252
    7DOPE   H6Y  868   3.579   7.615  15.403  0.6725 -1.8334  3.7005
    7DOPE   C37  869   3.687   7.489  15.276 -0.2762 -0.3269  0.3044
    7DOPE   H7X  870   3.792   7.457  15.255 -0.2139 -1.3188  2.0097
    7DOPE   H7Y  871   3.645   7.393  15.311  1.7487 -1.4794 -0.2344
    7DOPE   C38  872   3.612   7.535  15.150 -0.2868  0.1437 -0.0915
    7DOPE   H8X  873   3.632   7.455  15.076  0.0824 -2.0067  2.2104
    7DOPE   H8Y  874   3.653   7.632  15.113 -0.4501  0.1318 -0.3112
    7DOPE   C39  875   3.464   7.536  15.174  0.3406 -0.2723 -0.1732
    7DOPE   H9X  876   3.426   7.524  15.276 -1.0653 -2.6708 -0.9055
    7DOPE  C310  877   3.382   7.543  15.067  0.0237  0.3042  0.5184
    7DOPE  H10X  878   3.275   7.522  15.079 -0.1099  1.3996  1.3778
    7DOPE  C311  879   3.433   7.576  14.920  0.0396 -0.1945 -0.1295
    7DOPE  H11X  880   3.515   7.651  14.921 -2.1682  2.3714  0.0395
    7DOPE  H11Y  881   3.470   7.482  14.874 -0.8460 -1.6566  2.0268
    7DOPE  C312  882   3.318   7.636  14.838 -0.2335 -0.3509 -0.6940
    7DOPE  H12X  883   3.258   7.701  14.905 -0.8440 -0.6774 -0.9181
    7DOPE  H12Y  884   3.251   7.555  14.803 -1.5387  0.7526 -0.8312
    7DOPE  C313  885   3.365   7.724  14.718 -0.1538 -0.0590  0.2880
    7DOPE  H13X  886   3.278   7.780  14.677  0.6302  0.1250 -1.1916
    7DOPE  H13Y  887   3.438   7.801  14.750 -0.7225  0.9232 -0.7062
    7DOPE  C314  888   3.405   7.647  14.594  0.1453 -0.0411 -0.2450
    7DOPE  H14X  889   3.341   7.557  14.584 -0.3455  0.0364  1.7726
    7DOPE  H14Y  890   3.505   7.605  14.618 -0.5532 -0.3550  2.5242
    7DOPE  C315  891   3.413   7.735  14.469 -0.4193  0.1204 -0.3890
    7DOPE  H15X  892   3.487   7.816  14.489 -0.3977 -0.0341  0.1549
    7DOPE  H15Y  893   3.319   7.777  14.428 -0.6889 -1.7480 -1.8126
    7DOPE  C316  894   3.465   7.654  14.347 -0.2783 -0.0218 -0.4455
    7DOPE  H16X  895   3.409   7.558  14.340  0.6528 -0.6027 -0.0827
    7DOPE  H16Y  896   3.569   7.626  14.374  0.2545  1.6598 -0.6023
    7DOPE  C317  897   3.480   7.731  14.222 -0.0812 -0.2122 -0.5459
    7DOPE  H17X  898   3.384   7.747  14.169 -0.0432 -2.2403 -1.3169
    7DOPE  H17Y  899   3.527   7.829  14.246  0.5045  0.3081 -3.4410
    7DOPE  C318  900   3.584   7.667  14.121  0.7623 -0.7763  0.0552
    7DOPE  H18X  901   3.545   7.575  14.073 -1.0032 -0.3616  0.6504
    7DOPE  H18Y  902   3.604   7.751  14.051  2.6395 -0.0528  1.3584
    7DOPE  H18Z  903   3.685   7.646  14.162  1.3861  1.0987 -0.3974
    8DOPE     N  904   5.110   7.096  16.596 -0.4027  0.3111 -0.0234
    8DOPE   HN1  905   5.160   7.187  16.593 -0.2751  0.3819  2.2136
    8DOPE   HN2  906   5.036   7.107  16.668 -2.2786 -0.8541 -1.6735
    8DOPE   HN3  907   5.182   7.023  16.612 -0.4683  0.2876  0.1605
    8DOPE   C12  908   5.031   7.067  16.470 -0.4151 -0.3752 -0.0586
    8DOPE  H12A  909   4.972   6.975  16.486 -0.3562 -0.6693 -1.3601
    8DOPE  H12B  910   5.098   7.046  16.384  0.2215 -0.8023  0.5355
    8DOPE   C11  911   4.935   7.181  16.452  0.3248 -0.7479  0.2933
    8DOPE  H11A  912   4.887   7.206  16.549  1.5089 -0.3779  0.8147
    8DOPE  H11B  913   4.857   7.140  16.385 -0.0293 -0.1249  0.3195
    8DOPE     P  914   4.917   7.440  16.391 -0.3842 -0.0637  0.0766
    8DOPE   O13  915   5.008   7.554  16.367 -0.0607 -0.4461  0.2051
    8DOPE   O14  916   4.846   7.445  16.519  0.0788 -0.3546  0.2686
    8DOPE   O11  917   4.809   7.422  16.281 -0.5093 -0.2698 -0.9158
    8DOPE   O12  918   5.001   7.302  16.390 -0.2704 -0.1702 -0.2923
    8DOPE    C1  919   4.837   7.401  16.145 -0.8713  0.0737 -0.1176
    8DOPE    HA  920   4.752   7.350  16.095 -0.7865 -0.8988  0.6934
    8DOPE    HB  921   4.924   7.335  16.125  1.0695  2.6689 -0.7465
    8DOPE    C2  922   4.861   7.529  16.069  0.3237 -0.7587 -0.1889
    8DOPE    HS  923   4.950   7.576  16.116  2.7494 -3.4777 -1.6859
    8DOPE   O21  924   4.737   7.607  16.079 -0.4449 -0.3233  0.1955
    8DOPE   C21  925   4.749   7.741  16.063  0.1446 -0.0287  0.4017
    8DOPE   O22  926   4.859   7.799  16.061  0.0447  0.5195 -0.1651
    8DOPE   C22  927   4.607   7.799  16.056 -0.3627 -0.3276 -0.0060
    8DOPE   H2R  928   4.540   7.756  16.134 -0.9559 -1.7055 -1.2114
    8DOPE   H2S  929   4.566   7.771  15.957 -0.1673  1.3889 -0.6004
    8DOPE    C3  930   4.891   7.508  15.919  0.8310  0.4411 -0.5555
    8DOPE    HX  931   4.825   7.431  15.874 -0.2634  0.6418  0.6392
    8DOPE    HY  932   4.993   7.465  15.913  0.9790  0.6187  0.4807
    8DOPE   O31  933   4.868   7.632  15.840 -0.3009  0.2789  0.1290
    8DOPE   C31  934   4.977   7.701  15.820 -0.0153  0.2761  0.0760
    8DOPE   O32  935   5.087   7.679  15.871 -0.4808 -0.0555  0.1419
    8DOPE   C32  936   4.942   7.811  15.723 -0.5353  0.4223  0.1081
    8DOPE   H2X  937   4.848   7.861  15.758 -0.4842 -0.4105  1.5148
    8DOPE   H2Y  938   5.025   7.884  15.729 -1.5835  1.8990 -1.8981
    8DOPE   C23  939   4.599   7.951  16.088  0.1548 -0.2099 -0.0554
    8DOPE   H3R  940   4.655   7.967  16.182 -3.0598  0.5669  1.8867
    8DOPE   H3S  941   4.498   7.971  16.130  0.0285 -2.9582  1.1951
    8DOPE   C24  942   4.657   8.043  15.982  0.1035  0.3684 -0.0834
    8DOPE   H4R  943   4.765   8.021  15.969  0.7671  2.6338  1.0905
    8DOPE   H4S  944   4.669   8.152  16.001  1.0248  0.0344  1.3800
    8DOPE   C25  945   4.581   8.029  15.851  0.3754  0.1604  0.4078
    8DOPE   H5R  946   4.574   7.924  15.815 -0.3634  0.2349  0.3253
    8DOPE   H5S  947   4.644   8.078  15.773  1.6798  0.6952  1.7554
    8DOPE   C26  948   4.440   8.081  15.846 -0.2396 -0.5096 -0.1630
    8DOPE   H6R  949   4.443   8.190  15.868  1.6092 -0.9566  2.2597
    8DOPE   H6S  950   4.371   8.039  15.921  0.2111 -1.0056 -0.0260
    8DOPE   C27  951   4.376   8.059  15.703 -0.1747 -0.1419  0.0922
    8DOPE   H7R  952   4.337   7.957  15.679  0.0786  0.4853 -3.5310
    8DOPE   H7S  953   4.459   8.065  15.629 -0.1742 -0.6110  0.0468
    8DOPE   C28  954   4.262   8.160  15.673  0.7005  0.0246  0.6955
    8DOPE   H8R  955   4.228   8.137  15.569  2.1110  0.0499  0.2104
    8DOPE   H8S  956   4.306   8.261  15.678 -0.4363  0.6052 -0.4147
    8DOPE   C29  957   4.160   8.151  15.781 -0.5998 -0.0066  0.0222
    8DOPE   H9R  958   4.195   8.200  15.873  3.3698  0.5600 -1.6023
    8DOPE  C210  959   4.031   8.101  15.776 -0.3123  0.0890 -0.0383
    8DOPE  H10R  960   3.974   8.097  15.870  2.5098 -3.4775  1.7875
    8DOPE  C211  961   3.971   8.023  15.660  0.4992  0.0113  0.4009
    8DOPE  H11R  962   3.926   7.923  15.680  2.0649 -1.0395 -1.0755
    8DOPE  H11S  963   4.037   8.010  15.572  1.1965 -1.2968  1.0795
    8DOPE  C212  964   3.852   8.108  15.601 -0.4209  0.4163  0.0519
    8DOPE  H12R  965   3.881   8.211  15.570 -0.2231  0.3715  0.0832
    8DOPE  H12S  966   3.775   8.131  15.677 -0.9005  2.1863 -0.9129
    8DOPE  C213  967   3.785   8.045  15.482  0.2102 -0.0950  0.2030
    8DOPE  H13R  968   3.754   7.941  15.504 -1.6265  0.6749  1.5420
    8DOPE  H13S  969   3.860   8.037  15.401 -1.0919 -3.4964 -0.8649
    8DOPE  C214  970   3.655   8.124  15.431 -0.1448  0.1914  0.0766
    8DOPE  H14R  971   3.684   8.222  15.386 -0.7624 -0.3870 -1.6775
    8DOPE  H14S  972   3.590   8.142  15.520  1.5148  2.3469  0.9546
    8DOPE  C215  973   3.572   8.046  15.329 -0.3148  0.6293 -0.0564
    8DOPE  H15R  974   3.538   7.953  15.380  0.3029  0.9096  0.9061
    8DOPE  H15S  975   3.631   8.002  15.245 -1.1425 -2.0368  0.6710
    8DOPE  C216  976   3.456   8.125  15.268  0.2545  0.1065 -0.2011
    8DOPE  H16R  977   3.389   8.046  15.228 -0.7529  0.3787  0.8916
    8DOPE  H16S  978   3.481   8.190  15.181  0.0369  0.4065 -0.0436
    8DOPE  C217  979   3.370   8.191  15.369 -0.1472 -0.9415 -0.0088
    8DOPE  H17R  980   3.422   8.281  15.409 -1.4763  0.6489 -1.6364
    8DOPE  H17S  981   3.346   8.118  15.449 -0.7619 -2.1017 -1.2178
    8DOPE  C218  982   3.234   8.230  15.321  0.0077 -0.7181  0.1215
    8DOPE  H18R  983   3.231   8.290  15.228 -1.1902  0.3727  0.8243
    8DOPE  H18S  984   3.176   8.290  15.395  1.0732  0.6549 -0.0900
    8DOPE  H18T  985   3.184   8.134  15.301  0.3888 -0.7967 -0.4583
    8DOPE   C33  986   4.919   7.768  15.574  0.2206 -0.2771 -0.5238
    8DOPE   H3X  987   5.005   7.706  15.542 -0.3591 -0.6611 -1.3726
    8DOPE   H3Y  988   4.910   7.861  15.514  0.5201  0.2415  0.2241
    8DOPE   C34  989   4.791   7.677  15.545 -0.2105 -0.0788 -0.2106
    8DOPE   H4X  990   4.798   7.641  15.440  0.7704 -0.3094 -0.0723
    8DOPE   H4Y  991   4.795   7.590  15.614  1.4368  1.7950  2.2239
    8DOPE   C35  992   4.647   7.736  15.565  0.3966 -0.0143 -0.0992
    8DOPE   H5X  993   4.657   7.780  15.667  0.7618 -1.3197  0.4534
    8DOPE   H5Y  994   4.576   7.650  15.570 -1.0042  1.0757 -0.7777
    8DOPE   C36  995   4.605   7.836  15.456 -0.3504  0.0509  0.4733
    8DOPE   H6X  996   4.692   7.905  15.463  1.4918 -1.9284 -1.3838
    8DOPE   H6Y  997   4.519   7.899  15.486 -3.5072 -3.7650  0.2175
    8DOPE   C37  998   4.589   7.772  15.317 -0.3055 -0.1412  0.1671
    8DOPE   H7X  999   4.688   7.738  15.280 -0.0835  0.8239 -0.1541
    8DOPE   H7Y 1000   4.529   7.679  15.326  2.0720 -1.6527  1.3586
    8DOPE   C38 1001   4.540   7.859  15.202 -0.0515 -0.5847 -0.5136
    8DOPE   H8X 1002   4.432   7.878  15.189  0.3348  2.1701 -0.1700
    8DOPE   H8Y 1003   4.549   7.783  15.122  0.3431 -1.2136  0.1097
    8DOPE   C39 1004   4.617   7.987  15.184  0.8458  0.0618 -0.7986
    8DOPE   H9X 1005   4.599   8.074  15.249  1.2780 -0.5451  0.1519
    8DOPE  C310 1006   4.722   7.996  15.098  0.3628  0.6206  0.2725
    8DOPE  H10X 1007   4.762   8.094  15.068  1.5288  1.2101  3.3528
    8DOPE  C311 1008   4.759   7.885  15.002  0.1250 -0.0320  0.3681
    8DOPE  H11X 1009   4.739   7.785  15.046  0.5368  0.4255  1.6229
    8DOPE  H11Y 1010   4.713   7.902  14.902 -1.1614  0.0822  0.9588
    8DOPE  C312 1011   4.915   7.853  14.971  0.1450 -0.6528 -0.2995
    8DOPE  H12X 1012   4.920   7.763  14.905  0.5605 -1.4675  0.8247
    8DOPE  H12Y 1013   4.972   7.841  15.065 -1.5719  0.3100  0.9143
    8DOPE  C313 1014   4.985   7.960  14.888  0.6008  0.3712  0.1254
    8DOPE  H13X 1015   4.974   8.063  14.926 -1.2709  0.4852 -0.6261
    8DOPE  H13Y 1016   5.094   7.938  14.894  0.2186 -1.7538 -0.0125
    8DOPE  C314 1017   4.953   7.957  14.738  0.7164 -0.0315  0.0300
    8DOPE  H14X 1018   4.850   7.995  14.722  0.7523 -0.0212 -0.1849
    8DOPE  H14Y 1019   4.958   7.850  14.709 -1.0641 -0.9186  2.6574
    8DOPE  C315 1020   5.056   8.039  14.664  0.3909 -0.0065 -0.2243
    8DOPE  H15X 1021   5.158   8.041  14.708  0.0270  0.5813  0.6117
    8DOPE  H15Y 1022   5.020   8.145  14.661  0.4870  0.0882  1.2323
    8DOPE  C316 1023   5.057   8.005  14.513  0.1905 -0.1121 -0.6608
    8DOPE  H16X 1024   4.954   8.017  14.472  1.0102 -0.1710 -2.8724
    8DOPE  H16Y 1025   5.070   7.895  14.502 -1.1576 -0.4545  0.7158
    8DOPE  C317 1026   5.166   8.087  14.436  0.5237 -0.2127 -0.5073
    8DOPE  H17X 1027   5.125   8.190  14.433  0.9959  0.0003  0.1859
    8DOPE  H17Y 1028   5.258   8.081  14.498 -0.4133 -2.8835  0.7940
    8DOPE  C318 1029   5.176   8.032  14.298 -0.4724  0.2520 -0.1618
    8DOPE  H18X 1030   5.241   8.099  14.238 -1.5563  1.1923 -0.3087
    8DOPE  H18Y 1031   5.082   8.032  14.239 -1.1017  2.8444  0.7312
    8DOPE  H18Z 1032   5.217   7.928  14.295 -2.4170 -0.6418  1.7464
    9DOPE     N 1033   0.312   6.301  16.683 -0.0565  0.6690  1.1149
    9DOPE   HN1 1034   0.244   6.235  16.642 -1.3350  2.3411  0.4280
    9DOPE   HN2 1035   0.395   6.305  16.621 -1.4519  0.9100 -0.8397
    9DOPE   HN3 1036   0.342   6.253  16.770 -1.0758 -0.6330  0.7766
    9DOPE   C12 1037   0.247   6.439  16.677  0.9327 -0.4453 -0.1642
    9DOPE  H12A 1038   0.333   6.508  16.685  0.1750  0.4842  0.0438
    9DOPE  H12B 1039   0.184   6.452  16.768  1.1689 -1.5678  0.1809
    9DOPE   C11 1040   0.171   6.459  16.544 -0.1089  0.2360 -0.0154
    9DOPE  H11A 1041   0.150   6.567  16.537 -3.7437 -0.4349 -2.2403
    9DOPE  H11B 1042   0.071   6.422  16.514 -0.4921  2.1541 -1.2620
    9DOPE     P 1043   0.312   6.524  16.323 -0.1969 -0.1795  0.0611
    9DOPE   O13 1044   0.352   6.438  16.205 -0.2900  0.0763 -0.0487
    9DOPE   O14 1045   0.424   6.606  16.382  0.2989  0.1264 -0.2070
    9DOPE   O11 1046   0.185   6.612  16.291  0.4081  0.0250 -0.1651
    9DOPE   O12 1047   0.256   6.417  16.430  0.1339 -0.0344 -0.3145
    9DOPE    C1 1048   0.051   6.567  16.275  0.9328  0.1527  0.1863
    9DOPE    HA 1049  -0.017   6.619  16.346  2.9437 -0.7506  2.9195
    9DOPE    HB 1050   0.040   6.461  16.303  3.0775 -0.3059 -0.5156
    9DOPE    C2 1051  -0.011   6.599  16.134 -0.2687 -0.7888  0.1248
    9DOPE    HS 1052  -0.115   6.562  16.146 -1.0310  1.6061  1.4588
    9DOPE   O21 1053   0.077   6.553  16.032  0.3817  0.4334  0.2467
    9DOPE   C21 1054   0.095   6.423  16.020  0.8191  0.1898  0.7620
    9DOPE   O22 1055   0.031   6.331  16.069 -0.1413 -0.3475 -0.3041
    9DOPE   C22 1056   0.203   6.398  15.908 -0.3171 -0.0622  0.2354
    9DOPE   H2R 1057   0.290   6.460  15.937 -1.6367  1.7788  0.4095
    9DOPE   H2S 1058   0.165   6.444  15.814  0.6351  1.8421  0.7370
    9DOPE    C3 1059  -0.017   6.753  16.100  0.2964  0.2776  0.2901
    9DOPE    HX 1060   0.088   6.788  16.093  0.4467 -0.3347 -0.6271
    9DOPE    HY 1061  -0.062   6.818  16.179  1.5870  0.5282  0.8464
    9DOPE   O31 1062  -0.073   6.788  15.967  0.4461 -0.5131 -0.5956
    9DOPE   C31 1063  -0.200   6.747  15.937  0.2189  0.0816  0.6952
    9DOPE   O32 1064  -0.273   6.695  16.022 -0.6850  0.8934  0.2666
    9DOPE   C32 1065  -0.244   6.782  15.797 -0.4977 -0.1166  0.0001
    9DOPE   H2X 1066  -0.198   6.880  15.775  1.6164  0.0565  4.2065
    9DOPE   H2Y 1067  -0.205   6.711  15.721 -0.0157 -0.7779  0.8485
    9DOPE   C23 1068   0.244   6.247  15.895  0.9506  0.1434 -0.7382
    9DOPE   H3R 1069   0.148   6.190  15.893  0.8566  0.2422  0.4318
    9DOPE   H3S 1070   0.301   6.221  15.987  0.1842 -1.2170 -0.6110
    9DOPE   C24 1071   0.319   6.210  15.769  0.3531  0.1663  0.1913
    9DOPE   H4R 1072   0.338   6.101  15.769 -1.8051 -0.2559  1.0066
    9DOPE   H4S 1073   0.419   6.255  15.788  0.3125 -0.1928  1.3250
    9DOPE   C25 1074   0.252   6.242  15.636 -0.1453 -0.2442  0.4343
    9DOPE   H5R 1075   0.241   6.352  15.623  1.9003 -0.0936 -0.4252
    9DOPE   H5S 1076   0.148   6.204  15.629  0.1159 -1.0517  0.7976
    9DOPE   C26 1077   0.332   6.194  15.517  0.2192 -0.0567 -0.7578
    9DOPE   H6R 1078   0.369   6.089  15.521 -0.4200 -0.3449 -1.9160
    9DOPE   H6S 1079   0.422   6.258  15.512  0.8822 -0.9638 -0.6740
    9DOPE   C27 1080   0.270   6.191  15.382  0.5438  1.1353  0.1042
    9DOPE   H7R 1081   0.206   6.281  15.370 -0.4217  0.4683  0.2136
    9DOPE   H7S 1082   0.203   6.103  15.374 -1.5628  2.7844 -1.9914
    9DOPE   C28 1083   0.371   6.186  15.266  1.0717 -0.1236  1.1129
    9DOPE   H8R 1084   0.436   6.095  15.269  1.2267 -0.3862 -3.3263
    9DOPE   H8S 1085   0.434   6.277  15.276 -0.1546  0.5709  2.9724
    9DOPE   C29 1086   0.291   6.183  15.135 -0.0196  0.1416  0.1898
    9DOPE   H9R 1087   0.249   6.086  15.103 -0.7933  0.3302  0.6141
    9DOPE  C210 1088   0.272   6.289  15.054 -0.3830 -0.4040 -0.5201
    9DOPE  H10R 1089   0.228   6.277  14.954 -1.4752  1.7817 -0.3565
    9DOPE  C211 1090   0.321   6.429  15.088 -0.5742  0.3568 -0.7727
    9DOPE  H11R 1091   0.420   6.446  15.040 -0.5659  0.5733 -0.6812
    9DOPE  H11S 1092   0.347   6.448  15.194  3.5501 -2.1833 -1.0934
    9DOPE  C212 1093   0.233   6.544  15.041 -0.0620 -0.8824 -0.5858
    9DOPE  H12R 1094   0.253   6.639  15.094  1.4847 -2.1128  1.1558
    9DOPE  H12S 1095   0.130   6.518  15.071  0.6724 -3.6785 -0.1919
    9DOPE  C213 1096   0.223   6.560  14.888  0.3706  0.3377 -0.3381
    9DOPE  H13R 1097   0.216   6.458  14.844 -1.5149  0.3711 -0.2211
    9DOPE  H13S 1098   0.316   6.609  14.852  1.8507 -0.1197  2.6272
    9DOPE  C214 1099   0.097   6.637  14.841  0.2363 -0.3933 -0.2196
    9DOPE  H14R 1100   0.123   6.744  14.858 -2.9145  0.4627 -0.2091
    9DOPE  H14S 1101   0.013   6.614  14.910  1.2591  1.4472  1.7977
    9DOPE  C215 1102   0.050   6.612  14.692 -0.2593 -0.6157 -0.3094
    9DOPE  H15R 1103   0.040   6.502  14.681  1.3025 -0.6224 -2.0334
    9DOPE  H15S 1104   0.134   6.631  14.622  0.7687  0.3504  1.1060
    9DOPE  C216 1105  -0.066   6.699  14.652 -0.2431  0.4242 -0.4058
    9DOPE  H16R 1106  -0.053   6.804  14.685 -0.8823  0.2641  0.4171
    9DOPE  H16S 1107  -0.162   6.667  14.699  0.1961  0.4474  0.5296
    9DOPE  C217 1108  -0.074   6.717  14.498 -0.1663  0.0065  0.5471
    9DOPE  H17R 1109   0.004   6.791  14.472 -0.3147  0.7317  2.0506
    9DOPE  H17S 1110  -0.170   6.770  14.478 -0.5843 -0.9271 -0.0299
    9DOPE  C218 1111  -0.058   6.583  14.417  0.1220  0.1471  0.0982
    9DOPE  H18R 1112  -0.078   6.594  14.308  1.6888 -1.2794 -0.3715
    9DOPE  H18S 1113  -0.134   6.513  14.458  0.0761  0.5134  0.6490
    9DOPE  H18T 1114   0.042   6.536  14.423 -0.4773 -1.2447 -0.3726
    9DOPE   C33 1115  -0.400   6.787  15.786  0.4021 -0.0379  0.2643
    9DOPE   H3X 1116  -0.445   6.843  15.871 -0.0931 -0.6428  0.4115
    9DOPE   H3Y 1117  -0.452   6.689  15.791 -0.4062  0.2776 -1.3275
    9DOPE   C34 1118  -0.450   6.841  15.654 -0.4495  0.0337  0.3285
    9DOPE   H4X 1119  -0.380   6.915  15.610  1.4593 -1.9589 -0.1438
    9DOPE   H4Y 1120  -0.437   6.755  15.585  0.1077 -0.4407  1.0195
    9DOPE   C35 1121  -0.594   6.901  15.653 -0.8377  0.7209  0.0730
    9DOPE   H5X 1122  -0.581   7.008  15.682  0.2542  0.2462  1.4658
    9DOPE   H5Y 1123  -0.656   6.857  15.734 -1.1672  1.2367  0.1049
    9DOPE   C36 1124  -0.675   6.883  15.526 -0.2907  0.3416  0.1603
    9DOPE   H6X 1125  -0.766   6.946  15.522 -0.7406 -0.1440  2.0549
    9DOPE   H6Y 1126  -0.705   6.776  15.524 -0.1011  0.2598  1.2162
    9DOPE   C37 1127  -0.596   6.909  15.396 -0.7621 -0.4392  0.1037
    9DOPE   H7X 1128  -0.512   6.835  15.387 -1.0102 -0.7275  0.1315
    9DOPE   H7Y 1129  -0.662   6.889  15.310 -1.2332  1.2498  0.0488
    9DOPE   C38 1130  -0.550   7.060  15.385 -0.2427  0.0538 -0.2654
    9DOPE   H8X 1131  -0.497   7.063  15.288  1.2012  0.9129  0.5162
    9DOPE   H8Y 1132  -0.477   7.094  15.462 -2.4758 -0.6547  2.3093
    9DOPE   C39 1133  -0.667   7.152  15.396 -0.5196 -0.8137  0.3629
    9DOPE   H9X 1134  -0.677   7.202  15.493  2.7399  1.0172 -0.1063
    9DOPE  C310 1135  -0.751   7.178  15.293  0.1875 -0.9085  0.2885
    9DOPE  H10X 1136  -0.843   7.235  15.310  0.6923 -0.1837  0.6157
    9DOPE  C311 1137  -0.737   7.106  15.162  0.1283 -0.1732 -0.3128
    9DOPE  H11X 1138  -0.713   7.184  15.086 -1.2042  1.7430  1.1331
    9DOPE  H11Y 1139  -0.654   7.034  15.152  0.0915 -0.0659 -1.6665
    9DOPE  C312 1140  -0.869   7.032  15.131 -0.0527  0.1542  0.0326
    9DOPE  H12X 1141  -0.949   7.108  15.146 -0.1138  0.1072 -0.0484
    9DOPE  H12Y 1142  -0.895   6.952  15.204 -1.7803  0.3410 -0.3226
    9DOPE  C313 1143  -0.860   6.976  14.992 -0.4472 -0.2979  1.0130
    9DOPE  H13X 1144  -0.798   7.039  14.925 -0.3112 -1.6634 -0.2064
    9DOPE  H13Y 1145  -0.798   6.884  14.993  1.6225  1.0345  0.2866
    9DOPE  C314 1146  -0.992   6.950  14.915  0.1251 -0.1791  0.0652
    9DOPE  H14X 1147  -1.053   6.882  14.977 -0.5293  0.5439  0.2385
    9DOPE  H14Y 1148  -0.965   6.892  14.824  0.3661  0.0592 -0.0161
    9DOPE  C315 1149  -1.089   7.073  14.884 -0.3819  0.2406 -0.3786
    9DOPE  H15X 1150  -1.047   7.142  14.808 -1.3673 -0.2937 -1.4354
    9DOPE  H15Y 1151  -1.109   7.139  14.971 -0.5742 -1.6339  1.0668
    9DOPE  C316 1152  -1.230   7.028  14.835  0.7088 -0.5636 -0.5846
    9DOPE  H16X 1153  -1.288   6.982  14.918  1.5431 -1.4904 -0.4932
    9DOPE  H16Y 1154  -1.222   6.944  14.762 -0.1346  1.2469 -2.8706
    9DOPE  C317 1155  -1.318   7.139  14.773 -0.1694 -0.3910  0.3275
    9DOPE  H17X 1156  -1.322   7.231  14.836 -0.0903 -0.2289  0.0990
    9DOPE  H17Y 1157  -1.269   7.177  14.681  0.8285  0.2930  1.1183
    9DOPE  C318 1158  -1.461   7.083  14.758 -0.0981 -0.0709 -0.2183
    9DOPE  H18X 1159  -1.500   7.039  14.853 -1.6466  1.8999  0.1316
    9DOPE  H18Y 1160  -1.525   7.166  14.720 -1.0164 -0.3103  0.7532
    9DOPE  H18Z 1161  -1.472   7.009  14.677 -1.9736 -0.4053  0.3055
   10DOPE     N 1162   0.874   7.641  16.372  0.2369 -0.6983  0.0787
   10DOPE   HN1 1163   0.796   7.708  16.390  1.1407  1.1643 -2.3517
   10DOPE   HN2 1164   0.832   7.558  16.326 -0.8020  0.1830 -0.6299
   10DOPE   HN3 1165   0.909   7.604  16.463  1.9619 -1.1707 -0.7458
   10DOPE   C12 1166   0.981   7.697  16.287  0.8199  0.3786 -0.1150
   10DOPE  H12A 1167   0.985   7.808  16.285  3.0380  0.3849  1.1727
   10DOPE  H12B 1168   0.967   7.668  16.180 -0.1507 -1.3655  0.4443
   10DOPE   C11 1169   1.119   7.659  16.336 -0.1040  0.2166  0.6714
   10DOPE  H11A 1170   1.133   7.699  16.439 -0.9163  2.3700 -0.0028
   10DOPE  H11B 1171   1.196   7.706  16.272  0.0656 -0.3099  0.4784
   10DOPE     P 1172   1.277   7.455  16.308  0.0510  0.0022 -0.4388
   10DOPE   O13 1173   1.275   7.306  16.320 -0.0315 -0.1626  0.1462
   10DOPE   O14 1174   1.363   7.524  16.408  0.6360  0.1901 -0.2518
   10DOPE   O11 1175   1.318   7.503  16.166 -0.1108 -0.0391  0.6901
   10DOPE   O12 1176   1.132   7.516  16.336  0.1522  0.4658  0.6464
   10DOPE    C1 1177   1.229   7.488  16.049 -0.5846 -0.3076  0.2952
   10DOPE    HA 1178   1.261   7.559  15.969 -0.1286  2.3733  2.6602
   10DOPE    HB 1179   1.122   7.506  16.073 -0.2294  1.3116  0.8453
   10DOPE    C2 1180   1.237   7.344  15.992  0.1213  1.3919 -0.0368
   10DOPE    HS 1181   1.192   7.277  16.069 -3.2054  3.2602 -0.1961
   10DOPE   O21 1182   1.380   7.303  15.973  0.3745 -0.6069 -0.3155
   10DOPE   C21 1183   1.411   7.186  16.026 -1.1977  0.0031 -0.0100
   10DOPE   O22 1184   1.346   7.105  16.086 -0.1939 -0.5962 -0.2889
   10DOPE   C22 1185   1.562   7.166  15.992 -0.1610  0.1198  0.4244
   10DOPE   H2R 1186   1.611   7.090  16.056 -1.6426 -0.7626  0.5632
   10DOPE   H2S 1187   1.627   7.247  16.030  2.4545 -1.5350 -0.2613
   10DOPE    C3 1188   1.152   7.329  15.863  0.1833 -0.1318 -0.3025
   10DOPE    HX 1189   1.170   7.420  15.801  1.9618 -0.6491 -0.5761
   10DOPE    HY 1190   1.046   7.326  15.896 -0.3423  1.5850 -1.6305
   10DOPE   O31 1191   1.181   7.221  15.781  0.1447 -0.1631 -0.3027
   10DOPE   C31 1192   1.128   7.106  15.820 -0.5169  0.0123 -0.0126
   10DOPE   O32 1193   1.033   7.089  15.889  0.4429  0.1345 -0.2756
   10DOPE   C32 1194   1.197   6.995  15.735 -0.8341  0.5851  0.4485
   10DOPE   H2X 1195   1.298   7.024  15.698 -1.1027  2.1506  0.8999
   10DOPE   H2Y 1196   1.217   6.913  15.807 -1.5079 -0.5218 -0.5925
   10DOPE   C23 1197   1.589   7.162  15.842  0.4801  0.6248  0.1393
   10DOPE   H3R 1198   1.529   7.229  15.778  1.2711 -0.6538 -2.0901
   10DOPE   H3S 1199   1.567   7.058  15.809 -1.4753  1.4409 -1.2456
   10DOPE   C24 1200   1.735   7.190  15.808 -0.5610 -0.5083 -0.6495
   10DOPE   H4R 1201   1.802   7.157  15.890  0.3211  1.5077 -0.4893
   10DOPE   H4S 1202   1.753   7.300  15.813  0.2548 -0.5285 -2.3502
   10DOPE   C25 1203   1.784   7.145  15.673 -0.3659 -0.0647 -0.0418
   10DOPE   H5R 1204   1.766   7.036  15.656  1.2969 -0.9520  3.1983
   10DOPE   H5S 1205   1.892   7.171  15.669 -1.0189  3.5988  1.8645
   10DOPE   C26 1206   1.706   7.217  15.558 -0.3889 -0.3190  0.3380
   10DOPE   H6R 1207   1.697   7.325  15.581 -0.0166  0.0219 -0.9919
   10DOPE   H6S 1208   1.615   7.159  15.534 -0.7547  1.0141 -1.7395
   10DOPE   C27 1209   1.791   7.210  15.425  0.1003 -0.1573  0.5338
   10DOPE   H7R 1210   1.877   7.280  15.435  1.6066 -1.5773 -1.6061
   10DOPE   H7S 1211   1.727   7.244  15.340 -0.2766 -0.6540  0.6165
   10DOPE   C28 1212   1.841   7.069  15.384  0.2135 -1.0231  0.5867
   10DOPE   H8R 1213   1.901   7.028  15.468  1.7304 -1.6871 -0.7700
   10DOPE   H8S 1214   1.909   7.076  15.296 -2.6428  0.3523 -1.6684
   10DOPE   C29 1215   1.717   6.991  15.345  0.9730 -0.1162  0.1126
   10DOPE   H9R 1216   1.619   7.030  15.378  0.8901  0.4559 -0.7907
   10DOPE  C210 1217   1.721   6.873  15.276  0.4503  0.5208  0.1067
   10DOPE  H10R 1218   1.629   6.815  15.265  0.0171  1.0907  0.6424
   10DOPE  C211 1219   1.849   6.814  15.220 -0.6588 -0.0866  0.2959
   10DOPE  H11R 1220   1.927   6.826  15.298  0.2483  2.0753 -0.8520
   10DOPE  H11S 1221   1.888   6.860  15.127 -1.9724 -3.3950 -2.1038
   10DOPE  C212 1222   1.841   6.660  15.191 -0.3738 -0.2666 -0.4382
   10DOPE  H12R 1223   1.936   6.624  15.145  1.7655  1.8339  2.0286
   10DOPE  H12S 1224   1.762   6.645  15.114  1.4777  0.1388 -2.5600
   10DOPE  C213 1225   1.799   6.579  15.309  0.2588 -0.5123  0.3449
   10DOPE  H13R 1226   1.689   6.576  15.323  0.0637 -0.3862 -1.0100
   10DOPE  H13S 1227   1.845   6.625  15.400 -0.3349 -1.7161  1.2778
   10DOPE  C214 1228   1.852   6.436  15.306 -0.0110  0.6979  0.0402
   10DOPE  H14R 1229   1.947   6.438  15.247 -0.1832 -1.6691 -0.4191
   10DOPE  H14S 1230   1.799   6.361  15.244  1.0184 -1.0608  1.1902
   10DOPE  C215 1231   1.889   6.381  15.438 -0.1726 -0.1511 -0.0376
   10DOPE  H15R 1232   1.803   6.377  15.508 -1.2825 -0.4986 -1.3939
   10DOPE  H15S 1233   1.961   6.457  15.475 -0.7468 -0.8250  2.6711
   10DOPE  C216 1234   1.947   6.244  15.433 -0.0936  0.4546 -0.7110
   10DOPE  H16R 1235   2.045   6.241  15.382  0.0692 -0.9424 -0.3542
   10DOPE  H16S 1236   1.882   6.183  15.367  0.4693  0.1783 -1.0129
   10DOPE  C217 1237   1.964   6.171  15.572  0.5073  0.4315 -0.2670
   10DOPE  H17R 1238   1.995   6.064  15.565 -2.6418 -0.5227 -1.3372
   10DOPE  H17S 1239   1.862   6.167  15.616  0.7964 -1.9318  0.3305
   10DOPE  C218 1240   2.054   6.241  15.662 -0.1517 -0.0522 -0.8543
   10DOPE  H18R 1241   1.998   6.331  15.695 -1.9624 -0.9947 -1.2236
   10DOPE  H18S 1242   2.144   6.268  15.603  0.1265 -0.8539 -0.8061
   10DOPE  H18T 1243   2.086   6.170  15.741 -1.0549 -1.2817 -1.5702
   10DOPE   C33 1244   1.111   6.942  15.621  0.2035  0.2227  0.1877
   10DOPE   H3X 1245   1.007   6.934  15.659  0.2911 -1.5172  0.1599
   10DOPE   H3Y 1246   1.139   6.837  15.597 -1.7199 -0.0405 -1.0933
   10DOPE   C34 1247   1.125   7.039  15.507 -0.7279  0.9497 -0.5890
   10DOPE   H4X 1248   1.025   7.058  15.462 -1.0133 -1.8277 -1.2982
   10DOPE   H4Y 1249   1.157   7.138  15.547  0.1731  0.4497 -0.0389
   10DOPE   C35 1250   1.225   7.004  15.405 -0.4224  0.3799  0.3748
   10DOPE   H5X 1251   1.198   6.907  15.358 -0.4965  0.8669 -0.6179
   10DOPE   H5Y 1252   1.328   6.994  15.445 -0.1475  1.3113 -0.0682
   10DOPE   C36 1253   1.245   7.105  15.291 -0.6556 -0.1424  0.7714
   10DOPE   H6X 1254   1.313   7.065  15.213 -1.2411 -0.7510  0.5698
   10DOPE   H6Y 1255   1.293   7.201  15.320 -0.8369  0.7255 -1.5748
   10DOPE   C37 1256   1.118   7.139  15.214 -0.2046  0.5907 -0.4508
   10DOPE   H7X 1257   1.069   7.041  15.195 -0.2090  0.6160 -0.5745
   10DOPE   H7Y 1258   1.059   7.198  15.287  0.3785 -0.6343  1.0751
   10DOPE   C38 1259   1.126   7.207  15.075  0.3993  0.4841 -0.4934
   10DOPE   H8X 1260   1.179   7.303  15.090  1.4662 -0.4293  2.1589
   10DOPE   H8Y 1261   1.029   7.209  15.021  0.2219 -1.1231 -0.3026
   10DOPE   C39 1262   1.218   7.146  14.977 -0.5732 -0.4422 -0.0351
   10DOPE   H9X 1263   1.292   7.078  15.022  0.9434  0.3366 -1.2407
   10DOPE  C310 1264   1.215   7.149  14.842  0.3039 -0.0018 -0.2833
   10DOPE  H10X 1265   1.284   7.083  14.787 -0.4261 -0.1046 -1.1151
   10DOPE  C311 1266   1.124   7.229  14.755 -0.1810 -1.1093  0.2057
   10DOPE  H11X 1267   1.025   7.182  14.742  0.1725 -1.8329  0.0610
   10DOPE  H11Y 1268   1.102   7.324  14.807  2.2419 -0.9156  1.0133
   10DOPE  C312 1269   1.185   7.265  14.618 -0.2232  0.3552 -0.0845
   10DOPE  H12X 1270   1.260   7.189  14.588 -1.3984 -1.3375  1.0607
   10DOPE  H12Y 1271   1.240   7.360  14.630 -0.8912  0.6608  0.6448
   10DOPE  C313 1272   1.085   7.301  14.508  0.3409  0.3522 -0.3464
   10DOPE  H13X 1273   1.156   7.344  14.434  1.5676  2.1447  1.7533
   10DOPE  H13Y 1274   1.036   7.207  14.475  1.3989  0.0793 -1.1829
   10DOPE  C314 1275   0.976   7.410  14.541 -0.3106  0.2614  0.2396
   10DOPE  H14X 1276   1.015   7.505  14.582  0.3754  1.8334 -3.6232
   10DOPE  H14Y 1277   0.904   7.378  14.619  0.3706  1.1946  1.2875
   10DOPE  C315 1278   0.890   7.453  14.416 -0.1599 -0.4904  0.3447
   10DOPE  H15X 1279   0.813   7.376  14.394  1.1569 -1.0541 -2.8407
   10DOPE  H15Y 1280   0.949   7.481  14.326  2.1935  2.3358  2.5771
   10DOPE  C316 1281   0.796   7.575  14.442 -0.0343 -0.2738 -0.0212
   10DOPE  H16X 1282   0.867   7.660  14.436 -0.8906  0.5381  1.0525
   10DOPE  H16Y 1283   0.765   7.560  14.547  2.3240  0.9521  0.9252
   10DOPE  C317 1284   0.684   7.600  14.336  0.4164  0.6360  0.3577
   10DOPE  H17X 1285   0.644   7.497  14.325 -0.1428  0.9379 -0.4133
   10DOPE  H17Y 1286   0.604   7.662  14.381 -0.7844  0.7947 -1.9137
   10DOPE  C318 1287   0.738   7.633  14.192  0.1493 -0.2439 -0.2864
   10DOPE  H18X 1288   0.835   7.586  14.164  1.9004  1.0699  2.9355
   10DOPE  H18Y 1289   0.666   7.601  14.114 -0.9181 -1.1528  1.0495
   10DOPE  H18Z 1290   0.745   7.744  14.179 -2.5371  0.0482  0.1967
   11DOPE     N 1291   6.857   4.816  16.561 -0.1523 -0.0132 -0.8193
   11DOPE   HN1 1292   6.789   4.879  16.607  2.1156  1.1964  1.1086
   11DOPE   HN2 1293   6.937   4.879  16.539  0.5020 -0.1557  0.9776
   11DOPE   HN3 1294   6.824   4.774  16.472  0.0701 -0.7563 -0.5559
   11DOPE   C12 1295   6.914   4.709  16.658  0.0941  0.0374  0.1764
   11DOPE  H12A 1296   6.990   4.654  16.599  1.9152 -0.7160  3.0472
   11DOPE  H12B 1297   6.831   4.644  16.692  0.4461 -1.6219 -1.9069
   11DOPE   C11 1298   6.984   4.769  16.779  0.5757 -0.3364  0.2223
   11DOPE  H11A 1299   7.034   4.695  16.844 -1.4452 -2.1831 -0.1973
   11DOPE  H11B 1300   6.907   4.814  16.845  0.1360  0.7920 -1.0149
   11DOPE     P 1301   7.205   4.869  16.666  0.4312  0.4865 -0.0259
   11DOPE   O13 1302   7.294   4.784  16.741 -0.3934 -0.4905  0.1838
   11DOPE   O14 1303   7.251   5.006  16.635 -0.0035 -0.9009 -0.0595
   11DOPE   O11 1304   7.185   4.799  16.530  0.5421  0.1431 -0.3774
   11DOPE   O12 1305   7.064   4.881  16.738  0.1637 -0.0744 -0.2326
   11DOPE    C1 1306   7.283   4.718  16.466  0.9130 -0.9537  0.3211
   11DOPE    HA 1307   7.270   4.610  16.488  1.1389 -0.9294  0.5783
   11DOPE    HB 1308   7.389   4.745  16.487  0.4568  1.1926  0.1102
   11DOPE    C2 1309   7.262   4.727  16.314 -0.0738  0.2102  0.8822
   11DOPE    HS 1310   7.336   4.662  16.262 -0.6321 -0.8698  1.4017
   11DOPE   O21 1311   7.261   4.866  16.268 -0.0584  0.4673  0.2686
   11DOPE   C21 1312   7.387   4.907  16.259  0.3083  0.3359 -0.9407
   11DOPE   O22 1313   7.487   4.841  16.274  0.4725  0.0900  0.3167
   11DOPE   C22 1314   7.387   5.059  16.254  0.2822 -0.7840  0.1636
   11DOPE   H2R 1315   7.489   5.077  16.295  1.8719 -0.9718 -3.3456
   11DOPE   H2S 1316   7.311   5.107  16.320  2.3829  2.4531  0.4556
   11DOPE    C3 1317   7.132   4.651  16.263 -0.1147 -0.1640 -0.5317
   11DOPE    HX 1318   7.049   4.694  16.323 -2.0540 -0.1855 -3.0240
   11DOPE    HY 1319   7.149   4.548  16.301  0.4831  0.9722  2.5383
   11DOPE   O31 1320   7.112   4.670  16.123  0.6436 -0.1417 -0.0869
   11DOPE   C31 1321   7.175   4.580  16.044 -0.2703  0.1224  0.5842
   11DOPE   O32 1322   7.255   4.497  16.085  0.1094 -0.2402 -0.5334
   11DOPE   C32 1323   7.128   4.591  15.896  0.3759  0.2459  0.4952
   11DOPE   H2X 1324   7.039   4.524  15.892 -0.7926  1.7037  1.1022
   11DOPE   H2Y 1325   7.080   4.690  15.881 -2.4953 -1.1664 -0.3434
   11DOPE   C23 1326   7.376   5.119  16.117  0.7805  0.2817  0.7780
   11DOPE   H3R 1327   7.355   5.228  16.124  0.4937  0.2320  0.6855
   11DOPE   H3S 1328   7.289   5.077  16.063 -0.0012  0.2603  2.0106
   11DOPE   C24 1329   7.507   5.101  16.036  0.1142 -1.0214 -0.2070
   11DOPE   H4R 1330   7.530   4.995  16.012  1.6097 -0.4793 -1.3237
   11DOPE   H4S 1331   7.586   5.139  16.104 -0.8804 -0.1463  0.4947
   11DOPE   C25 1332   7.505   5.189  15.914 -0.9357  0.9293  0.2839
   11DOPE   H5R 1333   7.520   5.292  15.953  0.6426  0.8103  0.0559
   11DOPE   H5S 1334   7.413   5.182  15.853 -1.7521 -0.2949  1.5776
   11DOPE   C26 1335   7.619   5.152  15.813  0.0548 -0.2653  0.1904
   11DOPE   H6R 1336   7.591   5.078  15.734  0.4289  1.6051 -1.7824
   11DOPE   H6S 1337   7.702   5.119  15.879  0.0042 -0.3357  0.2176
   11DOPE   C27 1338   7.669   5.278  15.744  0.9442 -0.3502  0.0109
   11DOPE   H7R 1339   7.666   5.364  15.814 -0.0103  0.8217 -1.4083
   11DOPE   H7S 1340   7.600   5.300  15.660  1.2491  2.8198  0.4616
   11DOPE   C28 1341   7.817   5.264  15.702 -0.9108 -0.2081 -0.2848
   11DOPE   H8R 1342   7.868   5.238  15.797  0.0905 -0.7659 -0.9639
   11DOPE   H8S 1343   7.851   5.362  15.661  0.1949 -0.4850 -0.0672
   11DOPE   C29 1344   7.832   5.156  15.597  0.3389  0.1855 -0.7459
   11DOPE   H9R 1345   7.757   5.166  15.517 -0.1119  0.0079 -0.3509
   11DOPE  C210 1346   7.917   5.044  15.601  0.9015 -0.1459  0.3996
   11DOPE  H10R 1347   7.905   4.969  15.521 -1.4871  2.0759 -1.5332
   11DOPE  C211 1348   8.035   5.026  15.698  0.1424  0.1812  0.5679
   11DOPE  H11R 1349   8.030   5.114  15.766  2.0818 -0.2986  1.4045
   11DOPE  H11S 1350   8.134   5.048  15.651 -0.8370  3.0708 -0.3721
   11DOPE  C212 1351   8.031   4.897  15.779 -0.1726  0.2921  0.3965
   11DOPE  H12R 1352   8.099   4.911  15.866  0.1928 -0.8627  0.3154
   11DOPE  H12S 1353   8.077   4.814  15.722 -0.4118  0.1482  0.4155
   11DOPE  C213 1354   7.897   4.863  15.844 -0.3153  0.0248 -0.4450
   11DOPE  H13R 1355   7.816   4.841  15.771 -1.8182 -0.0540  1.1807
   11DOPE  H13S 1356   7.871   4.954  15.903  0.2266 -0.9764  1.4147
   11DOPE  C214 1357   7.915   4.751  15.947  0.0430 -0.5799  0.3324
   11DOPE  H14R 1358   8.004   4.760  16.013  1.1646 -1.6362 -0.9763
   11DOPE  H14S 1359   7.932   4.655  15.893 -0.5502 -0.5297  0.0502
   11DOPE  C215 1360   7.797   4.726  16.035  0.5258 -0.4558 -0.7988
   11DOPE  H15R 1361   7.750   4.824  16.059 -0.9691 -1.2915 -0.1513
   11DOPE  H15S 1362   7.841   4.682  16.127 -1.0557 -2.0430 -0.7548
   11DOPE  C216 1363   7.685   4.626  15.982  0.0581 -0.1401  0.5070
   11DOPE  H16R 1364   7.747   4.548  15.932  0.5458  0.2801  0.4434
   11DOPE  H16S 1365   7.631   4.689  15.908 -0.1314 -1.1262 -0.2279
   11DOPE  C217 1366   7.597   4.580  16.100  0.1896  0.4021  0.3508
   11DOPE  H17R 1367   7.493   4.614  16.076  0.7591  0.4182 -2.5369
   11DOPE  H17S 1368   7.639   4.634  16.187  2.7434 -0.6672 -0.1346
   11DOPE  C218 1369   7.602   4.429  16.118  0.0785  0.3842  0.0860
   11DOPE  H18R 1370   7.554   4.387  16.209  0.0393 -1.5919 -0.7848
   11DOPE  H18S 1371   7.711   4.411  16.127 -0.1664 -1.5580 -0.2915
   11DOPE  H18T 1372   7.574   4.364  16.032 -0.2867  0.3380  0.2358
   11DOPE   C33 1373   7.227   4.562  15.784  0.1408  0.3461 -0.9787
   11DOPE   H3X 1374   7.178   4.524  15.692  1.8553 -0.9822 -1.4057
   11DOPE   H3Y 1375   7.293   4.479  15.817 -0.3029  0.0089 -0.9278
   11DOPE   C34 1376   7.316   4.685  15.757  0.9669  0.6508 -0.1794
   11DOPE   H4X 1377   7.258   4.768  15.712 -1.7695 -0.9961  0.1175
   11DOPE   H4Y 1378   7.374   4.713  15.847  1.4398 -2.8579  0.7717
   11DOPE   C35 1379   7.424   4.639  15.655  0.4119 -0.3525  0.2911
   11DOPE   H5X 1380   7.386   4.595  15.560 -1.0767 -1.2383  1.2439
   11DOPE   H5Y 1381   7.484   4.559  15.703  0.2458 -1.4756 -1.2774
   11DOPE   C36 1382   7.510   4.757  15.608 -0.6777  0.5133 -0.0475
   11DOPE   H6X 1383   7.563   4.815  15.686  0.3422  1.7177 -1.5972
   11DOPE   H6Y 1384   7.438   4.829  15.566 -0.8888  0.3696  0.0621
   11DOPE   C37 1385   7.614   4.705  15.507  0.7321  0.4963 -0.5525
   11DOPE   H7X 1386   7.704   4.676  15.566 -0.6482 -0.2428  1.2783
   11DOPE   H7Y 1387   7.583   4.618  15.446 -1.4711  2.2430 -2.0906
   11DOPE   C38 1388   7.640   4.816  15.395 -0.8724  0.2574  0.5688
   11DOPE   H8X 1389   7.733   4.779  15.347 -0.8120  0.9381  0.1585
   11DOPE   H8Y 1390   7.659   4.919  15.431  2.5487  0.1473 -0.5794
   11DOPE   C39 1391   7.533   4.823  15.280 -0.2090 -0.3422  0.1878
   11DOPE   H9X 1392   7.482   4.919  15.266 -0.2892 -0.4962 -0.5981
   11DOPE  C310 1393   7.515   4.727  15.185  0.4623 -0.1199 -0.4044
   11DOPE  H10X 1394   7.430   4.741  15.116 -2.1883 -0.7538  2.4609
   11DOPE  C311 1395   7.578   4.592  15.189  0.0588 -0.8899  0.7166
   11DOPE  H11X 1396   7.681   4.596  15.230  0.4632  1.8319 -0.3665
   11DOPE  H11Y 1397   7.514   4.523  15.248  0.3161 -1.5799  0.1923
   11DOPE  C312 1398   7.580   4.543  15.041 -0.1890 -0.7658 -0.5189
   11DOPE  H12X 1399   7.632   4.616  14.976  0.2553 -0.7012 -0.1015
   11DOPE  H12Y 1400   7.475   4.516  15.016 -1.3172  3.0630 -0.4903
   11DOPE  C313 1401   7.651   4.401  15.036 -0.5754  0.6737 -0.3831
   11DOPE  H13X 1402   7.609   4.340  15.119  1.5305  1.8708  1.7007
   11DOPE  H13Y 1403   7.636   4.361  14.934  1.7455  0.5875 -0.7226
   11DOPE  C314 1404   7.804   4.410  15.052  0.4293 -0.2284 -0.6294
   11DOPE  H14X 1405   7.825   4.471  15.142  3.8306 -1.6571 -0.3068
   11DOPE  H14Y 1406   7.841   4.469  14.965 -0.7808  1.5342 -0.0002
   11DOPE  C315 1407   7.872   4.268  15.054  0.0812  0.5872  0.0153
   11DOPE  H15X 1408   7.814   4.188  15.105  2.7877 -2.5962 -1.4867
   11DOPE  H15Y 1409   7.967   4.269  15.111  1.0251 -1.0487 -1.4336
   11DOPE  C316 1410   7.900   4.207  14.917  0.4186  0.2832 -0.0245
   11DOPE  H16X 1411   7.943   4.278  14.843  0.0856 -2.3390 -2.9815
   11DOPE  H16Y 1412   7.804   4.184  14.865  2.2376  0.1423 -3.6708
   11DOPE  C317 1413   7.982   4.076  14.923  0.8194  0.1891 -0.5638
   11DOPE  H17X 1414   8.085   4.104  14.956 -0.4082 -0.2876  4.4220
   11DOPE  H17Y 1415   7.935   4.011  14.999  1.3270 -1.3608 -1.5178
   11DOPE  C318 1416   8.000   3.991  14.798 -0.4373  0.4136  0.4973
   11DOPE  H18X 1417   8.014   3.885  14.827  0.0751  1.0579  2.8988
   11DOPE  H18Y 1418   7.908   4.001  14.736  0.9881  1.2516 -1.5698
   11DOPE  H18Z 1419   8.083   4.031  14.737 -0.2179  0.8227  1.0483
   12DOPE     N 1420   1.908   0.046  16.643 -0.1462  0.1805 -0.0654
   12DOPE   HN1 1421   1.951   0.101  16.720 -0.7524  1.5650 -0.6827
   12DOPE   HN2 1422   1.878   0.119  16.576 -0.1959  0.8944  0.7127
   12DOPE   HN3 1423   1.823   0.001  16.681  0.0504 -0.8421 -0.7893
   12DOPE   C12 1424   2.011  -0.036  16.573  0.5543  0.6575 -0.1703
   12DOPE  H12A 1425   1.965  -0.075  16.479 -0.2486  0.5252  0.2765
   12DOPE  H12B 1426   2.039  -0.116  16.644 -1.2728  0.3771  0.2829
   12DOPE   C11 1427   2.134   0.055  16.534 -0.3636  0.2670 -0.4960
   12DOPE  H11A 1428   2.106   0.120  16.449  2.4015 -0.0980 -1.7958
   12DOPE  H11B 1429   2.208  -0.020  16.500 -0.1665  0.0515  0.3801
   12DOPE     P 1430   2.304   0.197  16.673 -0.2001  0.1353  0.1099
   12DOPE   O13 1431   2.390   0.102  16.742 -0.7974 -0.1583  0.0607
   12DOPE   O14 1432   2.287   0.330  16.731  0.1316 -0.2498  0.8483
   12DOPE   O11 1433   2.375   0.219  16.534  0.2120  0.2767  0.4838
   12DOPE   O12 1434   2.169   0.132  16.648 -0.4051  0.0700  0.2090
   12DOPE    C1 1435   2.318   0.326  16.453 -0.3251 -0.1483  0.2810
   12DOPE    HA 1436   2.315   0.424  16.505  0.1291  0.6470 -1.1444
   12DOPE    HB 1437   2.213   0.317  16.418 -0.0798  1.8289 -1.1383
   12DOPE    C2 1438   2.406   0.351  16.325  0.2190 -0.6402  0.1903
   12DOPE    HS 1439   2.373   0.440  16.266 -0.9095 -1.5645 -0.6331
   12DOPE   O21 1440   2.397   0.234  16.241 -0.0518 -0.2212 -0.3088
   12DOPE   C21 1441   2.284   0.206  16.178 -0.9681  0.1105 -0.2783
   12DOPE   O22 1442   2.181   0.273  16.185 -0.0685  0.5152 -0.6532
   12DOPE   C22 1443   2.306   0.096  16.067  0.4041 -0.4725 -0.0153
   12DOPE   H2R 1444   2.250   0.010  16.108  0.0036 -0.5757 -0.7578
   12DOPE   H2S 1445   2.413   0.067  16.067  0.1668 -1.3832 -0.1024
   12DOPE    C3 1446   2.551   0.365  16.354 -0.3730  0.0822  0.0479
   12DOPE    HX 1447   2.597   0.267  16.379  1.4547  0.8041 -0.2621
   12DOPE    HY 1448   2.558   0.440  16.436 -1.3716 -1.0770  1.2300
   12DOPE   O31 1449   2.619   0.426  16.238  0.5739 -0.3115  0.0610
   12DOPE   C31 1450   2.678   0.338  16.156  0.3434  0.4024 -0.1664
   12DOPE   O32 1451   2.686   0.216  16.168 -0.6271  0.2554 -0.6225
   12DOPE   C32 1452   2.746   0.421  16.044 -0.2815  0.2532  0.3767
   12DOPE   H2X 1453   2.664   0.475  15.991 -0.2903  0.2252  0.3618
   12DOPE   H2Y 1454   2.825   0.487  16.087 -1.4626  2.0321 -0.0462
   12DOPE   C23 1455   2.259   0.137  15.928  0.5301 -0.0632 -0.5962
   12DOPE   H3R 1456   2.153   0.171  15.933  1.1082  1.7179  1.7992
   12DOPE   H3S 1457   2.269   0.068  15.842  0.4187 -1.1795  0.2705
   12DOPE   C24 1458   2.332   0.255  15.876  0.2510  1.6747 -0.4201
   12DOPE   H4R 1459   2.423   0.207  15.834 -0.7809  0.3640 -1.2382
   12DOPE   H4S 1460   2.367   0.322  15.957 -0.4318 -0.0351  1.3800
   12DOPE   C25 1461   2.258   0.328  15.765  0.3653 -0.1580 -0.2395
   12DOPE   H5R 1462   2.216   0.263  15.685 -1.4613  1.5019 -0.6904
   12DOPE   H5S 1463   2.323   0.404  15.718  0.4321  1.8780  2.8602
   12DOPE   C26 1464   2.151   0.419  15.829  0.2583  0.3136  0.4178
   12DOPE   H6R 1465   2.210   0.498  15.880  0.7366 -0.4524  1.0690
   12DOPE   H6S 1466   2.096   0.363  15.908 -0.0544  0.1424  0.0805
   12DOPE   C27 1467   2.047   0.471  15.728 -0.1602 -0.4607 -0.1771
   12DOPE   H7R 1468   2.104   0.522  15.647  1.1907 -1.0223  0.3815
   12DOPE   H7S 1469   1.980   0.542  15.781 -0.1430 -0.5662 -0.0135
   12DOPE   C28 1470   1.960   0.367  15.654  0.3047  0.9685 -0.2488
   12DOPE   H8R 1471   1.883   0.312  15.712 -1.7451  1.2278 -2.5646
   12DOPE   H8S 1472   2.032   0.293  15.612 -0.3762  1.1569 -1.7992
   12DOPE   C29 1473   1.892   0.442  15.537 -0.2758  0.2767 -0.1185
   12DOPE   H9R 1474   1.838   0.536  15.558  0.1298  0.1147  1.8806
   12DOPE  C210 1475   1.915   0.432  15.401 -0.0127  0.4679  0.5602
   12DOPE  H10R 1476   1.859   0.494  15.329  1.1299  0.2689 -0.5284
   12DOPE  C211 1477   1.998   0.325  15.331  0.4208 -0.1806  0.0882
   12DOPE  H11R 1478   1.938   0.263  15.261 -2.8675  0.8586  1.7994
   12DOPE  H11S 1479   2.035   0.245  15.400 -0.0534 -2.3843 -2.0716
   12DOPE  C212 1480   2.134   0.380  15.270 -0.9529 -0.4321 -0.4370
   12DOPE  H12R 1481   2.196   0.298  15.228  0.3981  0.7137 -0.7282
   12DOPE  H12S 1482   2.191   0.425  15.354 -2.9258 -2.6736  2.3390
   12DOPE  C213 1483   2.121   0.488  15.160  0.2949  0.1300 -0.0309
   12DOPE  H13R 1484   2.223   0.515  15.125  0.0491 -0.3353 -1.1347
   12DOPE  H13S 1485   2.081   0.579  15.210  1.6816  0.4996  0.4551
   12DOPE  C214 1486   2.051   0.442  15.033 -0.1156  1.2887  0.4170
   12DOPE  H14R 1487   1.949   0.404  15.057  1.1101 -1.9422  1.0407
   12DOPE  H14S 1488   2.099   0.352  14.989  2.0690  1.2394  2.6769
   12DOPE  C215 1489   2.035   0.551  14.933  0.3690 -0.3761  0.0775
   12DOPE  H15R 1490   2.009   0.635  15.002  0.0826  0.3652 -0.9173
   12DOPE  H15S 1491   1.941   0.530  14.878 -0.4040 -0.0749  1.2398
   12DOPE  C216 1492   2.162   0.575  14.841  0.0526 -0.2250 -0.0280
   12DOPE  H16R 1493   2.184   0.490  14.774 -0.2299 -1.6765  1.6333
   12DOPE  H16S 1494   2.249   0.582  14.910 -1.1978 -2.6424  1.9747
   12DOPE  C217 1495   2.147   0.703  14.756 -0.3516 -0.4294 -0.7799
   12DOPE  H17R 1496   2.241   0.715  14.697 -1.5917 -0.7261 -2.9097
   12DOPE  H17S 1497   2.139   0.793  14.821  0.4689  0.8920 -2.4402
   12DOPE  C218 1498   2.041   0.692  14.650 -0.3245 -0.4907  0.2443
   12DOPE  H18R 1499   1.942   0.691  14.701  1.1846  1.3187  3.4733
   12DOPE  H18S 1500   2.052   0.601  14.587 -0.3360 -0.4131  0.1298
   12DOPE  H18T 1501   2.042   0.769  14.571  1.5198 -0.9530 -0.2305
   12DOPE   C33 1502   2.807   0.313  15.949  0.3484  0.1434  0.5077
   12DOPE   H3X 1503   2.732   0.234  15.926  0.4039 -0.1527  1.3206
   12DOPE   H3Y 1504   2.896   0.266  15.995 -0.1546 -0.5107  0.8241
   12DOPE   C34 1505   2.846   0.373  15.807 -0.0580 -0.4635 -0.3778
   12DOPE   H4X 1506   2.906   0.465  15.823 -0.5911 -0.5354  2.6857
   12DOPE   H4Y 1507   2.903   0.295  15.752  0.3863  1.4443 -2.7985
   12DOPE   C35 1508   2.716   0.391  15.719 -0.4233  0.8921  0.1993
   12DOPE   H5X 1509   2.642   0.460  15.765 -1.1409 -1.2685  2.4761
   12DOPE   H5Y 1510   2.672   0.289  15.716  3.3225 -0.8898 -2.3926
   12DOPE   C36 1511   2.745   0.436  15.577 -0.1029 -0.4509  0.5244
   12DOPE   H6X 1512   2.835   0.382  15.540  1.2455  1.1053  1.3914
   12DOPE   H6Y 1513   2.765   0.545  15.583 -1.9473 -0.0173 -0.3067
   12DOPE   C37 1514   2.630   0.407  15.479  0.7394  0.0373  0.3185
   12DOPE   H7X 1515   2.630   0.309  15.427 -0.2420  0.2590 -0.1322
   12DOPE   H7Y 1516   2.543   0.407  15.549 -0.6516  2.4992 -1.2481
   12DOPE   C38 1517   2.616   0.509  15.356  0.4301  1.0458  0.0204
   12DOPE   H8X 1518   2.709   0.503  15.295  1.3362 -0.0904  1.4538
   12DOPE   H8Y 1519   2.611   0.609  15.406  0.7267  1.3494 -0.5453
   12DOPE   C39 1520   2.495   0.480  15.268  0.0764 -0.1261 -0.6615
   12DOPE   H9X 1521   2.401   0.518  15.309  0.0350 -0.2718 -0.6208
   12DOPE  C310 1522   2.484   0.422  15.149 -0.1811  0.4162 -0.3670
   12DOPE  H10X 1523   2.383   0.419  15.104 -1.3597  1.3535  2.0430
   12DOPE  C311 1524   2.591   0.352  15.067  0.3587 -0.3224  0.0934
   12DOPE  H11X 1525   2.658   0.284  15.124  0.2275 -1.8339 -1.5061
   12DOPE  H11Y 1526   2.540   0.285  14.995  0.5926  1.0952 -1.4654
   12DOPE  C312 1527   2.684   0.459  14.990  0.2486  0.3502 -1.0595
   12DOPE  H12X 1528   2.758   0.406  14.927  1.8926  2.5488 -1.0735
   12DOPE  H12Y 1529   2.750   0.501  15.068  0.0929  1.0216 -1.2878
   12DOPE  C313 1530   2.603   0.546  14.894 -0.2678 -0.2285 -0.0750
   12DOPE  H13X 1531   2.531   0.614  14.944  0.6215  0.9829 -0.4090
   12DOPE  H13Y 1532   2.671   0.620  14.848 -0.6238  1.2177  1.6115
   12DOPE  C314 1533   2.545   0.467  14.781  0.8866 -0.3229  0.5576
   12DOPE  H14X 1534   2.460   0.408  14.821  0.8646  0.7306  2.1196
   12DOPE  H14Y 1535   2.612   0.390  14.737 -0.9464 -0.3225 -2.5401
   12DOPE  C315 1536   2.515   0.554  14.658  0.6094  0.0425  0.2192
   12DOPE  H15X 1537   2.614   0.582  14.615 -0.3383  1.1106 -1.3424
   12DOPE  H15Y 1538   2.463   0.642  14.700  0.4575 -0.3718  0.9143
   12DOPE  C316 1539   2.418   0.496  14.553 -0.1640  0.3613  0.3171
   12DOPE  H16X 1540   2.341   0.441  14.611  0.2141  1.1399  1.5793
   12DOPE  H16Y 1541   2.468   0.408  14.506 -1.6046 -0.5525  0.4267
   12DOPE  C317 1542   2.368   0.590  14.438  0.6268  0.1902  0.2842
   12DOPE  H17X 1543   2.294   0.658  14.486  2.8178  1.7749  1.5835
   12DOPE  H17Y 1544   2.447   0.656  14.395  0.0357  0.2343 -0.7546
   12DOPE  C318 1545   2.305   0.524  14.315 -0.1020  0.3336 -0.0629
   12DOPE  H18X 1546   2.257   0.593  14.242  0.0118  0.5304  0.0475
   12DOPE  H18Y 1547   2.390   0.473  14.264 -1.2300 -1.4066 -0.2773
   12DOPE  H18Z 1548   2.228   0.451  14.348 -0.2982  1.0016  0.9995
   13DOPE     N 1549   2.104   3.527  16.825  0.3029  0.2507 -0.5620
   13DOPE   HN1 1550   2.027   3.476  16.871  0.3539  1.0379  0.4347
   13DOPE   HN2 1551   2.179   3.455  16.813  0.4939  0.0036  1.6629
   13DOPE   HN3 1552   2.140   3.603  16.887 -0.5019  0.8388 -0.8028
   13DOPE   C12 1553   2.042   3.570  16.696  0.1173  0.0427 -0.4789
   13DOPE  H12A 1554   2.121   3.631  16.646  0.2932  1.3245  1.2860
   13DOPE  H12B 1555   1.953   3.635  16.708  1.1718  2.4584 -4.0914
   13DOPE   C11 1556   2.001   3.446  16.610  0.7501 -0.0951 -0.1313
   13DOPE  H11A 1557   1.951   3.484  16.518 -0.5303  0.3365  0.7167
   13DOPE  H11B 1558   1.934   3.380  16.669  2.0121  1.2847  3.1262
   13DOPE     P 1559   2.182   3.322  16.448  0.2206 -0.1654 -0.2951
   13DOPE   O13 1560   2.189   3.178  16.444  0.2296 -0.2834  0.0743
   13DOPE   O14 1561   2.307   3.400  16.434 -0.2027 -0.3604  0.2726
   13DOPE   O11 1562   2.085   3.375  16.337  0.2286 -0.2383  0.0259
   13DOPE   O12 1563   2.117   3.361  16.586 -0.3859  0.2045 -1.0652
   13DOPE    C1 1564   1.968   3.310  16.296 -0.0535 -0.0391 -0.4672
   13DOPE    HA 1565   1.885   3.382  16.280 -0.5534 -0.9581 -2.3898
   13DOPE    HB 1566   1.931   3.251  16.382  0.5118 -0.2988 -0.3939
   13DOPE    C2 1567   1.985   3.213  16.175  0.0471  0.0282 -0.2686
   13DOPE    HS 1568   2.079   3.157  16.191 -1.0080 -2.5191 -2.0827
   13DOPE   O21 1569   1.973   3.293  16.062 -0.0052  0.5720 -0.7925
   13DOPE   C21 1570   2.087   3.353  16.028  0.5087 -0.2679  0.0790
   13DOPE   O22 1571   2.198   3.321  16.068 -0.2236 -1.3293  0.7847
   13DOPE   C22 1572   2.059   3.454  15.918  0.3090  0.5757 -0.2422
   13DOPE   H2R 1573   2.154   3.468  15.864  0.5583 -0.6524 -0.1562
   13DOPE   H2S 1574   2.032   3.543  15.978  1.3192  0.5030  0.3303
   13DOPE    C3 1575   1.867   3.117  16.178  0.5381 -0.3232  0.2786
   13DOPE    HX 1576   1.776   3.180  16.167  0.8690  0.4921  1.8464
   13DOPE    HY 1577   1.861   3.063  16.275 -2.3280  0.4253  0.6236
   13DOPE   O31 1578   1.874   3.033  16.063 -0.1478  0.3553 -0.4855
   13DOPE   C31 1579   1.784   2.927  16.071  0.6771 -0.7784 -0.4826
   13DOPE   O32 1580   1.686   2.933  16.141 -0.3945  0.7203 -0.0182
   13DOPE   C32 1581   1.795   2.856  15.940  0.6553 -0.0586  0.2239
   13DOPE   H2X 1582   1.837   2.927  15.864  2.3102 -0.4077  0.7707
   13DOPE   H2Y 1583   1.867   2.772  15.949  0.9014  0.1594  0.3220
   13DOPE   C23 1584   1.949   3.422  15.823  0.4950 -0.1311 -0.1050
   13DOPE   H3R 1585   1.943   3.503  15.747 -0.8188  0.5523  0.6800
   13DOPE   H3S 1586   1.855   3.423  15.884  1.1103  0.6939  0.8727
   13DOPE   C24 1587   1.957   3.282  15.762 -0.0371 -0.5772  0.1079
   13DOPE   H4R 1588   1.927   3.211  15.842 -0.3680 -1.3221 -0.6600
   13DOPE   H4S 1589   2.064   3.268  15.732  0.5001  3.0556 -0.0688
   13DOPE   C25 1590   1.870   3.260  15.641 -0.2524 -0.0898 -0.1456
   13DOPE   H5R 1591   1.898   3.160  15.602  0.0151 -0.2798  0.5187
   13DOPE   H5S 1592   1.888   3.341  15.566  0.6931 -0.0984  0.0598
   13DOPE   C26 1593   1.718   3.259  15.662 -0.2033 -0.9186  0.8877
   13DOPE   H6R 1594   1.697   3.367  15.678  1.4938 -0.3422 -0.4839
   13DOPE   H6S 1595   1.691   3.191  15.747  0.3054 -0.6004  1.3127
   13DOPE   C27 1596   1.650   3.206  15.536  0.4671 -0.6990 -0.8791
   13DOPE   H7R 1597   1.675   3.099  15.552  0.1331 -0.6640 -0.0525
   13DOPE   H7S 1598   1.706   3.238  15.446 -0.6284  0.5540 -1.1474
   13DOPE   C28 1599   1.495   3.205  15.527  0.3633 -0.2542  0.0794
   13DOPE   H8R 1600   1.449   3.306  15.528 -1.2446 -0.9711  0.6991
   13DOPE   H8S 1601   1.456   3.139  15.607  1.7209 -0.9111  0.2332
   13DOPE   C29 1602   1.468   3.164  15.388  0.5739  0.0898  0.0255
   13DOPE   H9R 1603   1.547   3.197  15.319  1.5469  0.0145  1.0849
   13DOPE  C210 1604   1.367   3.091  15.346  1.3611 -0.0847  0.1964
   13DOPE  H10R 1605   1.356   3.068  15.238  2.2786 -1.7822  0.4290
   13DOPE  C211 1606   1.254   3.034  15.429 -0.5857  0.0826  0.7495
   13DOPE  H11R 1607   1.258   3.064  15.536 -0.6418 -1.0318  1.0743
   13DOPE  H11S 1608   1.268   2.924  15.422  0.7716  0.1424  1.9761
   13DOPE  C212 1609   1.122   3.082  15.365  0.1818 -0.3698  0.1180
   13DOPE  H12R 1610   1.132   3.043  15.262  2.0127  4.4412 -1.8569
   13DOPE  H12S 1611   1.113   3.193  15.366 -1.8691 -0.4927 -0.2928
   13DOPE  C213 1612   1.001   3.028  15.444 -0.2259  0.8168  0.1201
   13DOPE  H13R 1613   0.921   3.105  15.444 -2.0299 -0.9398 -1.1181
   13DOPE  H13S 1614   1.033   2.996  15.546  0.6698  0.6954 -0.1963
   13DOPE  C214 1615   0.948   2.897  15.378 -0.0190  0.7289  0.1620
   13DOPE  H14R 1616   1.033   2.831  15.353  0.7700  1.8109 -0.0796
   13DOPE  H14S 1617   0.890   2.920  15.286 -0.5789  0.0524  0.3344
   13DOPE  C215 1618   0.842   2.831  15.470  0.5433  0.1552  0.4973
   13DOPE  H15R 1619   0.753   2.897  15.481  1.3734  1.2583  0.8074
   13DOPE  H15S 1620   0.892   2.833  15.569  2.2940  3.1759 -0.2934
   13DOPE  C216 1621   0.801   2.695  15.406 -0.2517  0.4890 -0.1708
   13DOPE  H16R 1622   0.895   2.640  15.383  0.2185  1.4909 -0.7537
   13DOPE  H16S 1623   0.750   2.718  15.310  1.3711  0.1119 -1.1813
   13DOPE  C217 1624   0.710   2.610  15.495  0.9613 -0.1806 -0.4299
   13DOPE  H17R 1625   0.684   2.520  15.435  2.3072 -0.8775 -0.0196
   13DOPE  H17S 1626   0.617   2.665  15.519  2.1766  0.4266  3.6448
   13DOPE  C218 1627   0.772   2.564  15.624  0.0627 -0.3739  0.1732
   13DOPE  H18R 1628   0.880   2.542  15.614  0.0826 -0.3723  0.3790
   13DOPE  H18S 1629   0.713   2.478  15.664 -2.8335  1.8376  1.0109
   13DOPE  H18T 1630   0.759   2.643  15.700 -1.5861  0.2568 -0.7130
   13DOPE   C33 1631   1.658   2.795  15.891 -0.4305 -0.1417  0.1597
   13DOPE   H3X 1632   1.575   2.850  15.940  1.1387 -0.0974  2.9883
   13DOPE   H3Y 1633   1.649   2.692  15.932 -0.9663  0.0139  0.4403
   13DOPE   C34 1634   1.641   2.798  15.740 -0.3208 -0.3051 -0.7101
   13DOPE   H4X 1635   1.535   2.778  15.713  0.2529  0.0534 -3.6320
   13DOPE   H4Y 1636   1.665   2.898  15.697 -1.2851  0.6166  0.8273
   13DOPE   C35 1637   1.728   2.699  15.657  0.3591 -0.3185  0.1038
   13DOPE   H5X 1638   1.697   2.596  15.684  1.6638 -0.6922  0.2557
   13DOPE   H5Y 1639   1.833   2.718  15.687  0.0401 -1.1818  1.9009
   13DOPE   C36 1640   1.718   2.729  15.511 -0.0312  0.0802  0.3876
   13DOPE   H6X 1641   1.773   2.657  15.446 -0.9605 -1.0373  0.8134
   13DOPE   H6Y 1642   1.754   2.831  15.485  0.3181 -0.5362 -1.7421
   13DOPE   C37 1643   1.576   2.719  15.456 -0.4553  0.7679  0.2370
   13DOPE   H7X 1644   1.533   2.618  15.470  0.9396  0.1670  0.2851
   13DOPE   H7Y 1645   1.516   2.793  15.513 -0.4996  0.6487  0.3448
   13DOPE   C38 1646   1.565   2.761  15.308  0.0076 -0.1679 -0.1354
   13DOPE   H8X 1647   1.581   2.871  15.312 -0.0973 -0.1846  1.3225
   13DOPE   H8Y 1648   1.458   2.751  15.280 -0.0106 -0.7037  0.1045
   13DOPE   C39 1649   1.652   2.689  15.204  0.9041 -0.0840  0.3154
   13DOPE   H9X 1650   1.627   2.582  15.189 -0.4123  0.3940 -1.2251
   13DOPE  C310 1651   1.742   2.738  15.121 -0.4392  0.0420 -0.5773
   13DOPE  H10X 1652   1.795   2.671  15.052 -2.0783 -1.4024 -0.5117
   13DOPE  C311 1653   1.785   2.881  15.121  0.1537 -0.2219 -0.5295
   13DOPE  H11X 1654   1.777   2.919  15.225 -1.1069  0.3920 -0.8194
   13DOPE  H11Y 1655   1.889   2.900  15.088  0.9509 -1.7273  1.0188
   13DOPE  C312 1656   1.682   2.975  15.054 -0.3288 -0.4099 -0.2357
   13DOPE  H12X 1657   1.581   2.957  15.098 -1.0543 -1.0985 -2.0924
   13DOPE  H12Y 1658   1.679   2.939  14.949 -2.6948  0.3884 -0.5054
   13DOPE  C313 1659   1.731   3.122  15.062  0.1277 -0.4166  0.0001
   13DOPE  H13X 1660   1.771   3.141  15.163  1.0320 -1.6205 -0.1008
   13DOPE  H13Y 1661   1.821   3.124  14.996  1.2413 -2.6287  1.3110
   13DOPE  C314 1662   1.633   3.230  15.006 -0.0080  0.3016 -0.2483
   13DOPE  H14X 1663   1.673   3.334  15.015 -1.5500  1.1081 -2.0290
   13DOPE  H14Y 1664   1.546   3.233  15.075  1.4244  2.0977  1.5944
   13DOPE  C315 1665   1.566   3.195  14.874 -0.3516 -0.2715 -0.0555
   13DOPE  H15X 1666   1.466   3.239  14.855 -0.1313  0.2575 -0.0101
   13DOPE  H15Y 1667   1.547   3.086  14.865 -1.5828 -0.0573 -0.1117
   13DOPE  C316 1668   1.654   3.223  14.747 -0.4972 -0.0925  0.1055
   13DOPE  H16X 1669   1.717   3.132  14.734 -0.6197  0.0990 -2.2755
   13DOPE  H16Y 1670   1.716   3.315  14.746  0.3501 -0.6544 -1.0270
   13DOPE  C317 1671   1.571   3.231  14.610  1.1565  0.6096 -0.0644
   13DOPE  H17X 1672   1.464   3.253  14.630  0.5381 -1.3659 -0.8925
   13DOPE  H17Y 1673   1.606   3.324  14.561 -2.1914  2.4753  0.7949
   13DOPE  C318 1674   1.587   3.116  14.524  0.1358  0.7044 -0.3583
   13DOPE  H18X 1675   1.693   3.086  14.509 -0.2059 -0.6200 -0.2802
   13DOPE  H18Y 1676   1.536   3.035  14.581  2.0736 -0.0686  0.3907
   13DOPE  H18Z 1677   1.543   3.130  14.423 -2.4702  1.2465  0.7911
   14DOPE     N 1678   6.002   5.901  16.464  0.6478  0.5070 -0.3936
   14DOPE   HN1 1679   6.098   5.933  16.484  0.5343  1.0240 -0.6625
   14DOPE   HN2 1680   5.934   5.980  16.468  1.8793  1.5449  1.1597
   14DOPE   HN3 1681   5.980   5.824  16.531  0.6803 -0.0414 -1.0035
   14DOPE   C12 1682   6.008   5.836  16.329  0.5876  0.3294  0.2322
   14DOPE  H12A 1683   5.908   5.789  16.318  0.7959  0.0662 -0.6012
   14DOPE  H12B 1684   6.092   5.763  16.337 -0.5093 -0.9029  0.7822
   14DOPE   C11 1685   6.033   5.949  16.223  0.1510  0.3894  0.0379
   14DOPE  H11A 1686   5.955   6.028  16.223 -0.1268  0.1373  1.6314
   14DOPE  H11B 1687   6.024   5.900  16.124  1.7171 -0.5016  0.3009
   14DOPE     P 1688   6.198   6.142  16.274  0.2262 -0.0078  0.1524
   14DOPE   O13 1689   6.341   6.180  16.271 -1.0269  0.2933 -0.7003
   14DOPE   O14 1690   6.125   6.171  16.399  0.1276  0.0802 -0.2907
   14DOPE   O11 1691   6.123   6.230  16.166 -0.3829 -0.0580  0.1264
   14DOPE   O12 1692   6.172   5.990  16.227 -0.0390 -0.2911 -0.9991
   14DOPE    C1 1693   6.160   6.200  16.030  0.9397  0.2451  0.5791
   14DOPE    HA 1694   6.123   6.098  16.010 -0.3065  0.9787 -1.0643
   14DOPE    HB 1695   6.270   6.203  16.016  1.0488  2.4552  1.3926
   14DOPE    C2 1696   6.085   6.291  15.922 -0.0858  0.1592 -0.5606
   14DOPE    HS 1697   6.087   6.397  15.955  0.8471 -0.5558  1.8930
   14DOPE   O21 1698   5.944   6.255  15.892 -0.2595 -0.3359  0.2825
   14DOPE   C21 1699   5.857   6.240  15.978  0.1133 -0.4867 -0.2534
   14DOPE   O22 1700   5.867   6.287  16.093  0.3192  0.5596 -1.1504
   14DOPE   C22 1701   5.738   6.164  15.929 -0.0746  0.4435  0.0128
   14DOPE   H2R 1702   5.662   6.238  15.896 -0.1574  0.4572  0.2311
   14DOPE   H2S 1703   5.695   6.105  16.013 -0.0954 -1.9966 -1.6307
   14DOPE    C3 1704   6.148   6.277  15.785 -0.4061  0.0404 -0.7571
   14DOPE    HX 1705   6.126   6.171  15.757 -0.5096  0.0588 -0.7443
   14DOPE    HY 1706   6.258   6.293  15.796 -0.5310  0.1199  0.4953
   14DOPE   O31 1707   6.099   6.366  15.682 -0.1586  0.1678  0.0554
   14DOPE   C31 1708   6.140   6.341  15.558 -0.4467  0.5949  0.1202
   14DOPE   O32 1709   6.237   6.270  15.528  0.0050 -0.2392 -0.3124
   14DOPE   C32 1710   6.058   6.431  15.468 -0.5086  0.5665  0.2791
   14DOPE   H2X 1711   5.952   6.441  15.502 -0.6477 -1.6407  0.5902
   14DOPE   H2Y 1712   6.106   6.531  15.472 -0.6651  0.6979 -0.6952
   14DOPE   C23 1713   5.787   6.061  15.817 -0.5156  0.4195 -0.6804
   14DOPE   H3R 1714   5.862   6.106  15.749  1.2870 -0.9316  0.3249
   14DOPE   H3S 1715   5.698   6.043  15.753 -0.3555 -0.3971 -0.6850
   14DOPE   C24 1716   5.846   5.936  15.878 -0.2804 -0.2049 -0.3651
   14DOPE   H4R 1717   5.769   5.897  15.948  0.1424  1.8144  1.3453
   14DOPE   H4S 1718   5.933   5.949  15.946  0.6070  2.2973 -1.8174
   14DOPE   C25 1719   5.877   5.816  15.789  0.6311 -0.6083 -0.1982
   14DOPE   H5R 1720   5.949   5.863  15.718  0.7860  0.7398  0.8048
   14DOPE   H5S 1721   5.789   5.802  15.724  0.2756 -0.0234  0.1411
   14DOPE   C26 1722   5.924   5.692  15.855 -0.0967 -0.0105 -0.9489
   14DOPE   H6R 1723   6.015   5.715  15.915  0.5252 -1.0495 -1.4703
   14DOPE   H6S 1724   5.963   5.625  15.776  0.5158  1.2886 -1.7776
   14DOPE   C27 1725   5.815   5.618  15.936  0.0225 -0.3137 -0.9441
   14DOPE   H7R 1726   5.758   5.697  15.990  1.7975  0.8508 -0.7168
   14DOPE   H7S 1727   5.857   5.550  16.013  1.1811 -0.3101 -1.5593
   14DOPE   C28 1728   5.703   5.552  15.850 -0.5875  0.1759  0.1602
   14DOPE   H8R 1729   5.644   5.614  15.779 -0.3097 -0.7176 -0.8808
   14DOPE   H8S 1730   5.623   5.503  15.910  0.0638 -1.1621 -0.0342
   14DOPE   C29 1731   5.771   5.435  15.776  0.0987 -0.2835  0.0602
   14DOPE   H9R 1732   5.804   5.351  15.838  0.6570 -0.1247 -0.0191
   14DOPE  C210 1733   5.789   5.422  15.643 -0.0763 -0.5853 -0.3237
   14DOPE  H10R 1734   5.839   5.329  15.612 -0.4311 -0.8972  0.0329
   14DOPE  C211 1735   5.763   5.528  15.545  0.4951 -0.2027 -0.2775
   14DOPE  H11R 1736   5.837   5.528  15.462 -0.6780  0.9669 -1.3653
   14DOPE  H11S 1737   5.766   5.631  15.586  1.0697 -0.8822  1.5234
   14DOPE  C212 1738   5.620   5.517  15.488 -0.1604  0.3147  0.5174
   14DOPE  H12R 1739   5.541   5.520  15.566 -0.6638 -2.8631  0.2569
   14DOPE  H12S 1740   5.593   5.419  15.444 -5.2100  1.7963 -0.3006
   14DOPE  C213 1741   5.577   5.630  15.380 -0.1712 -0.2072 -0.0853
   14DOPE  H13R 1742   5.593   5.728  15.428 -0.7030  0.2894 -0.9025
   14DOPE  H13S 1743   5.469   5.608  15.366 -0.3643 -0.6296  1.7791
   14DOPE  C214 1744   5.660   5.625  15.249 -0.1420 -0.0329  0.1333
   14DOPE  H14R 1745   5.766   5.613  15.280  0.0656 -1.3937 -0.9850
   14DOPE  H14S 1746   5.651   5.716  15.187 -2.3366  0.5840  1.2484
   14DOPE  C215 1747   5.625   5.500  15.166 -0.1572 -0.2448  0.4756
   14DOPE  H15R 1748   5.608   5.400  15.213 -2.1461 -1.2460 -2.1140
   14DOPE  H15S 1749   5.705   5.494  15.090 -0.8987  0.3808 -0.3818
   14DOPE  C216 1750   5.501   5.524  15.085  0.6406  0.3638  0.4016
   14DOPE  H16R 1751   5.481   5.619  15.031  0.4059 -0.2399 -0.6025
   14DOPE  H16S 1752   5.416   5.536  15.157  0.9338 -0.6672  0.9349
   14DOPE  C217 1753   5.477   5.412  14.983 -0.2273 -0.4719  0.0786
   14DOPE  H17R 1754   5.479   5.315  15.036 -1.7308 -2.3188 -2.9862
   14DOPE  H17S 1755   5.562   5.405  14.911  0.6535  0.3075  1.0122
   14DOPE  C218 1756   5.342   5.425  14.910 -0.1276  0.0272  0.4448
   14DOPE  H18R 1757   5.328   5.519  14.852 -1.5868 -1.8397 -2.4159
   14DOPE  H18S 1758   5.261   5.425  14.987  0.0216  1.5452  0.6279
   14DOPE  H18T 1759   5.317   5.338  14.846 -0.5452  0.5398 -0.1046
   14DOPE   C33 1760   6.072   6.393  15.324 -0.4800  0.1894  0.0477
   14DOPE   H3X 1761   6.180   6.397  15.299 -0.9309  0.9354 -1.9337
   14DOPE   H3Y 1762   6.021   6.460  15.252 -1.1346 -1.3454 -0.9722
   14DOPE   C34 1763   6.030   6.247  15.291 -0.1187 -0.7334 -0.5031
   14DOPE   H4X 1764   6.026   6.229  15.182 -0.0453 -0.9410 -0.4731
   14DOPE   H4Y 1765   6.109   6.181  15.334 -0.9471 -1.9021 -0.7322
   14DOPE   C35 1766   5.896   6.210  15.353 -0.2683 -0.6012 -0.4912
   14DOPE   H5X 1767   5.910   6.202  15.462 -0.6826  2.4773 -0.1188
   14DOPE   H5Y 1768   5.874   6.106  15.319  1.2349 -0.4526 -2.0613
   14DOPE   C36 1769   5.778   6.308  15.306 -0.6773  0.1053 -0.3802
   14DOPE   H6X 1770   5.800   6.328  15.199 -0.4463 -0.5957 -0.4708
   14DOPE   H6Y 1771   5.786   6.403  15.362  0.0305 -0.5872  0.7291
   14DOPE   C37 1772   5.640   6.243  15.326 -0.8860 -0.5799  0.0895
   14DOPE   H7X 1773   5.646   6.132  15.318  1.1756 -0.5833  1.2068
   14DOPE   H7Y 1774   5.599   6.256  15.428 -1.2877 -1.0592 -0.0032
   14DOPE   C38 1775   5.549   6.289  15.217 -0.3265 -0.2186 -0.4595
   14DOPE   H8X 1776   5.596   6.260  15.121  0.6352 -0.2148 -0.0061
   14DOPE   H8Y 1777   5.546   6.399  15.201 -1.2336 -0.2696 -0.7025
   14DOPE   C39 1778   5.412   6.240  15.229  0.3010 -0.0528 -0.3642
   14DOPE   H9X 1779   5.347   6.311  15.283  0.4119 -0.1870 -0.0516
   14DOPE  C310 1780   5.381   6.129  15.159 -0.0561 -0.0450 -0.1024
   14DOPE  H10X 1781   5.275   6.101  15.153 -0.2512  0.8503 -1.0628
   14DOPE  C311 1782   5.463   6.029  15.083  0.1253  0.1283  0.3488
   14DOPE  H11X 1783   5.564   6.067  15.056  0.5589  0.2914  2.0928
   14DOPE  H11Y 1784   5.474   5.935  15.142  1.7819  0.0340 -0.0581
   14DOPE  C312 1785   5.399   5.967  14.960  0.0142 -0.1290 -0.3534
   14DOPE  H12X 1786   5.304   5.921  14.996 -0.7697  2.0229  0.4349
   14DOPE  H12Y 1787   5.461   5.882  14.923 -0.0106 -1.4001  2.2933
   14DOPE  C313 1788   5.402   6.064  14.837 -0.2046 -0.3226 -0.6403
   14DOPE  H13X 1789   5.361   6.163  14.865  0.4918  0.0582 -0.9631
   14DOPE  H13Y 1790   5.509   6.077  14.811 -0.1429  1.2805  0.2715
   14DOPE  C314 1791   5.310   6.015  14.719 -0.0101 -0.0978 -0.1173
   14DOPE  H14X 1792   5.331   6.097  14.647  1.3139 -0.6650 -0.4088
   14DOPE  H14Y 1793   5.206   6.025  14.756  0.1247  1.5483 -0.1333
   14DOPE  C315 1794   5.347   5.885  14.656 -0.4240 -0.1188 -0.8053
   14DOPE  H15X 1795   5.325   5.801  14.725  0.8414  0.7011  0.6793
   14DOPE  H15Y 1796   5.457   5.880  14.638 -0.4303 -1.6731 -0.4892
   14DOPE  C316 1797   5.261   5.855  14.536 -0.1306 -0.3446 -0.4670
   14DOPE  H16X 1798   5.260   5.947  14.474 -1.9168  0.9410  1.3306
   14DOPE  H16Y 1799   5.153   5.851  14.562  0.6843  0.7686  3.8755
   14DOPE  C317 1800   5.292   5.716  14.469  0.6894  0.6053  0.5401
   14DOPE  H17X 1801   5.400   5.687  14.472  0.7702  0.9415  1.1104
   14DOPE  H17Y 1802   5.240   5.636  14.526 -0.8864  1.4915  0.4018
   14DOPE  C318 1803   5.226   5.697  14.331  0.5461  0.7032 -0.4074
   14DOPE  H18X 1804   5.238   5.589  14.308 -0.1305  1.0606 -2.6781
   14DOPE  H18Y 1805   5.120   5.729  14.341  0.6845  1.2864 -0.7414
   14DOPE  H18Z 1806   5.270   5.761  14.252  0.8226  1.7584  0.5724
   15DOPE     N 1807   7.342   3.200  16.632  0.8106 -0.2871 -0.2230
   15DOPE   HN1 1808   7.377   3.112  16.589 -1.6873 -0.9387 -1.0743
   15DOPE   HN2 1809   7.390   3.284  16.594 -1.2160  0.4088 -1.4308
   15DOPE   HN3 1810   7.354   3.195  16.735 -1.6876 -1.5890  0.0856
   15DOPE   C12 1811   7.191   3.201  16.623  0.1228  0.5258  0.4605
   15DOPE  H12A 1812   7.145   3.301  16.638  0.7659  1.0774 -1.0179
   15DOPE  H12B 1813   7.163   3.143  16.714  0.1430 -1.6771 -0.8591
   15DOPE   C11 1814   7.134   3.152  16.484  0.1092  0.2591 -0.8460
   15DOPE  H11A 1815   7.176   3.229  16.416 -0.9734  0.9181 -0.7854
   15DOPE  H11B 1816   7.023   3.161  16.487  0.0385  0.1169  3.0861
   15DOPE     P 1817   7.175   2.960  16.312 -0.0943  0.1191 -0.2305
   15DOPE   O13 1818   7.038   2.919  16.295  0.1516  0.2796  0.1390
   15DOPE   O14 1819   7.278   2.858  16.309  0.7387 -0.1659  0.1863
   15DOPE   O11 1820   7.219   3.078  16.216  0.3745  0.3866  0.1906
   15DOPE   O12 1821   7.182   3.025  16.457  0.3341 -0.1113 -0.0158
   15DOPE    C1 1822   7.340   3.148  16.214 -0.5055  0.1284 -0.6660
   15DOPE    HA 1823   7.388   3.138  16.314 -0.5158 -3.3385 -0.8884
   15DOPE    HB 1824   7.326   3.257  16.204  2.2811  0.6513  0.2078
   15DOPE    C2 1825   7.451   3.120  16.103 -0.0432 -0.3937 -0.8051
   15DOPE    HS 1826   7.535   3.191  16.116 -0.5479  0.0832 -0.0393
   15DOPE   O21 1827   7.391   3.115  15.975 -0.2767 -0.1116 -0.4356
   15DOPE   C21 1828   7.392   3.216  15.896  0.2583  0.3590 -0.7574
   15DOPE   O22 1829   7.453   3.318  15.920 -0.1993 -0.0777 -0.4179
   15DOPE   C22 1830   7.309   3.167  15.782 -0.0512  1.6545  0.1300
   15DOPE   H2R 1831   7.207   3.166  15.826 -0.6466  0.6771 -1.2213
   15DOPE   H2S 1832   7.327   3.059  15.763 -1.4800  1.2565  0.8518
   15DOPE    C3 1833   7.518   2.982  16.121  0.4087  0.3590  0.7196
   15DOPE    HX 1834   7.451   2.894  16.130  1.6889 -0.9152 -1.3482
   15DOPE    HY 1835   7.581   2.963  16.210  2.2407 -0.7873 -0.7753
   15DOPE   O31 1836   7.590   2.944  15.998 -0.1692  0.6109  0.1417
   15DOPE   C31 1837   7.699   3.016  15.968  0.3849 -0.3782  0.3389
   15DOPE   O32 1838   7.745   3.105  16.036  0.2396  0.2817  0.0272
   15DOPE   C32 1839   7.729   2.978  15.820 -0.0831  0.4054 -0.4294
   15DOPE   H2X 1840   7.732   2.867  15.823 -2.9682  0.2649 -0.1173
   15DOPE   H2Y 1841   7.660   3.027  15.748  1.4198  0.7433 -1.6973
   15DOPE   C23 1842   7.322   3.253  15.659 -0.4783  0.1244  0.0342
   15DOPE   H3R 1843   7.409   3.216  15.601  1.1288  0.5743  2.0467
   15DOPE   H3S 1844   7.341   3.361  15.677 -0.4200  0.0210  0.6231
   15DOPE   C24 1845   7.205   3.247  15.563  0.2255 -0.1032  0.0018
   15DOPE   H4R 1846   7.104   3.251  15.610  0.8381  1.2660  1.2673
   15DOPE   H4S 1847   7.225   3.147  15.517 -0.3199  0.9744 -2.7900
   15DOPE   C25 1848   7.217   3.357  15.448 -0.2734  0.1865  0.0027
   15DOPE   H5R 1849   7.320   3.360  15.408 -0.5715  0.6409 -0.7433
   15DOPE   H5S 1850   7.201   3.456  15.497 -0.1376  0.8010 -1.1711
   15DOPE   C26 1851   7.120   3.325  15.335 -0.1012  0.0094 -0.1566
   15DOPE   H6R 1852   7.074   3.423  15.311  0.6638  0.2993 -0.4742
   15DOPE   H6S 1853   7.040   3.254  15.365  0.9391 -0.6862  1.0501
   15DOPE   C27 1854   7.193   3.270  15.216 -0.0587  0.0727  0.1891
   15DOPE   H7R 1855   7.258   3.182  15.234  1.0720 -0.0154 -3.4627
   15DOPE   H7S 1856   7.280   3.330  15.183  1.2175 -2.0655 -0.5438
   15DOPE   C28 1857   7.096   3.239  15.102 -0.4206 -0.2475  0.5177
   15DOPE   H8R 1858   7.000   3.203  15.144 -1.2799  2.1043  0.7480
   15DOPE   H8S 1859   7.144   3.159  15.042  0.4134  0.5813  0.0373
   15DOPE   C29 1860   7.071   3.368  15.029  0.5983  0.7263 -0.3556
   15DOPE   H9R 1861   6.992   3.433  15.070  1.3250  0.9733  0.7041
   15DOPE  C210 1862   7.126   3.399  14.913  0.3757  0.0977 -0.2505
   15DOPE  H10R 1863   7.079   3.481  14.856  0.3165  1.2240  1.3758
   15DOPE  C211 1864   7.226   3.324  14.833 -0.1787 -0.1052  0.2566
   15DOPE  H11R 1865   7.203   3.216  14.820 -0.1412 -0.0997  0.1435
   15DOPE  H11S 1866   7.323   3.338  14.885  0.1868 -1.2301 -0.0846
   15DOPE  C212 1867   7.245   3.377  14.689  0.1319  0.0694 -0.0608
   15DOPE  H12R 1868   7.279   3.482  14.699  3.1927 -0.7769 -0.6568
   15DOPE  H12S 1869   7.152   3.354  14.633 -0.3325 -2.4026  1.5644
   15DOPE  C213 1870   7.361   3.315  14.609 -0.1978 -0.5821 -0.1400
   15DOPE  H13R 1871   7.352   3.210  14.574  0.0054 -1.0095  1.0507
   15DOPE  H13S 1872   7.450   3.334  14.672  0.4463 -0.1725 -1.1403
   15DOPE  C214 1873   7.394   3.406  14.481  0.3461  0.2253  0.4946
   15DOPE  H14R 1874   7.380   3.515  14.497  1.6585  0.0595  3.3694
   15DOPE  H14S 1875   7.331   3.368  14.398 -0.8896 -0.4847  1.7126
   15DOPE  C215 1876   7.537   3.379  14.422  0.1668 -0.0386  0.0409
   15DOPE  H15R 1877   7.548   3.268  14.429  1.0000  0.1563  3.4518
   15DOPE  H15S 1878   7.618   3.422  14.485  0.9503 -0.0955 -0.9038
   15DOPE  C216 1879   7.546   3.403  14.273  0.2306 -0.5294  0.1535
   15DOPE  H16R 1880   7.531   3.510  14.246  1.4172 -1.0366 -2.9415
   15DOPE  H16S 1881   7.461   3.349  14.228 -1.5358  1.8392  0.4522
   15DOPE  C217 1882   7.666   3.339  14.204  0.0058 -0.0040 -0.3693
   15DOPE  H17R 1883   7.695   3.247  14.259  1.2943  1.0913  0.8510
   15DOPE  H17S 1884   7.750   3.409  14.223  1.1392 -1.0804 -1.3224
   15DOPE  C218 1885   7.655   3.323  14.053 -0.0637 -0.7798 -0.4264
   15DOPE  H18R 1886   7.605   3.410  14.005 -0.5665 -2.3628 -2.9847
   15DOPE  H18S 1887   7.593   3.233  14.035  0.7929 -1.6248  0.7127
   15DOPE  H18T 1888   7.754   3.314  14.002 -0.6793  0.0727 -1.8431
   15DOPE   C33 1889   7.869   3.037  15.778  0.2295 -0.1163 -0.2041
   15DOPE   H3X 1890   7.946   3.035  15.858 -2.4864  2.6132  2.8185
   15DOPE   H3Y 1891   7.863   3.145  15.753  1.8463 -0.4106 -2.1143
   15DOPE   C34 1892   7.927   2.962  15.666 -0.0842  0.7000  0.4842
   15DOPE   H4X 1893   7.932   2.854  15.690  2.4831  0.2469 -1.5921
   15DOPE   H4Y 1894   7.870   2.955  15.571  1.5702 -0.5625 -0.4900
   15DOPE   C35 1895   8.072   3.010  15.623  0.1868 -0.2357 -0.8155
   15DOPE   H5X 1896   8.114   2.941  15.547  0.5823 -0.8150 -0.0817
   15DOPE   H5Y 1897   8.148   2.997  15.703 -2.6003 -0.1930  2.0285
   15DOPE   C36 1898   8.069   3.153  15.573  0.3502  0.4991  0.2681
   15DOPE   H6X 1899   8.031   3.224  15.650  0.6331  0.9723 -0.0220
   15DOPE   H6Y 1900   7.997   3.153  15.489 -2.0738 -1.1650  2.2021
   15DOPE   C37 1901   8.209   3.196  15.532 -0.5727  0.2083  0.5423
   15DOPE   H7X 1902   8.269   3.221  15.622 -0.0948  0.1535  0.2426
   15DOPE   H7Y 1903   8.249   3.106  15.482  0.6000  0.9440  0.1121
   15DOPE   C38 1904   8.201   3.323  15.438  0.2245 -0.3361 -0.1666
   15DOPE   H8X 1905   8.164   3.410  15.496  0.2334 -0.3754 -0.1019
   15DOPE   H8Y 1906   8.117   3.298  15.368  1.1593 -4.0548 -0.1705
   15DOPE   C39 1907   8.325   3.354  15.363 -0.2032 -0.4405 -0.6100
   15DOPE   H9X 1908   8.411   3.373  15.429  0.3482 -1.5143 -0.9881
   15DOPE  C310 1909   8.343   3.377  15.230 -0.1654 -0.4266 -0.3132
   15DOPE  H10X 1910   8.444   3.414  15.208 -0.1249 -0.3601 -0.0247
   15DOPE  C311 1911   8.243   3.373  15.115 -0.1136  0.0856 -0.0548
   15DOPE  H11X 1912   8.141   3.386  15.157 -0.8639  1.8950 -2.2530
   15DOPE  H11Y 1913   8.255   3.454  15.040 -0.8573  0.4341  0.1925
   15DOPE  C312 1914   8.242   3.229  15.052 -0.5818  0.0465 -0.1812
   15DOPE  H12X 1915   8.134   3.205  15.046 -1.1040  1.4206  2.2773
   15DOPE  H12Y 1916   8.284   3.149  15.117 -0.2405 -0.1887 -0.6832
   15DOPE  C313 1917   8.298   3.214  14.915  0.1599 -0.3312 -0.5320
   15DOPE  H13X 1918   8.236   3.279  14.850  1.9803  2.4322  0.2832
   15DOPE  H13Y 1919   8.406   3.239  14.905  0.0621  1.1841  1.4685
   15DOPE  C314 1920   8.286   3.072  14.854  0.0111  0.3431 -0.1014
   15DOPE  H14X 1921   8.296   3.087  14.744  1.0877  0.9988  0.0651
   15DOPE  H14Y 1922   8.187   3.032  14.883  1.2135 -2.9227 -0.0035
   15DOPE  C315 1923   8.392   2.964  14.903  0.1429  0.3786 -0.2905
   15DOPE  H15X 1924   8.396   2.979  15.013  0.9639 -0.4281 -0.1989
   15DOPE  H15Y 1925   8.490   2.991  14.858  0.7551 -1.0262  0.1480
   15DOPE  C316 1926   8.356   2.816  14.863 -0.5562  0.7317  0.3507
   15DOPE  H16X 1927   8.381   2.810  14.754  0.2976  0.5623  0.5478
   15DOPE  H16Y 1928   8.248   2.788  14.863 -1.1213  2.5393 -1.7767
   15DOPE  C317 1929   8.440   2.718  14.949 -0.3246 -0.2420 -0.0396
   15DOPE  H17X 1930   8.400   2.729  15.052 -0.8090  1.8796 -0.3903
   15DOPE  H17Y 1931   8.419   2.620  14.901 -0.1609  0.6074 -1.9234
   15DOPE  C318 1932   8.591   2.743  14.951  0.3920  0.6656  0.8944
   15DOPE  H18X 1933   8.619   2.851  14.955  2.1996  0.2215  1.4304
   15DOPE  H18Y 1934   8.635   2.700  15.043  1.8576 -0.5560 -0.3107
   15DOPE  H18Z 1935   8.634   2.693  14.862 -0.7487 -1.4282  1.4611
   16DOPE     N 1936   6.888   5.626  16.624  0.6574 -0.6158 -0.0507
   16DOPE   HN1 1937   6.922   5.716  16.663 -0.2292  0.8669 -2.4716
   16DOPE   HN2 1938   6.877   5.546  16.689 -1.1253 -1.2238 -1.0343
   16DOPE   HN3 1939   6.971   5.600  16.567  0.4613 -0.5492 -0.3699
   16DOPE   C12 1940   6.768   5.649  16.529  0.4276  0.0291  0.2763
   16DOPE  H12A 1941   6.786   5.746  16.477 -2.1248  0.7336  0.6060
   16DOPE  H12B 1942   6.676   5.666  16.588  0.1948  0.7890 -0.2882
   16DOPE   C11 1943   6.744   5.538  16.430  0.4616  0.5690 -0.8837
   16DOPE  H11A 1944   6.843   5.503  16.393  0.8075  1.4167 -0.7967
   16DOPE  H11B 1945   6.682   5.577  16.347 -0.1535 -1.5853 -1.4872
   16DOPE     P 1946   6.724   5.295  16.559 -0.4820 -0.3820  0.0711
   16DOPE   O13 1947   6.616   5.229  16.640 -0.2840 -0.2419  0.5216
   16DOPE   O14 1948   6.853   5.317  16.632  0.2529  0.3510 -0.3854
   16DOPE   O11 1949   6.746   5.203  16.437 -0.2984  0.4964 -0.2652
   16DOPE   O12 1950   6.678   5.430  16.498  0.8917  0.0318 -0.1091
   16DOPE    C1 1951   6.638   5.167  16.348  0.3491  0.1399  0.2200
   16DOPE    HA 1952   6.540   5.214  16.371 -0.4622 -0.8974 -0.9365
   16DOPE    HB 1953   6.616   5.061  16.374  0.0054  0.4597  1.2444
   16DOPE    C2 1954   6.682   5.183  16.197 -0.0730  0.3102  0.2793
   16DOPE    HS 1955   6.604   5.127  16.142  0.0007 -0.7015  1.1892
   16DOPE   O21 1956   6.816   5.144  16.167 -0.4749 -0.4622  0.1563
   16DOPE   C21 1957   6.834   5.017  16.161 -0.4330  0.4004  0.3087
   16DOPE   O22 1958   6.743   4.934  16.179  0.0851  0.0823  0.3448
   16DOPE   C22 1959   6.978   4.982  16.147  0.2830 -0.0406  0.3156
   16DOPE   H2R 1960   6.995   4.897  16.217 -4.5503 -1.0679  0.5432
   16DOPE   H2S 1961   7.030   5.078  16.162  0.3640 -0.1024  0.4259
   16DOPE    C3 1962   6.657   5.334  16.157  0.1982  0.5697 -0.1277
   16DOPE    HX 1963   6.750   5.383  16.191  0.0464  1.4877 -1.0088
   16DOPE    HY 1964   6.591   5.393  16.225  1.7563  0.6792  1.3568
   16DOPE   O31 1965   6.640   5.355  16.018  0.4361 -0.2369  0.5771
   16DOPE   C31 1966   6.673   5.482  15.975 -0.1890  0.4966 -0.7383
   16DOPE   O32 1967   6.722   5.567  16.045 -0.1395 -0.3999  0.3780
   16DOPE   C32 1968   6.663   5.486  15.822 -0.0534 -0.3381 -0.3590
   16DOPE   H2X 1969   6.749   5.436  15.772 -0.1392  0.0201 -0.8689
   16DOPE   H2Y 1970   6.584   5.412  15.797  0.1942  0.1324 -2.7907
   16DOPE   C23 1971   7.012   4.936  16.003 -0.2332 -0.8878  0.1097
   16DOPE   H3R 1972   6.950   4.853  15.963 -3.0266  1.7132 -1.3258
   16DOPE   H3S 1973   7.112   4.888  16.012 -0.5212 -1.2887  1.3045
   16DOPE   C24 1974   7.038   5.055  15.907  0.8295  0.2194  0.6657
   16DOPE   H4R 1975   7.106   5.127  15.959  0.0052 -0.1334  2.3002
   16DOPE   H4S 1976   6.943   5.102  15.875  0.4285 -1.0644 -0.0551
   16DOPE   C25 1977   7.116   5.007  15.788  0.0409  0.6654  0.2692
   16DOPE   H5R 1978   7.042   4.944  15.735 -0.5919  3.1941 -2.0701
   16DOPE   H5S 1979   7.206   4.946  15.811 -1.1305 -2.0386 -1.7728
   16DOPE   C26 1980   7.160   5.127  15.710 -0.3572 -0.9483 -0.0848
   16DOPE   H6R 1981   7.202   5.194  15.788 -0.6162 -0.4066 -0.4097
   16DOPE   H6S 1982   7.065   5.173  15.677  0.4061 -0.5204 -1.7987
   16DOPE   C27 1983   7.251   5.088  15.599  0.3580 -0.5254 -0.1536
   16DOPE   H7R 1984   7.193   5.017  15.537 -2.8579 -0.2599  2.3017
   16DOPE   H7S 1985   7.334   5.020  15.631  0.5930 -0.3337 -0.3500
   16DOPE   C28 1986   7.296   5.213  15.524  0.3394 -0.1107  0.4857
   16DOPE   H8R 1987   7.336   5.280  15.604  2.8177 -1.3105  0.3257
   16DOPE   H8S 1988   7.210   5.257  15.470  1.6090  0.8438 -0.8311
   16DOPE   C29 1989   7.410   5.186  15.423 -0.2311 -0.1103  0.0065
   16DOPE   H9R 1990   7.508   5.167  15.470 -1.2960  1.1144  2.9701
   16DOPE  C210 1991   7.398   5.189  15.289 -0.1402  0.4899 -0.3479
   16DOPE  H10R 1992   7.488   5.151  15.238  0.8593  2.8323 -0.4380
   16DOPE  C211 1993   7.274   5.203  15.206  0.5926 -0.4105 -0.5184
   16DOPE  H11R 1994   7.235   5.305  15.226  0.5740 -0.8998  2.3100
   16DOPE  H11S 1995   7.187   5.142  15.236  0.7026  0.6583  2.3036
   16DOPE  C212 1996   7.311   5.192  15.056 -0.1913 -0.2247  0.5740
   16DOPE  H12R 1997   7.393   5.264  15.040  0.4012 -0.5004  2.1449
   16DOPE  H12S 1998   7.229   5.226  14.989  1.2063  0.1830 -0.9952
   16DOPE  C213 1999   7.349   5.048  15.011 -0.7127  0.4979  0.0293
   16DOPE  H13R 2000   7.257   4.989  14.991  0.0211 -0.9150  0.6330
   16DOPE  H13S 2001   7.409   4.998  15.090 -1.6598 -0.8871 -0.0946
   16DOPE  C214 2002   7.427   5.051  14.880 -0.1510  0.0305 -0.3366
   16DOPE  H14R 2003   7.521   5.106  14.906  0.1200 -0.6918  0.2538
   16DOPE  H14S 2004   7.377   5.087  14.788  0.1047  0.0603 -0.4663
   16DOPE  C215 2005   7.482   4.909  14.841  0.7646 -0.1212  0.1256
   16DOPE  H15R 2006   7.524   4.856  14.929  0.3353  0.1061  0.4750
   16DOPE  H15S 2007   7.560   4.925  14.763 -1.0691  1.4320 -1.4962
   16DOPE  C216 2008   7.364   4.831  14.774  0.3482 -0.2486  0.0688
   16DOPE  H16R 2009   7.320   4.892  14.693 -2.1349 -0.2306  1.3320
   16DOPE  H16S 2010   7.286   4.806  14.849  0.3465 -1.2594 -0.2575
   16DOPE  C217 2011   7.421   4.705  14.706  0.3242  0.0984 -0.4043
   16DOPE  H17R 2012   7.458   4.631  14.780  0.7157 -0.6884 -1.3714
   16DOPE  H17S 2013   7.516   4.732  14.655 -0.0849  0.4064 -1.0024
   16DOPE  C218 2014   7.323   4.641  14.609 -0.3218 -0.0720  0.4156
   16DOPE  H18R 2015   7.376   4.558  14.559  0.5303 -0.1885  1.4777
   16DOPE  H18S 2016   7.298   4.712  14.527  1.1872  1.5632  1.2940
   16DOPE  H18T 2017   7.229   4.604  14.656 -0.2418 -0.1479  0.5172
   16DOPE   C33 2018   6.644   5.627  15.761 -0.0385  0.2505 -0.0338
   16DOPE   H3X 2019   6.723   5.689  15.809 -0.3314 -0.3183  1.2515
   16DOPE   H3Y 2020   6.540   5.653  15.793 -0.8636 -3.2717  0.5950
   16DOPE   C34 2021   6.653   5.619  15.605  0.5762  0.3412  0.3263
   16DOPE   H4X 2022   6.751   5.572  15.584  0.4352  1.2981 -2.9364
   16DOPE   H4Y 2023   6.574   5.545  15.580  0.9276  0.7364 -2.1447
   16DOPE   C35 2024   6.640   5.750  15.543 -0.4009  0.1503  0.2536
   16DOPE   H5X 2025   6.722   5.819  15.570 -0.1047 -0.6527  1.4657
   16DOPE   H5Y 2026   6.537   5.790  15.556 -0.1196  0.6136  1.0728
   16DOPE   C36 2027   6.652   5.734  15.387  0.1746 -0.2306 -0.1866
   16DOPE   H6X 2028   6.749   5.684  15.367  0.1864 -0.2445 -0.0905
   16DOPE   H6Y 2029   6.648   5.836  15.343  0.5682  0.9633  2.3424
   16DOPE   C37 2030   6.537   5.659  15.322 -0.7506 -0.3981 -0.0941
   16DOPE   H7X 2031   6.547   5.552  15.348 -0.4465 -0.2717  0.3209
   16DOPE   H7Y 2032   6.438   5.687  15.365  0.2907 -1.2884  3.1720
   16DOPE   C38 2033   6.535   5.667  15.161 -0.2919  0.6775  0.2994
   16DOPE   H8X 2034   6.457   5.595  15.127 -0.4266  1.8053 -2.0093
   16DOPE   H8Y 2035   6.627   5.626  15.115 -0.5900  0.3331  0.0082
   16DOPE   C39 2036   6.507   5.804  15.103 -0.1236  0.6277  0.3212
   16DOPE   H9X 2037   6.478   5.887  15.170  0.4467  0.3685  0.9003
   16DOPE  C310 2038   6.514   5.826  14.967  0.5311  0.3672  0.2803
   16DOPE  H10X 2039   6.489   5.928  14.933  0.8680  0.0508 -0.9544
   16DOPE  C311 2040   6.524   5.720  14.862 -0.2679  0.8064  0.4229
   16DOPE  H11X 2041   6.489   5.620  14.895 -2.8214  0.0627 -3.7575
   16DOPE  H11Y 2042   6.439   5.732  14.792 -1.1630  1.3879  1.5882
   16DOPE  C312 2043   6.659   5.700  14.786  0.3458  0.2161 -0.1806
   16DOPE  H12X 2044   6.656   5.610  14.721  0.9054  0.5072 -0.6236
   16DOPE  H12Y 2045   6.732   5.680  14.867  0.5020  0.1970 -0.3251
   16DOPE  C313 2046   6.708   5.813  14.690  0.6712  0.7681  0.1687
   16DOPE  H13X 2047   6.680   5.915  14.725 -2.8486  0.3587 -1.1134
   16DOPE  H13Y 2048   6.819   5.809  14.690  0.6700  0.5979  0.9391
   16DOPE  C314 2049   6.646   5.790  14.556 -0.7702  0.1899  0.1138
   16DOPE  H14X 2050   6.537   5.807  14.567 -0.8179  1.4371 -1.8162
   16DOPE  H14Y 2051   6.671   5.685  14.532  0.3359  0.2777  0.7944
   16DOPE  C315 2052   6.708   5.884  14.451  0.0280 -0.3545  0.6379
   16DOPE  H15X 2053   6.813   5.854  14.434  0.3954  0.9705  0.4135
   16DOPE  H15Y 2054   6.694   5.992  14.475 -2.4434  0.0960 -2.1914
   16DOPE  C316 2055   6.641   5.871  14.309 -0.3258 -0.0449 -0.3962
   16DOPE  H16X 2056   6.645   5.966  14.252 -1.5585  1.0527  1.2356
   16DOPE  H16Y 2057   6.534   5.843  14.321 -0.7850  1.5947 -0.4567
   16DOPE  C317 2058   6.703   5.758  14.220 -0.3786 -0.0464  0.2434
   16DOPE  H17X 2059   6.721   5.655  14.256  1.1062  0.4389  1.0023
   16DOPE  H17Y 2060   6.646   5.740  14.126 -1.0008  2.1499  0.1387
   16DOPE  C318 2061   6.844   5.790  14.163 -0.0552 -0.6035  0.0531
   16DOPE  H18X 2062   6.913   5.775  14.249 -0.1654  1.3998  0.5345
   16DOPE  H18Y 2063   6.876   5.733  14.073 -0.5793 -1.4730  0.4058
   16DOPE  H18Z 2064   6.850   5.894  14.126  1.0502  0.3245  2.6609
   17DOPE     N 2065   1.470   0.268  16.623  0.7953  0.5768  0.2990
   17DOPE   HN1 2066   1.550   0.259  16.688 -1.3584 -1.0431  2.9240
   17DOPE   HN2 2067   1.419   0.355  16.649  0.2022  0.7152 -1.2147
   17DOPE   HN3 2068   1.410   0.186  16.641  0.9637  0.6386  1.1999
   17DOPE   C12 2069   1.495   0.284  16.476 -0.4886  0.6958 -0.0932
   17DOPE  H12A 2070   1.399   0.309  16.425 -0.9052  2.9022  1.5801
   17DOPE  H12B 2071   1.535   0.186  16.442 -1.7462 -0.3983  1.4178
   17DOPE   C11 2072   1.591   0.409  16.443 -0.0583  0.2120  0.0795
   17DOPE  H11A 2073   1.534   0.502  16.466 -0.4155 -0.3575  1.5820
   17DOPE  H11B 2074   1.605   0.405  16.333 -1.9242 -0.2575 -0.1825
   17DOPE     P 2075   1.850   0.366  16.470  0.2952 -0.2085  0.1010
   17DOPE   O13 2076   1.848   0.223  16.465  0.6597  0.0153 -0.1448
   17DOPE   O14 2077   1.949   0.431  16.559 -0.4438  0.2560 -0.2359
   17DOPE   O11 2078   1.854   0.429  16.325 -0.8175 -0.3629  0.5114
   17DOPE   O12 2079   1.713   0.409  16.521  0.1289  0.3275 -0.2824
   17DOPE    C1 2080   1.859   0.573  16.311  0.8436 -0.8202 -0.0792
   17DOPE    HA 2081   1.919   0.617  16.393  2.2809 -0.7814 -1.1043
   17DOPE    HB 2082   1.755   0.611  16.323  0.0375 -2.1514 -2.2348
   17DOPE    C2 2083   1.924   0.624  16.172  0.3251  0.5176 -0.0607
   17DOPE    HS 2084   1.886   0.728  16.160 -2.8375 -0.5698 -0.3903
   17DOPE   O21 2085   1.864   0.545  16.068  0.0629  0.2046  0.0779
   17DOPE   C21 2086   1.730   0.554  16.055 -0.2550  0.3800 -0.1111
   17DOPE   O22 2087   1.656   0.620  16.125 -0.3540 -0.5882  0.0828
   17DOPE   C22 2088   1.689   0.474  15.931  0.0452 -0.6724 -0.3298
   17DOPE   H2R 2089   1.689   0.370  15.970 -2.5501 -1.0270 -1.0720
   17DOPE   H2S 2090   1.762   0.496  15.850 -0.7168  0.7402 -0.6694
   17DOPE    C3 2091   2.076   0.598  16.164  0.5793 -0.1580 -0.2417
   17DOPE    HX 2092   2.088   0.489  16.149 -0.2608  0.0653 -3.1287
   17DOPE    HY 2093   2.119   0.629  16.262  0.8836 -0.5856 -0.2400
   17DOPE   O31 2094   2.127   0.676  16.058 -0.6142 -0.0315 -0.2852
   17DOPE   C31 2095   2.256   0.696  16.048 -0.4830  0.3326  0.2622
   17DOPE   O32 2096   2.339   0.644  16.122 -0.5792  0.5061  0.2417
   17DOPE   C32 2097   2.288   0.798  15.930  0.1181  0.4364  0.0837
   17DOPE   H2X 2098   2.236   0.761  15.839  0.8420  2.1980 -1.1051
   17DOPE   H2Y 2099   2.267   0.902  15.962 -2.2311  0.1411 -0.3457
   17DOPE   C23 2100   1.545   0.517  15.884  0.4922  0.2191  1.0000
   17DOPE   H3R 2101   1.560   0.622  15.852  2.0542  0.4283  2.2850
   17DOPE   H3S 2102   1.468   0.515  15.964 -2.2832  2.3608 -1.3886
   17DOPE   C24 2103   1.478   0.420  15.775 -0.4794  0.3070  0.5392
   17DOPE   H4R 2104   1.390   0.481  15.743 -1.4147 -0.7014  1.0866
   17DOPE   H4S 2105   1.439   0.322  15.811  0.8894 -1.3012 -2.1107
   17DOPE   C25 2106   1.569   0.382  15.656 -0.2656  0.2783  0.2896
   17DOPE   H5R 2107   1.653   0.314  15.683 -1.3109 -1.0877  0.2264
   17DOPE   H5S 2108   1.613   0.476  15.615  0.0295 -0.5382 -1.3637
   17DOPE   C26 2109   1.483   0.337  15.534  0.0816  0.0076 -0.1297
   17DOPE   H6R 2110   1.426   0.425  15.498 -1.5069 -1.2814 -0.9274
   17DOPE   H6S 2111   1.417   0.254  15.566  2.4065 -1.9200 -0.0679
   17DOPE   C27 2112   1.572   0.273  15.421  0.1488 -1.0916 -0.4409
   17DOPE   H7R 2113   1.628   0.181  15.450  0.0793 -0.6666  1.1281
   17DOPE   H7S 2114   1.648   0.350  15.397  0.0083 -1.0651 -0.8004
   17DOPE   C28 2115   1.497   0.241  15.292 -0.2229  0.0118  0.1484
   17DOPE   H8R 2116   1.435   0.323  15.251 -0.7738 -0.7962 -0.6668
   17DOPE   H8S 2117   1.417   0.166  15.306  0.4014 -0.8358 -0.6597
   17DOPE   C29 2118   1.596   0.187  15.193 -0.2049  0.4101  0.0915
   17DOPE   H9R 2119   1.623   0.082  15.213 -0.7105  0.0532 -1.0303
   17DOPE  C210 2120   1.650   0.256  15.088  0.4958 -0.6976 -0.0979
   17DOPE  H10R 2121   1.734   0.210  15.034  0.2700 -0.7098 -0.4462
   17DOPE  C211 2122   1.621   0.398  15.058  0.2590 -0.3534 -1.3524
   17DOPE  H11R 2123   1.693   0.447  15.127  0.9458 -2.0046 -0.8548
   17DOPE  H11S 2124   1.517   0.426  15.086  0.7359 -1.0149  1.4602
   17DOPE  C212 2125   1.661   0.441  14.913 -0.3417  0.4035 -0.7428
   17DOPE  H12R 2126   1.764   0.403  14.896 -0.6320 -1.5393  1.4154
   17DOPE  H12S 2127   1.658   0.551  14.922  0.0496  0.5982 -2.5036
   17DOPE  C213 2128   1.562   0.385  14.804  0.2492  0.6374 -0.2099
   17DOPE  H13R 2129   1.473   0.361  14.865  0.7193 -0.4022  0.0965
   17DOPE  H13S 2130   1.602   0.289  14.765 -2.2357 -0.0074 -1.3259
   17DOPE  C214 2131   1.510   0.477  14.696 -0.3882  0.6128  0.0364
   17DOPE  H14R 2132   1.594   0.488  14.625 -0.2884 -1.1868 -0.1584
   17DOPE  H14S 2133   1.487   0.575  14.744  1.3987  1.3481 -0.5448
   17DOPE  C215 2134   1.388   0.418  14.632  0.6759 -0.0066 -0.0374
   17DOPE  H15R 2135   1.324   0.371  14.710 -0.4330  1.1834 -0.1906
   17DOPE  H15S 2136   1.411   0.343  14.553 -2.5811  0.8379 -1.9639
   17DOPE  C216 2137   1.315   0.537  14.568 -0.1023 -0.4636  0.7269
   17DOPE  H16R 2138   1.396   0.578  14.503 -2.2499  2.1553 -0.5148
   17DOPE  H16S 2139   1.300   0.615  14.645  0.0934  1.8531 -1.4380
   17DOPE  C217 2140   1.179   0.501  14.511  0.0586  1.0315  0.4490
   17DOPE  H17R 2141   1.126   0.586  14.463 -3.9367 -0.9098  0.9453
   17DOPE  H17S 2142   1.116   0.457  14.591  0.9633 -1.0319  0.0885
   17DOPE  C218 2143   1.174   0.384  14.402 -0.2756 -0.0699 -0.9780
   17DOPE  H18R 2144   1.210   0.434  14.310 -1.6759 -0.9323 -2.0348
   17DOPE  H18S 2145   1.066   0.365  14.388 -0.3713 -0.3423  0.0360
   17DOPE  H18T 2146   1.230   0.294  14.438 -1.1000 -0.8426 -1.5677
   17DOPE   C33 2147   2.442   0.784  15.902 -0.4121  0.3541  0.0386
   17DOPE   H3X 2148   2.478   0.684  15.934  0.1252  0.7533  0.6943
   17DOPE   H3Y 2149   2.493   0.862  15.962  1.8664  0.7656 -2.2479
   17DOPE   C34 2150   2.464   0.792  15.750 -0.0805 -0.6110  0.3960
   17DOPE   H4X 2151   2.405   0.715  15.696 -1.1059  1.6749 -1.9165
   17DOPE   H4Y 2152   2.414   0.887  15.723  0.3524 -0.8483 -1.3477
   17DOPE   C35 2153   2.609   0.797  15.705  0.0420  0.8032  0.2694
   17DOPE   H5X 2154   2.657   0.697  15.697 -1.1225  0.3776 -3.8017
   17DOPE   H5Y 2155   2.660   0.853  15.786  2.5903 -0.6394 -0.2194
   17DOPE   C36 2156   2.617   0.861  15.568  0.0813 -0.2480 -0.5833
   17DOPE   H6X 2157   2.604   0.971  15.582  2.0143  0.4859 -3.4905
   17DOPE   H6Y 2158   2.536   0.824  15.502 -1.0076 -2.1228  1.6701
   17DOPE   C37 2159   2.765   0.854  15.509 -0.1669 -0.4133  0.0996
   17DOPE   H7X 2160   2.831   0.910  15.578 -3.1509  0.6617  2.2916
   17DOPE   H7Y 2161   2.791   0.746  15.499 -1.2861 -0.5872 -1.2064
   17DOPE   C38 2162   2.789   0.912  15.368 -0.0040 -0.1304  0.3163
   17DOPE   H8X 2163   2.897   0.898  15.346  0.2612  1.9313  0.0369
   17DOPE   H8Y 2164   2.779   1.022  15.380  1.0494 -0.1929  1.9782
   17DOPE   C39 2165   2.699   0.860  15.263  0.4917 -0.5524  0.2258
   17DOPE   H9X 2166   2.591   0.876  15.275  0.5851 -0.7715  1.5894
   17DOPE  C310 2167   2.738   0.817  15.140  0.1930  0.1685  0.2836
   17DOPE  H10X 2168   2.662   0.763  15.082 -1.1664  1.0057  1.2207
   17DOPE  C311 2169   2.887   0.809  15.101  0.6034  0.2418 -0.1043
   17DOPE  H11X 2170   2.958   0.810  15.185 -0.2469 -0.7929  0.6483
   17DOPE  H11Y 2171   2.905   0.709  15.056 -0.6752 -0.4677  0.8699
   17DOPE  C312 2172   2.923   0.915  14.996 -0.3686 -0.2152  0.1922
   17DOPE  H12X 2173   2.867   0.889  14.904 -0.6817 -2.0820  0.8692
   17DOPE  H12Y 2174   3.031   0.896  14.977 -0.1281 -0.2783  1.5043
   17DOPE  C313 2175   2.900   1.061  15.033  0.2829 -0.8039  0.1616
   17DOPE  H13X 2176   2.794   1.093  15.043  0.5199 -0.5182  2.4109
   17DOPE  H13Y 2177   2.927   1.065  15.141 -1.5801  1.2305  0.6167
   17DOPE  C314 2178   2.972   1.172  14.955 -0.9794  0.0082 -0.1829
   17DOPE  H14X 2179   2.923   1.187  14.856 -1.6784 -0.7844  0.0351
   17DOPE  H14Y 2180   3.077   1.142  14.934 -1.3122 -1.3032 -0.0409
   17DOPE  C315 2181   2.987   1.305  15.028 -0.0946  0.2113  0.6517
   17DOPE  H15X 2182   3.067   1.299  15.104 -0.2599 -1.4819  0.7271
   17DOPE  H15Y 2183   2.887   1.326  15.072 -0.9895  0.2349 -1.2745
   17DOPE  C316 2184   3.021   1.424  14.943  0.1127 -0.5752  0.0781
   17DOPE  H16X 2185   2.930   1.448  14.885 -1.2530 -2.5301  1.3048
   17DOPE  H16Y 2186   3.098   1.404  14.865 -2.2906 -3.0819 -1.8274
   17DOPE  C317 2187   3.066   1.538  15.040 -0.2825 -0.2162  0.1626
   17DOPE  H17X 2188   2.988   1.573  15.110 -0.3855  2.4547 -1.1404
   17DOPE  H17Y 2189   3.161   1.512  15.092 -1.8836 -1.3596  2.6961
   17DOPE  C318 2190   3.090   1.666  14.959 -0.6325  0.7743 -0.1121
   17DOPE  H18X 2191   3.003   1.720  14.915  1.6130  1.7644 -3.7996
   17DOPE  H18Y 2192   3.141   1.744  15.019 -0.5011  0.5296  0.0990
   17DOPE  H18Z 2193   3.146   1.635  14.868 -3.5392  0.0011 -1.7872
   18DOPE     N 2194   6.478   3.950  16.435  0.0423 -0.0790  0.6038
   18DOPE   HN1 2195   6.503   3.882  16.360  0.2259  0.5665  0.0658
   18DOPE   HN2 2196   6.555   3.968  16.502 -0.4571 -0.1088  1.1969
   18DOPE   HN3 2197   6.394   3.915  16.485 -0.2888 -0.1889 -0.0169
   18DOPE   C12 2198   6.459   4.087  16.365  0.7614  0.0837 -0.2090
   18DOPE  H12A 2199   6.402   4.075  16.271  0.8922 -2.6430 -0.0057
   18DOPE  H12B 2200   6.561   4.124  16.341  1.1894 -0.7564  0.2598
   18DOPE   C11 2201   6.388   4.184  16.466 -0.0521  0.1454  0.1770
   18DOPE  H11A 2202   6.298   4.127  16.499 -0.1074 -0.3135 -0.7369
   18DOPE  H11B 2203   6.360   4.281  16.419 -0.2331 -1.0397 -2.3580
   18DOPE     P 2204   6.563   4.340  16.576  0.0161  0.3038  0.0729
   18DOPE   O13 2205   6.634   4.335  16.443  0.0055 -0.0098 -0.3083
   18DOPE   O14 2206   6.652   4.358  16.691 -0.2135 -0.0785 -0.2211
   18DOPE   O11 2207   6.459   4.455  16.571 -0.1086 -0.0002  0.0383
   18DOPE   O12 2208   6.469   4.212  16.580 -0.0410 -0.3658  0.2465
   18DOPE    C1 2209   6.485   4.583  16.532 -0.1392  0.1699  0.3692
   18DOPE    HA 2210   6.570   4.585  16.460  0.0975 -1.7287  0.5288
   18DOPE    HB 2211   6.518   4.649  16.614 -0.9879 -0.3017  1.1065
   18DOPE    C2 2212   6.360   4.655  16.473  0.5149  0.3870  0.1294
   18DOPE    HS 2213   6.309   4.695  16.563 -1.0749 -2.4262  0.6218
   18DOPE   O21 2214   6.279   4.557  16.399 -0.8686  0.0170  0.5039
   18DOPE   C21 2215   6.148   4.553  16.415 -0.5200 -0.1507  0.1202
   18DOPE   O22 2216   6.080   4.621  16.487 -0.1165  0.4496 -0.5631
   18DOPE   C22 2217   6.095   4.449  16.321  0.1730  0.5568  0.1422
   18DOPE   H2R 2218   6.111   4.345  16.359 -0.3441 -0.3489 -1.9495
   18DOPE   H2S 2219   6.153   4.451  16.226 -0.5139  1.1319 -0.2701
   18DOPE    C3 2220   6.407   4.778  16.392  0.1562 -0.2840 -0.2474
   18DOPE    HX 2221   6.489   4.833  16.443  1.1913 -0.2869 -1.8641
   18DOPE    HY 2222   6.319   4.845  16.402  1.1529  1.0120  0.1613
   18DOPE   O31 2223   6.424   4.746  16.256 -0.5464 -0.0008  0.4115
   18DOPE   C31 2224   6.413   4.853  16.170  0.1058  0.3550  0.2210
   18DOPE   O32 2225   6.395   4.968  16.202 -0.1420  0.0456  0.2144
   18DOPE   C32 2226   6.418   4.788  16.030  0.0949  0.1615 -0.7331
   18DOPE   H2X 2227   6.512   4.731  16.013 -0.6038 -0.6548 -2.0200
   18DOPE   H2Y 2228   6.331   4.720  16.030 -1.1313  1.5089  2.9369
   18DOPE   C23 2229   5.950   4.457  16.289  0.3930 -0.0012  0.3264
   18DOPE   H3R 2230   5.894   4.444  16.384 -0.9506 -0.0179 -0.4407
   18DOPE   H3S 2231   5.922   4.373  16.221  1.3242  0.0748 -0.1746
   18DOPE   C24 2232   5.903   4.585  16.213 -0.4068  0.9421 -1.0865
   18DOPE   H4R 2233   5.903   4.677  16.275  1.3208  1.0097 -1.1330
   18DOPE   H4S 2234   5.796   4.579  16.186 -0.9611 -0.2150  1.1284
   18DOPE   C25 2235   5.989   4.599  16.083  0.1600  0.6325 -0.1320
   18DOPE   H5R 2236   5.972   4.507  16.024 -0.8719  2.5198 -3.0023
   18DOPE   H5S 2237   6.099   4.603  16.093  0.3000  1.8519 -1.7145
   18DOPE   C26 2238   5.956   4.719  16.000  0.1626  0.0362 -0.5462
   18DOPE   H6R 2239   5.850   4.710  15.971 -0.3788  0.0488  1.3348
   18DOPE   H6S 2240   6.023   4.712  15.911  1.4821 -0.9939  0.4904
   18DOPE   C27 2241   5.962   4.866  16.054  0.5645  0.4373  0.2662
   18DOPE   H7R 2242   6.059   4.875  16.109  0.9613 -2.3069  0.1385
   18DOPE   H7S 2243   5.889   4.876  16.137 -0.5481 -2.4941 -0.2350
   18DOPE   C28 2244   5.915   4.970  15.944 -0.2135 -0.1856 -0.3630
   18DOPE   H8R 2245   5.890   5.073  15.979  1.2273  0.1756 -0.3329
   18DOPE   H8S 2246   5.825   4.927  15.896 -1.5887  0.2593  1.6572
   18DOPE   C29 2247   6.043   4.990  15.862 -0.1548 -0.4291 -0.0694
   18DOPE   H9R 2248   6.125   5.045  15.912 -1.0646  0.2970  0.6626
   18DOPE  C210 2249   6.064   4.950  15.733  0.4529 -0.2573 -0.2337
   18DOPE  H10R 2250   6.153   4.988  15.681  1.0562 -0.2109  0.8135
   18DOPE  C211 2251   5.964   4.875  15.653 -0.3513 -0.4149 -0.1648
   18DOPE  H11R 2252   5.924   4.941  15.573  0.0305 -1.3789 -1.1678
   18DOPE  H11S 2253   5.880   4.851  15.721  1.2636  2.1129  3.0296
   18DOPE  C212 2254   6.007   4.749  15.578 -0.2957  0.3119  1.0259
   18DOPE  H12R 2255   5.920   4.688  15.545 -0.1941 -0.9715  2.9859
   18DOPE  H12S 2256   6.055   4.674  15.644 -1.8519 -0.5104  1.2786
   18DOPE  C213 2257   6.094   4.789  15.453  0.4468 -0.2291 -0.0799
   18DOPE  H13R 2258   6.120   4.694  15.400  1.5317  1.6044 -3.0683
   18DOPE  H13S 2259   6.188   4.839  15.483 -0.3671  1.7439 -0.6917
   18DOPE  C214 2260   6.026   4.874  15.343  0.0490  1.3396 -0.4201
   18DOPE  H14R 2261   6.004   4.977  15.379 -1.5605  1.6086 -2.0649
   18DOPE  H14S 2262   5.933   4.820  15.313  1.2679 -1.3919  0.3875
   18DOPE  C215 2263   6.114   4.867  15.217 -0.9285  0.3581  0.8451
   18DOPE  H15R 2264   6.184   4.781  15.223 -2.7933 -1.5265 -1.8305
   18DOPE  H15S 2265   6.178   4.957  15.209  1.0938 -1.1046 -0.6456
   18DOPE  C216 2266   6.033   4.841  15.082 -0.5712 -0.5809 -0.1949
   18DOPE  H16R 2267   5.947   4.911  15.080  0.3415  0.5850 -0.6549
   18DOPE  H16S 2268   5.994   4.738  15.081 -0.1043 -0.8422  2.0436
   18DOPE  C217 2269   6.118   4.874  14.962  0.1981  0.2487 -0.5858
   18DOPE  H17R 2270   6.214   4.826  14.990  0.6246  2.2583  1.7527
   18DOPE  H17S 2271   6.132   4.985  14.959  2.1213  0.0361 -0.7594
   18DOPE  C218 2272   6.055   4.810  14.832 -0.3994 -0.1853  0.4081
   18DOPE  H18R 2273   5.967   4.754  14.868 -0.2073 -1.7422 -1.3925
   18DOPE  H18S 2274   6.118   4.738  14.775 -2.8129 -1.2186 -1.0676
   18DOPE  H18T 2275   6.018   4.891  14.766 -1.1828 -0.4351  0.5357
   18DOPE   C33 2276   6.421   4.909  15.928  0.3323 -0.1328 -0.1875
   18DOPE   H3X 2277   6.387   5.007  15.967  1.2812  0.0933  0.1121
   18DOPE   H3Y 2278   6.353   4.873  15.848  1.9185 -0.9156 -1.2547
   18DOPE   C34 2279   6.552   4.932  15.865  0.0758 -0.4039  0.5550
   18DOPE   H4X 2280   6.627   4.938  15.947 -0.9205 -1.9123  1.6277
   18DOPE   H4Y 2281   6.582   4.846  15.801 -0.7101 -0.4241  0.2121
   18DOPE   C35 2282   6.540   5.056  15.775 -0.0246  0.3726  0.0332
   18DOPE   H5X 2283   6.516   5.140  15.843  0.4288 -1.7693  3.0375
   18DOPE   H5Y 2284   6.464   5.040  15.695  0.1032  2.5797 -0.5843
   18DOPE   C36 2285   6.667   5.085  15.695  0.4693 -0.6180 -0.1092
   18DOPE   H6X 2286   6.705   4.994  15.644  0.0549 -0.8211 -0.0546
   18DOPE   H6Y 2287   6.745   5.123  15.765  0.4362 -0.1959 -0.2979
   18DOPE   C37 2288   6.653   5.195  15.590 -0.5329  0.4690  0.5939
   18DOPE   H7X 2289   6.603   5.163  15.497  0.7658  0.6220 -0.1887
   18DOPE   H7Y 2290   6.597   5.277  15.640  0.1998  1.7441 -0.5749
   18DOPE   C38 2291   6.788   5.255  15.546 -0.4399  0.7672  0.1522
   18DOPE   H8X 2292   6.846   5.281  15.637  0.0569  1.4064 -0.3382
   18DOPE   H8Y 2293   6.771   5.350  15.491  0.3649  1.0816  0.4262
   18DOPE   C39 2294   6.871   5.159  15.463  0.1904  0.1585  0.1208
   18DOPE   H9X 2295   6.904   5.065  15.510  3.0964 -0.2111 -2.3064
   18DOPE  C310 2296   6.890   5.181  15.328 -0.1356  0.3452 -0.5192
   18DOPE  H10X 2297   6.955   5.110  15.275  0.1430 -0.4721  0.8787
   18DOPE  C311 2298   6.869   5.305  15.251  0.5891 -0.2203  0.0727
   18DOPE  H11X 2299   6.774   5.353  15.281  0.5111 -0.4862  0.2600
   18DOPE  H11Y 2300   6.956   5.373  15.261  0.3768 -0.0664  0.8864
   18DOPE  C312 2301   6.858   5.267  15.100 -0.5881 -0.0441 -0.6344
   18DOPE  H12X 2302   6.750   5.248  15.078 -1.5480  2.4382  1.5233
   18DOPE  H12Y 2303   6.922   5.184  15.061  0.5274  1.0942 -1.3115
   18DOPE  C313 2304   6.891   5.381  15.005 -0.0449 -0.2921 -0.9178
   18DOPE  H13X 2305   6.827   5.472  15.009 -1.3787 -1.2297 -0.0969
   18DOPE  H13Y 2306   6.990   5.414  15.043 -0.5644  0.1070  0.1189
   18DOPE  C314 2307   6.904   5.329  14.861  0.0593 -0.7136 -0.3764
   18DOPE  H14X 2308   6.821   5.256  14.846 -0.2071 -0.9217  1.7734
   18DOPE  H14Y 2309   6.995   5.267  14.866  0.1061 -0.5798  0.9073
   18DOPE  C315 2310   6.923   5.425  14.739  0.6136 -0.0573 -0.6313
   18DOPE  H15X 2311   6.997   5.506  14.754 -0.4847  1.0762 -1.1014
   18DOPE  H15Y 2312   6.824   5.472  14.720  1.9653  2.9483 -0.8834
   18DOPE  C316 2313   6.968   5.360  14.608 -0.2821 -0.0981  0.3050
   18DOPE  H16X 2314   6.881   5.334  14.543  0.8709  0.3823 -1.4874
   18DOPE  H16Y 2315   7.029   5.275  14.647  2.1175  0.7845 -1.3356
   18DOPE  C317 2316   7.047   5.459  14.518  0.2115  0.7686 -0.0906
   18DOPE  H17X 2317   7.130   5.503  14.577 -0.6740  0.1958  1.6565
   18DOPE  H17Y 2318   7.086   5.404  14.430 -2.5222 -0.9057 -0.4027
   18DOPE  C318 2319   6.971   5.587  14.472  0.3266  0.2176 -0.0402
   18DOPE  H18X 2320   7.015   5.650  14.393  2.0624 -1.1284 -0.2180
   18DOPE  H18Y 2321   6.865   5.560  14.449  0.0452  0.0101  1.3626
   18DOPE  H18Z 2322   6.955   5.653  14.560 -0.1915  0.4035 -0.2648
   19DOPE     N 2323   6.559   6.148  16.430  0.2727 -0.2215  0.0750
   19DOPE   HN1 2324   6.608   6.070  16.381 -1.8914 -0.5852 -1.6222
   19DOPE   HN2 2325   6.471   6.152  16.376 -0.9352 -0.7784  1.8916
   19DOPE   HN3 2326   6.621   6.231  16.420 -0.4111  0.6145  2.1855
   19DOPE   C12 2327   6.527   6.104  16.571  0.4277 -0.0918 -0.0869
   19DOPE  H12A 2328   6.423   6.131  16.598  0.8510 -0.2226  1.8340
   19DOPE  H12B 2329   6.599   6.166  16.628 -1.1521  1.1980  0.5871
   19DOPE   C11 2330   6.559   5.958  16.602 -0.7180  0.2498  0.0547
   19DOPE  H11A 2331   6.555   5.921  16.706  3.4875 -0.7971  0.0335
   19DOPE  H11B 2332   6.666   5.939  16.579 -0.8228 -1.9529  1.1443
   19DOPE     P 2333   6.357   5.797  16.543 -0.0326 -0.5788 -0.2186
   19DOPE   O13 2334   6.251   5.898  16.556  0.1586  0.5749 -0.5111
   19DOPE   O14 2335   6.367   5.703  16.659  0.0956  0.3008 -0.3249
   19DOPE   O11 2336   6.341   5.721  16.407 -0.3147 -0.4587 -0.1999
   19DOPE   O12 2337   6.497   5.864  16.511  0.3153  0.2522  0.5417
   19DOPE    C1 2338   6.412   5.779  16.289  0.4636  0.6854 -0.7579
   19DOPE    HA 2339   6.519   5.750  16.299  0.3024 -0.3481 -1.8911
   19DOPE    HB 2340   6.409   5.890  16.298  0.7274  0.6406 -0.0630
   19DOPE    C2 2341   6.350   5.733  16.158  0.0457  0.2306  0.1312
   19DOPE    HS 2342   6.249   5.777  16.166 -0.2456 -0.0184 -1.7332
   19DOPE   O21 2343   6.356   5.585  16.150 -0.4819  0.5547  0.2953
   19DOPE   C21 2344   6.246   5.524  16.125  0.6395 -0.0239  0.4952
   19DOPE   O22 2345   6.132   5.576  16.109  0.1201  0.6304 -0.0634
   19DOPE   C22 2346   6.274   5.373  16.117  0.6230  0.4157  0.1093
   19DOPE   H2R 2347   6.181   5.322  16.151  1.0821 -0.9021 -0.5190
   19DOPE   H2S 2348   6.359   5.338  16.178  0.2584  1.3804  1.1923
   19DOPE    C3 2349   6.423   5.794  16.030 -0.6338  0.6379  0.5044
   19DOPE    HX 2350   6.529   5.760  16.025 -0.7675  0.1786  0.7079
   19DOPE    HY 2351   6.433   5.904  16.034 -2.2149  0.8380 -0.1449
   19DOPE   O31 2352   6.349   5.738  15.908  0.4949 -0.5097 -0.2377
   19DOPE   C31 2353   6.280   5.822  15.833 -0.0100 -0.0098 -0.6271
   19DOPE   O32 2354   6.263   5.940  15.850 -0.6555 -0.6606 -0.3888
   19DOPE   C32 2355   6.242   5.751  15.706 -0.4354  0.1254 -0.2467
   19DOPE   H2X 2356   6.336   5.698  15.677 -1.0851 -0.6970 -0.8914
   19DOPE   H2Y 2357   6.172   5.668  15.729  0.0782 -0.5606 -1.0644
   19DOPE   C23 2358   6.300   5.338  15.972  0.4848  0.0248 -0.1988
   19DOPE   H3R 2359   6.320   5.229  15.964 -0.0185  0.0255 -1.7959
   19DOPE   H3S 2360   6.387   5.382  15.919  1.0693  0.8339  1.3581
   19DOPE   C24 2361   6.179   5.363  15.877 -0.3074 -0.7282  0.6143
   19DOPE   H4R 2362   6.187   5.469  15.846  2.7385 -1.1388 -0.3640
   19DOPE   H4S 2363   6.090   5.322  15.929 -0.0194 -1.3016  0.6664
   19DOPE   C25 2364   6.188   5.280  15.744  0.2565 -0.4180 -0.5085
   19DOPE   H5R 2365   6.085   5.265  15.706  0.1761 -1.6830  0.1644
   19DOPE   H5S 2366   6.230   5.182  15.775 -0.7976 -0.5273  0.6335
   19DOPE   C26 2367   6.282   5.352  15.642  0.4725  0.0023  0.2688
   19DOPE   H6R 2368   6.379   5.384  15.686  0.5205  1.2179 -0.6734
   19DOPE   H6S 2369   6.233   5.446  15.608  1.9937  1.5763  2.1816
   19DOPE   C27 2370   6.324   5.257  15.529  0.1527  0.3298 -0.4709
   19DOPE   H7R 2371   6.345   5.160  15.579  0.2669 -0.4000 -1.8718
   19DOPE   H7S 2372   6.414   5.304  15.484  0.7430 -0.9116 -0.6403
   19DOPE   C28 2373   6.199   5.234  15.433 -0.5365 -0.7234 -0.4117
   19DOPE   H8R 2374   6.107   5.234  15.494 -0.4350  0.1815 -0.2435
   19DOPE   H8S 2375   6.207   5.144  15.368 -0.8766  0.8912 -2.8055
   19DOPE   C29 2376   6.189   5.349  15.338  0.2918  0.2947  0.4308
   19DOPE   H9R 2377   6.275   5.416  15.320  0.3012  0.2271  0.2245
   19DOPE  C210 2378   6.079   5.369  15.263  0.1035 -0.1072 -0.7347
   19DOPE  H10R 2379   6.064   5.455  15.196 -0.5957  0.3062 -0.0637
   19DOPE  C211 2380   5.953   5.280  15.276  0.3975  0.1606 -0.2627
   19DOPE  H11R 2381   5.862   5.340  15.298  0.5900  0.6536 -0.7833
   19DOPE  H11S 2382   5.953   5.195  15.349 -2.9154 -0.0351 -0.3271
   19DOPE  C212 2383   5.923   5.209  15.151  0.1828  0.1372 -0.3957
   19DOPE  H12R 2384   6.008   5.147  15.117 -0.0551 -0.6322  0.3618
   19DOPE  H12S 2385   5.915   5.282  15.068 -0.4099  0.5038 -0.0288
   19DOPE  C213 2386   5.786   5.139  15.149 -0.6748  0.0844 -0.3504
   19DOPE  H13R 2387   5.712   5.212  15.189 -1.7159 -0.9033 -0.4194
   19DOPE  H13S 2388   5.773   5.044  15.206 -0.7167  0.6221  0.5514
   19DOPE  C214 2389   5.750   5.098  15.004  0.1937 -0.4149  0.0160
   19DOPE  H14R 2390   5.840   5.046  14.965 -0.0848 -1.6162  0.9056
   19DOPE  H14S 2391   5.730   5.192  14.950 -1.5527 -1.6705 -1.6675
   19DOPE  C215 2392   5.625   5.011  14.988 -0.4534  0.0948 -0.2305
   19DOPE  H15R 2393   5.533   5.040  15.044 -0.1249  1.3985 -0.3323
   19DOPE  H15S 2394   5.645   4.907  15.024  0.0458  0.6941  1.3059
   19DOPE  C216 2395   5.573   4.985  14.843  0.4870  0.4761 -0.4573
   19DOPE  H16R 2396   5.656   4.939  14.785 -0.8385  0.0315 -2.0782
   19DOPE  H16S 2397   5.553   5.087  14.804  2.8362  0.0280 -3.1069
   19DOPE  C217 2398   5.444   4.899  14.846  0.0797 -0.2787  0.0739
   19DOPE  H17R 2399   5.376   4.965  14.904  0.5253  1.8414 -1.6880
   19DOPE  H17S 2400   5.452   4.803  14.901 -1.4640 -0.5020 -0.0750
   19DOPE  C218 2401   5.388   4.880  14.704 -0.1093  0.5523 -0.2127
   19DOPE  H18R 2402   5.470   4.888  14.630  1.7608 -3.1991  1.1954
   19DOPE  H18S 2403   5.306   4.952  14.682  0.0301  0.4814 -1.0170
   19DOPE  H18T 2404   5.361   4.772  14.696 -0.4589  0.4700  1.6356
   19DOPE   C33 2405   6.205   5.855  15.601  0.1734 -0.0374  0.2623
   19DOPE   H3X 2406   6.287   5.928  15.581  0.6823 -0.0909  1.9357
   19DOPE   H3Y 2407   6.120   5.921  15.629 -0.0820 -0.7272  1.1595
   19DOPE   C34 2408   6.172   5.788  15.466  0.2227  0.4805  0.1166
   19DOPE   H4X 2409   6.256   5.718  15.452  0.0858  0.1088  1.0604
   19DOPE   H4Y 2410   6.077   5.731  15.475  1.2569 -1.1592  1.2156
   19DOPE   C35 2411   6.157   5.887  15.362 -0.2484 -0.1182  0.6490
   19DOPE   H5X 2412   6.252   5.944  15.348  0.2769 -0.8455  1.1590
   19DOPE   H5Y 2413   6.081   5.966  15.379  0.0896  0.3300  0.1183
   19DOPE   C36 2414   6.129   5.818  15.225  0.2330 -0.0271  0.2199
   19DOPE   H6X 2415   6.034   5.762  15.238 -0.1679  1.0364  2.2386
   19DOPE   H6Y 2416   6.221   5.760  15.201 -0.7265 -0.8983 -1.5428
   19DOPE   C37 2417   6.092   5.926  15.118 -0.4316  0.8316 -0.5597
   19DOPE   H7X 2418   5.999   5.970  15.160 -0.7785  0.3199 -0.7855
   19DOPE   H7Y 2419   6.175   6.000  15.119  2.8792 -2.5415  0.3856
   19DOPE   C38 2420   6.068   5.881  14.977  0.3922  0.4962  0.2614
   19DOPE   H8X 2421   6.008   5.789  14.966  0.1727  0.6572  0.0935
   19DOPE   H8Y 2422   6.164   5.856  14.926 -0.4188  0.0733 -1.1187
   19DOPE   C39 2423   6.009   5.990  14.888 -0.2821  0.1451  0.0059
   19DOPE   H9X 2424   6.086   6.064  14.861 -1.7000  1.3981 -0.7187
   19DOPE  C310 2425   5.893   5.979  14.824 -0.5493  0.2900  0.1482
   19DOPE  H10X 2426   5.846   6.050  14.755  1.9096  2.1752  0.2777
   19DOPE  C311 2427   5.796   5.869  14.856 -0.3124 -0.3957 -0.0970
   19DOPE  H11X 2428   5.810   5.839  14.962  1.1345 -0.3139 -0.2438
   19DOPE  H11Y 2429   5.692   5.907  14.853 -0.4402 -0.3860  2.2056
   19DOPE  C312 2430   5.815   5.774  14.738  0.9972  0.4667  0.6502
   19DOPE  H12X 2431   5.917   5.730  14.731  0.7388 -0.3066  1.6735
   19DOPE  H12Y 2432   5.803   5.835  14.646  4.0482  0.4159  0.0968
   19DOPE  C313 2433   5.706   5.666  14.744 -0.6244 -0.4443 -0.5990
   19DOPE  H13X 2434   5.723   5.602  14.834 -0.8008  2.3257  1.5597
   19DOPE  H13Y 2435   5.616   5.720  14.781  0.7664 -0.0924  2.6287
   19DOPE  C314 2436   5.671   5.590  14.620 -0.4900 -0.3200  0.4932
   19DOPE  H14X 2437   5.754   5.529  14.579 -1.5471 -1.3842 -0.1093
   19DOPE  H14Y 2438   5.633   5.658  14.541  1.1499  2.9490  2.2885
   19DOPE  C315 2439   5.574   5.469  14.641 -0.7597 -0.2683 -0.3894
   19DOPE  H15X 2440   5.491   5.511  14.701 -0.9292 -1.4114  0.2005
   19DOPE  H15Y 2441   5.626   5.389  14.698  1.3294  1.2799 -0.0016
   19DOPE  C316 2442   5.534   5.408  14.512  0.1275  0.0832 -0.5939
   19DOPE  H16X 2443   5.619   5.398  14.441 -0.0866  0.5496 -0.9241
   19DOPE  H16Y 2444   5.454   5.467  14.462 -0.4941  0.7383  1.0999
   19DOPE  C317 2445   5.484   5.264  14.538 -0.5120  0.0971 -0.6833
   19DOPE  H17X 2446   5.565   5.192  14.562 -2.2659 -1.0517  2.3135
   19DOPE  H17Y 2447   5.399   5.282  14.607 -1.7269  0.1806 -2.1421
   19DOPE  C318 2448   5.429   5.212  14.404  0.3657  0.7006  0.2069
   19DOPE  H18X 2449   5.491   5.226  14.313  0.0527 -0.7091 -0.2461
   19DOPE  H18Y 2450   5.423   5.102  14.420 -0.2131  0.9591  1.9795
   19DOPE  H18Z 2451   5.333   5.266  14.387  0.2198  0.0949 -0.9850
   20DOPE     N 2452   5.918   0.641  16.003 -0.1637  0.7992 -0.2505
   20DOPE   HN1 2453   5.887   0.592  16.089  0.1552 -1.8228 -1.5547
   20DOPE   HN2 2454   5.967   0.568  15.947 -0.7235  0.9211 -0.9122
   20DOPE   HN3 2455   5.994   0.711  16.021 -0.3645  1.1144 -0.6073
   20DOPE   C12 2456   5.791   0.703  15.947 -0.3636 -0.0364  0.1030
   20DOPE  H12A 2457   5.717   0.625  15.921 -1.4119  1.3718 -1.3100
   20DOPE  H12B 2458   5.824   0.751  15.852 -0.2831 -1.0601 -0.4069
   20DOPE   C11 2459   5.716   0.794  16.044 -0.0800  0.1594  0.5612
   20DOPE  H11A 2460   5.671   0.743  16.133 -0.6941  0.1375  0.2480
   20DOPE  H11B 2461   5.626   0.833  15.991 -1.2450  0.6066  2.7341
   20DOPE     P 2462   5.781   1.053  16.004  0.2900  0.1668  0.0200
   20DOPE   O13 2463   5.879   1.149  16.059  0.5577 -0.1640 -0.0567
   20DOPE   O14 2464   5.641   1.092  16.021  0.0995 -0.4347  0.0599
   20DOPE   O11 2465   5.807   1.026  15.852  0.2863  0.2403 -0.5597
   20DOPE   O12 2466   5.800   0.907  16.076 -0.5485  0.7955  0.1613
   20DOPE    C1 2467   5.936   1.028  15.790 -0.0907  0.2723  0.0758
   20DOPE    HA 2468   5.991   0.936  15.820  0.4615 -0.1463 -2.0228
   20DOPE    HB 2469   5.981   1.123  15.823 -2.2550  1.1727  0.6278
   20DOPE    C2 2470   5.910   1.031  15.639  0.3099  0.0211 -0.3108
   20DOPE    HS 2471   6.006   1.059  15.590 -0.5134  3.9110 -0.0514
   20DOPE   O21 2472   5.815   1.135  15.601  0.5556  0.2232 -0.7981
   20DOPE   C21 2473   5.868   1.256  15.617 -0.0193  0.3893  0.4624
   20DOPE   O22 2474   5.987   1.279  15.636 -0.4219 -0.0775  0.2120
   20DOPE   C22 2475   5.752   1.352  15.614  0.2000 -0.2604  0.5430
   20DOPE   H2R 2476   5.676   1.319  15.687 -0.0285 -0.4029  0.2454
   20DOPE   H2S 2477   5.710   1.351  15.511  1.7040  1.3522 -0.1414
   20DOPE    C3 2478   5.861   0.894  15.582 -0.0841  0.4291  0.4727
   20DOPE    HX 2479   5.759   0.865  15.618  0.3858 -1.2430  0.5252
   20DOPE    HY 2480   5.938   0.822  15.615 -0.3124 -0.1923 -0.3096
   20DOPE   O31 2481   5.866   0.901  15.440 -0.1071 -0.4003 -0.0343
   20DOPE   C31 2482   5.755   0.948  15.380 -0.6015  0.2716  0.5603
   20DOPE   O32 2483   5.645   0.962  15.435 -0.3340 -0.9756  0.1505
   20DOPE   C32 2484   5.781   0.951  15.226 -0.4341 -0.2765 -0.4200
   20DOPE   H2X 2485   5.855   1.033  15.210 -0.9215  0.0502 -1.0801
   20DOPE   H2Y 2486   5.835   0.859  15.194 -0.8591 -0.5352 -0.3940
   20DOPE   C23 2487   5.802   1.492  15.636 -0.1609 -0.2567 -0.2249
   20DOPE   H3R 2488   5.877   1.521  15.559  0.3298  1.3081  0.7904
   20DOPE   H3S 2489   5.855   1.493  15.733  0.8110 -0.4698 -0.7369
   20DOPE   C24 2490   5.693   1.589  15.638 -0.3832 -0.6297  0.1423
   20DOPE   H4R 2491   5.727   1.685  15.682 -2.6811 -0.1187  0.9327
   20DOPE   H4S 2492   5.610   1.557  15.705  0.7449  0.0340  1.9434
   20DOPE   C25 2493   5.637   1.624  15.500 -1.0279  0.0240  0.2805
   20DOPE   H5R 2494   5.619   1.536  15.434  0.4134  0.8005 -1.2176
   20DOPE   H5S 2495   5.710   1.681  15.440  0.0292 -0.6277  0.9197
   20DOPE   C26 2496   5.515   1.712  15.505 -0.1211 -0.7408  0.8818
   20DOPE   H6R 2497   5.525   1.798  15.575  0.8244 -0.0150 -0.1131
   20DOPE   H6S 2498   5.422   1.654  15.528 -0.7626 -1.2492 -2.4982
   20DOPE   C27 2499   5.490   1.780  15.370  0.3396 -0.2781  0.0173
   20DOPE   H7R 2500   5.582   1.826  15.328 -0.3501 -0.2021 -1.4764
   20DOPE   H7S 2501   5.419   1.865  15.377  0.0576 -0.4271 -0.8834
   20DOPE   C28 2502   5.435   1.686  15.256 -0.1245  0.0369  0.0011
   20DOPE   H8R 2503   5.507   1.601  15.252  0.6323  0.4893  2.3530
   20DOPE   H8S 2504   5.452   1.741  15.160  0.2511  1.9050  1.0894
   20DOPE   C29 2505   5.292   1.641  15.266  0.0777  0.7141  0.6449
   20DOPE   H9R 2506   5.217   1.709  15.223 -0.8753  0.4659  1.8694
   20DOPE  C210 2507   5.247   1.512  15.292 -0.1107 -0.0496  0.1181
   20DOPE  H10R 2508   5.139   1.493  15.296  0.0484 -0.7435  1.6678
   20DOPE  C211 2509   5.342   1.399  15.319  0.1154 -0.1893 -0.1431
   20DOPE  H11R 2510   5.345   1.386  15.429  1.0672  0.4853 -0.0755
   20DOPE  H11S 2511   5.449   1.421  15.297  0.2675 -0.2580  0.5011
   20DOPE  C212 2512   5.308   1.264  15.249  0.6447  0.4130 -0.1338
   20DOPE  H12R 2513   5.381   1.189  15.286  1.1917  0.5390 -0.9239
   20DOPE  H12S 2514   5.323   1.272  15.139 -2.8001 -1.3354 -0.8394
   20DOPE  C213 2515   5.167   1.204  15.258 -0.0378 -0.2501  0.2409
   20DOPE  H13R 2516   5.165   1.103  15.213 -0.7645  0.2820 -0.9810
   20DOPE  H13S 2517   5.099   1.279  15.212  1.3360  1.1157  0.3596
   20DOPE  C214 2518   5.117   1.178  15.397 -0.1446 -0.2522  0.7059
   20DOPE  H14R 2519   5.158   1.257  15.462  0.1090 -0.8135  1.2348
   20DOPE  H14S 2520   5.163   1.093  15.452  0.5188  0.5049  1.3305
   20DOPE  C215 2521   4.965   1.155  15.407  0.6058 -0.1700  0.3830
   20DOPE  H15R 2522   4.921   1.241  15.353  0.9379 -0.9283 -1.1533
   20DOPE  H15S 2523   4.937   1.168  15.513 -0.4507 -1.4198  0.2819
   20DOPE  C216 2524   4.915   1.021  15.345 -0.5162  0.3481 -0.4877
   20DOPE  H16R 2525   4.936   0.939  15.417  0.4960  1.6952  0.8186
   20DOPE  H16S 2526   4.976   1.000  15.255  0.9709  1.4068  0.2206
   20DOPE  C217 2527   4.768   1.011  15.317  0.0672  0.4136  0.1069
   20DOPE  H17R 2528   4.708   1.011  15.410 -0.4638  0.3669 -0.2321
   20DOPE  H17S 2529   4.758   0.907  15.277  0.1930  0.2427  0.5167
   20DOPE  C218 2530   4.705   1.115  15.221 -0.3106  0.6339 -0.1525
   20DOPE  H18R 2531   4.701   1.218  15.261  1.0293  1.2675 -1.5323
   20DOPE  H18S 2532   4.597   1.106  15.196 -0.5803  0.5301  1.0188
   20DOPE  H18T 2533   4.771   1.110  15.132 -0.2810 -0.6809 -0.0724
   20DOPE   C33 2534   5.648   0.984  15.148 -0.2076  0.4013 -0.7327
   20DOPE   H3X 2535   5.584   1.056  15.204 -0.2686 -1.7893  2.3027
   20DOPE   H3Y 2536   5.585   0.893  15.143 -2.6349  2.0558 -2.1551
   20DOPE   C34 2537   5.669   1.052  15.019 -0.0455  0.4946  0.2716
   20DOPE   H4X 2538   5.758   1.118  15.025 -0.3234  0.8931 -0.0007
   20DOPE   H4Y 2539   5.686   0.975  14.940  2.7723 -0.3446  1.5616
   20DOPE   C35 2540   5.557   1.142  14.972  0.4682  0.0804  0.0352
   20DOPE   H5X 2541   5.530   1.229  15.035 -2.4549 -0.1288 -0.8073
   20DOPE   H5Y 2542   5.466   1.079  14.964 -0.4379  1.1646  1.3978
   20DOPE   C36 2543   5.594   1.205  14.835  0.0360 -0.5776  0.5663
   20DOPE   H6X 2544   5.599   1.130  14.754  1.6709 -0.3684  0.4560
   20DOPE   H6Y 2545   5.693   1.251  14.853 -0.3483  0.7974 -0.6424
   20DOPE   C37 2546   5.498   1.319  14.802 -0.9522  0.1825  0.1252
   20DOPE   H7X 2547   5.396   1.278  14.786 -0.4161 -1.6348  1.1230
   20DOPE   H7Y 2548   5.495   1.407  14.869 -1.6868 -0.8610  1.5194
   20DOPE   C38 2549   5.533   1.380  14.665 -0.2724 -0.7777 -0.2487
   20DOPE   H8X 2550   5.453   1.435  14.612  1.1889  0.9190 -0.7833
   20DOPE   H8Y 2551   5.557   1.303  14.588  2.1136  0.2345 -0.6084
   20DOPE   C39 2552   5.658   1.470  14.667  0.1831 -0.1192  0.9102
   20DOPE   H9X 2553   5.755   1.421  14.655 -0.0482 -0.1549 -1.2866
   20DOPE  C310 2554   5.663   1.598  14.670  0.3363 -0.1552  0.4183
   20DOPE  H10X 2555   5.753   1.660  14.667  0.2458 -0.0178  0.5201
   20DOPE  C311 2556   5.539   1.686  14.677 -0.4707 -0.6351 -0.1100
   20DOPE  H11X 2557   5.441   1.643  14.649 -0.8872 -0.3221  0.8473
   20DOPE  H11Y 2558   5.531   1.726  14.780  0.6260  0.3539 -0.3890
   20DOPE  C312 2559   5.562   1.812  14.586  0.0891  0.2778 -0.4867
   20DOPE  H12X 2560   5.559   1.777  14.480  2.4858  0.9489 -0.8270
   20DOPE  H12Y 2561   5.665   1.851  14.599  0.2949 -0.6874  0.8564
   20DOPE  C313 2562   5.465   1.931  14.607  0.2794  0.1058  0.2484
   20DOPE  H13X 2563   5.457   1.957  14.714 -1.0507 -0.9963  0.4439
   20DOPE  H13Y 2564   5.489   2.022  14.547 -1.9181  1.6884  1.6323
   20DOPE  C314 2565   5.320   1.894  14.572  0.1579  0.2998 -0.9825
   20DOPE  H14X 2566   5.276   1.817  14.639  0.9831  1.7885  1.3755
   20DOPE  H14Y 2567   5.317   1.839  14.475 -0.5374 -0.5313 -0.5015
   20DOPE  C315 2568   5.214   2.012  14.563 -0.1973 -0.2608  0.1332
   20DOPE  H15X 2569   5.236   2.096  14.634  1.5586  0.8006 -1.5699
   20DOPE  H15Y 2570   5.116   1.970  14.591 -0.1663 -0.9196 -0.7098
   20DOPE  C316 2571   5.197   2.077  14.426 -1.0449 -0.2789 -0.2313
   20DOPE  H16X 2572   5.106   2.141  14.425  0.0788  1.3965 -1.0199
   20DOPE  H16Y 2573   5.183   1.994  14.354 -1.4425 -0.5682  0.1784
   20DOPE  C317 2574   5.316   2.167  14.382  0.1647 -0.0970 -0.0195
   20DOPE  H17X 2575   5.313   2.247  14.459 -1.3339  1.2242 -1.3734
   20DOPE  H17Y 2576   5.408   2.104  14.380 -2.3908 -4.1460 -0.0681
   20DOPE  C318 2577   5.286   2.225  14.240 -0.1746 -0.3377 -0.5547
   20DOPE  H18X 2578   5.254   2.147  14.167  0.1039 -0.1625 -0.8645
   20DOPE  H18Y 2579   5.213   2.309  14.237 -0.7642 -0.6778  2.1651
   20DOPE  H18Z 2580   5.376   2.269  14.191 -0.1665  1.5344  1.0291
   21DOPE     N 2581   2.578   2.225  16.691 -1.2815  0.0520  0.6988
   21DOPE   HN1 2582   2.659   2.285  16.667 -1.1197 -0.2098  0.5859
   21DOPE   HN2 2583   2.495   2.271  16.649 -0.3902  0.0730 -1.1507
   21DOPE   HN3 2584   2.586   2.226  16.795  1.9521 -1.5478  0.6114
   21DOPE   C12 2585   2.601   2.087  16.620 -0.8461 -0.0208 -0.1771
   21DOPE  H12A 2586   2.542   2.007  16.670  2.2524 -3.1008 -1.0477
   21DOPE  H12B 2587   2.703   2.056  16.650 -1.0416 -0.2928  0.2252
   21DOPE   C11 2588   2.587   2.091  16.469 -0.0179  0.6606  0.2864
   21DOPE  H11A 2589   2.617   1.990  16.433  0.4255  1.0753 -0.5479
   21DOPE  H11B 2590   2.656   2.163  16.420  0.3770  0.3197  0.3451
   21DOPE     P 2591   2.341   2.019  16.396  0.0655 -0.2325 -0.0617
   21DOPE   O13 2592   2.210   2.083  16.379 -0.4367 -0.3471 -0.3503
   21DOPE   O14 2593   2.343   1.921  16.506 -0.0322  0.4842  0.1236
   21DOPE   O11 2594   2.384   1.942  16.267  0.5308  0.4244 -0.6080
   21DOPE   O12 2595   2.453   2.126  16.425 -0.1529  0.1843  0.0615
   21DOPE    C1 2596   2.450   2.016  16.164 -0.0531  0.0364  0.5139
   21DOPE    HA 2597   2.556   2.034  16.193  0.0962  1.0971 -0.5956
   21DOPE    HB 2598   2.390   2.109  16.153 -1.9761 -1.1312  0.6743
   21DOPE    C2 2599   2.459   1.941  16.023 -0.1150 -0.8806 -0.3050
   21DOPE    HS 2600   2.490   2.014  15.946 -1.6191  0.2668  0.1162
   21DOPE   O21 2601   2.327   1.896  15.988 -0.6137 -0.0997 -0.3108
   21DOPE   C21 2602   2.235   1.987  15.963 -0.2189  0.3873 -0.2494
   21DOPE   O22 2603   2.245   2.108  15.968 -0.2213 -0.1815  0.1800
   21DOPE   C22 2604   2.108   1.908  15.915  0.6765  0.3604  0.3674
   21DOPE   H2R 2605   2.046   1.996  15.889  1.0981  0.0378 -2.0201
   21DOPE   H2S 2606   2.064   1.848  15.997  0.9466  0.3642  0.5200
   21DOPE    C3 2607   2.559   1.828  16.024 -0.3420  0.7249  0.3298
   21DOPE    HX 2608   2.539   1.772  16.117 -0.2074 -0.6622 -0.4498
   21DOPE    HY 2609   2.660   1.873  16.028 -0.7598  1.7572 -0.2259
   21DOPE   O31 2610   2.539   1.748  15.908 -0.4076  0.1975  0.5080
   21DOPE   C31 2611   2.610   1.766  15.802 -0.1841 -1.1902 -0.3494
   21DOPE   O32 2612   2.704   1.843  15.786 -0.0013 -0.3625  0.5013
   21DOPE   C32 2613   2.553   1.673  15.698 -0.2232 -0.1555  0.4054
   21DOPE   H2X 2614   2.574   1.568  15.727  0.0316  0.3285  2.1388
   21DOPE   H2Y 2615   2.442   1.673  15.697 -0.2512  0.8028  1.3500
   21DOPE   C23 2616   2.145   1.819  15.793 -0.3170  0.1532  0.5232
   21DOPE   H3R 2617   2.056   1.762  15.759  1.3360 -1.6255 -1.0602
   21DOPE   H3S 2618   2.222   1.745  15.821  0.3727  0.7187  0.1689
   21DOPE   C24 2619   2.175   1.901  15.668 -0.9351  0.7375 -0.2631
   21DOPE   H4R 2620   2.283   1.926  15.677 -0.7678  0.0781 -0.4025
   21DOPE   H4S 2621   2.119   1.997  15.668 -1.5009  0.4145 -0.2066
   21DOPE   C25 2622   2.155   1.821  15.536  0.1784  0.5841 -0.2269
   21DOPE   H5R 2623   2.047   1.798  15.524  0.4618 -1.0378  0.1554
   21DOPE   H5S 2624   2.209   1.724  15.531 -0.4863  0.2309 -0.7126
   21DOPE   C26 2625   2.203   1.906  15.416 -0.6750  0.4352  0.0592
   21DOPE   H6R 2626   2.304   1.943  15.443  0.1738 -1.2642 -0.5709
   21DOPE   H6S 2627   2.133   1.991  15.402 -0.4435  0.6853  0.4069
   21DOPE   C27 2628   2.205   1.812  15.292 -0.1735 -0.0897 -0.1925
   21DOPE   H7R 2629   2.225   1.706  15.318 -2.5955 -0.4838  0.2427
   21DOPE   H7S 2630   2.298   1.835  15.235  0.1813 -1.4897 -0.2246
   21DOPE   C28 2631   2.074   1.818  15.219  0.0200  0.2965  0.3652
   21DOPE   H8R 2632   1.995   1.793  15.293 -0.6380 -0.8470 -0.6744
   21DOPE   H8S 2633   2.067   1.731  15.150  0.2054  0.8138 -0.3204
   21DOPE   C29 2634   2.040   1.949  15.138 -0.8806  0.7806  0.2070
   21DOPE   H9R 2635   2.006   2.038  15.193 -0.6195  0.4186  0.9627
   21DOPE  C210 2636   2.023   1.950  15.007  0.4039 -0.2635  0.3858
   21DOPE  H10R 2637   2.015   2.046  14.953 -4.9528 -1.1844 -1.0450
   21DOPE  C211 2638   2.035   1.838  14.903 -0.7211  0.3929  0.2270
   21DOPE  H11R 2639   1.944   1.780  14.878  1.2639 -1.2313 -4.2757
   21DOPE  H11S 2640   2.110   1.762  14.933  0.3567  1.0011 -0.8292
   21DOPE  C212 2641   2.073   1.892  14.767 -0.4456  0.9761  0.0579
   21DOPE  H12R 2642   2.120   1.809  14.710  0.8060 -0.1137  2.4712
   21DOPE  H12S 2643   2.154   1.967  14.786 -0.7936  0.6328  3.6803
   21DOPE  C213 2644   1.960   1.945  14.682  0.1981 -0.5416  0.6609
   21DOPE  H13R 2645   1.885   2.009  14.733  1.6744  2.3556 -0.5593
   21DOPE  H13S 2646   1.894   1.871  14.632 -1.2590  0.9155  0.3418
   21DOPE  C214 2647   2.014   2.046  14.582 -0.6905 -0.2121  0.0714
   21DOPE  H14R 2648   2.112   2.010  14.544 -0.5417 -0.4583  0.6742
   21DOPE  H14S 2649   2.028   2.146  14.628 -1.4596  1.4707 -3.0430
   21DOPE  C215 2650   1.907   2.077  14.477 -0.8419 -0.1454 -0.4519
   21DOPE  H15R 2651   1.843   2.149  14.531  0.3944  0.6570 -0.0220
   21DOPE  H15S 2652   1.851   1.987  14.443 -1.4724 -0.2852  0.8874
   21DOPE  C216 2653   1.968   2.141  14.350 -0.4283 -0.2942  0.7861
   21DOPE  H16R 2654   2.036   2.224  14.378  0.4847 -0.5200 -0.6856
   21DOPE  H16S 2655   1.882   2.179  14.290 -0.5232 -3.0415 -1.0141
   21DOPE  C217 2656   2.063   2.043  14.275 -0.2162  0.1543 -0.3742
   21DOPE  H17R 2657   2.134   1.995  14.346  2.2094 -1.3388 -3.5558
   21DOPE  H17S 2658   2.111   2.111  14.202  1.0981 -0.0479  0.2820
   21DOPE  C218 2659   1.982   1.954  14.182 -0.2525  0.0947 -0.5882
   21DOPE  H18R 2660   1.905   1.997  14.115  0.4763  0.1476 -1.4138
   21DOPE  H18S 2661   1.922   1.876  14.234  1.5403 -2.0383 -1.5438
   21DOPE  H18T 2662   2.045   1.888  14.118 -0.8352 -1.5121  0.4185
   21DOPE   C33 2663   2.607   1.695  15.556 -0.0308 -0.4805  1.0040
   21DOPE   H3X 2664   2.716   1.675  15.549 -0.1748 -0.9073 -0.7300
   21DOPE   H3Y 2665   2.583   1.799  15.525 -1.0246 -0.6981  0.9868
   21DOPE   C34 2666   2.532   1.596  15.458 -0.4657 -0.6849 -0.5157
   21DOPE   H4X 2667   2.555   1.494  15.497 -1.6990  0.4956  3.9245
   21DOPE   H4Y 2668   2.423   1.618  15.466 -0.4507 -0.8208  0.1371
   21DOPE   C35 2669   2.576   1.624  15.317 -0.3471  1.5189  0.4095
   21DOPE   H5X 2670   2.686   1.629  15.306 -0.4807  5.5252 -0.6641
   21DOPE   H5Y 2671   2.544   1.728  15.294 -1.0965  1.0516 -0.7732
   21DOPE   C36 2672   2.524   1.523  15.218 -0.0369  0.0406  0.1277
   21DOPE   H6X 2673   2.528   1.545  15.109  0.4341 -0.0852  0.1157
   21DOPE   H6Y 2674   2.414   1.528  15.233 -0.1412  3.3431 -1.0570
   21DOPE   C37 2675   2.577   1.375  15.234 -0.2805 -0.4737 -0.3932
   21DOPE   H7X 2676   2.688   1.382  15.230 -0.2593 -0.8841 -0.4674
   21DOPE   H7Y 2677   2.546   1.332  15.331  1.4144 -0.6588  0.0917
   21DOPE   C38 2678   2.533   1.291  15.112 -0.4258  0.5950 -0.3464
   21DOPE   H8X 2679   2.609   1.210  15.112 -0.7229  0.3044 -1.0054
   21DOPE   H8Y 2680   2.559   1.355  15.024 -2.2065 -2.9096 -3.7437
   21DOPE   C39 2681   2.385   1.247  15.115  0.4504 -0.1245 -0.1029
   21DOPE   H9X 2682   2.316   1.333  15.109 -1.2071 -1.4665 -1.1106
   21DOPE  C310 2683   2.330   1.126  15.109 -0.0398 -0.2926  0.4639
   21DOPE  H10X 2684   2.221   1.116  15.107 -0.0901  0.1446 -1.8594
   21DOPE  C311 2685   2.401   0.993  15.109 -0.6814 -0.5051 -0.3436
   21DOPE  H11X 2686   2.511   1.009  15.103 -0.6663  0.1835  1.4425
   21DOPE  H11Y 2687   2.381   0.932  15.200 -2.7139  1.3713  0.5544
   21DOPE  C312 2688   2.356   0.898  14.996  0.3440 -0.7986  0.1401
   21DOPE  H12X 2689   2.245   0.897  14.994  0.2633  1.2947  1.4654
   21DOPE  H12Y 2690   2.398   0.797  15.019 -1.7581 -1.6535  0.4317
   21DOPE  C313 2691   2.400   0.943  14.856 -0.1655 -0.6741  0.5048
   21DOPE  H13X 2692   2.366   0.859  14.791 -0.4413  0.1217 -0.3977
   21DOPE  H13Y 2693   2.351   1.038  14.828  2.1725  0.3711 -0.3654
   21DOPE  C314 2694   2.549   0.946  14.849  0.0481  0.3108 -0.4737
   21DOPE  H14X 2695   2.592   0.857  14.899 -0.2249  0.6470  0.3731
   21DOPE  H14Y 2696   2.592   1.026  14.913 -2.1385 -0.0981  1.5887
   21DOPE  C315 2697   2.593   0.963  14.699 -0.0168  0.2580  0.2266
   21DOPE  H15X 2698   2.557   1.064  14.667 -1.5468  0.0567  1.2230
   21DOPE  H15Y 2699   2.543   0.890  14.632  0.3717 -0.8869  1.1706
   21DOPE  C316 2700   2.744   0.937  14.667  0.1252 -0.0714 -0.1650
   21DOPE  H16X 2701   2.773   0.836  14.702 -1.1392 -0.1183  0.8454
   21DOPE  H16Y 2702   2.808   1.003  14.731  0.6834 -1.7757  1.1233
   21DOPE  C317 2703   2.774   0.949  14.525 -0.2226  0.1326  0.1989
   21DOPE  H17X 2704   2.753   1.055  14.503 -0.8944  0.3476  1.7581
   21DOPE  H17Y 2705   2.881   0.928  14.504 -1.2302 -3.8218 -2.1183
   21DOPE  C318 2706   2.702   0.867  14.420 -0.0884  0.2835  0.2068
   21DOPE  H18X 2707   2.681   0.764  14.458  1.7268  0.1423  0.9771
   21DOPE  H18Y 2708   2.606   0.918  14.399  0.2621  0.5272 -0.8598
   21DOPE  H18Z 2709   2.770   0.851  14.333 -1.0858  1.7569 -0.8724
   22DOPE     N 2710   7.169   6.334  16.287 -0.7482  0.1361  0.1913
   22DOPE   HN1 2711   7.079   6.296  16.322 -0.2767 -1.8172 -0.5762
   22DOPE   HN2 2712   7.229   6.250  16.271  0.4664  1.1066 -0.5412
   22DOPE   HN3 2713   7.216   6.402  16.349 -0.8316  0.0032  0.4005
   22DOPE   C12 2714   7.159   6.395  16.151  0.3951 -0.3817 -0.1940
   22DOPE  H12A 2715   7.189   6.310  16.086  2.8003 -0.1935  0.5660
   22DOPE  H12B 2716   7.244   6.465  16.132 -0.7170  1.0419 -0.0213
   22DOPE   C11 2717   7.016   6.450  16.127 -0.3950 -0.1410 -0.1821
   22DOPE  H11A 2718   7.011   6.491  16.024  1.6627 -0.8506 -0.6098
   22DOPE  H11B 2719   7.006   6.536  16.198  0.2708 -0.8678  0.8208
   22DOPE     P 2720   6.770   6.381  16.185  0.1655  0.0371  0.2265
   22DOPE   O13 2721   6.737   6.526  16.195  0.1638 -0.0372 -0.7759
   22DOPE   O14 2722   6.760   6.302  16.306  0.0596  0.1809 -0.3327
   22DOPE   O11 2723   6.692   6.316  16.063  0.0470 -0.0184  0.5646
   22DOPE   O12 2724   6.917   6.352  16.145  0.0800  0.1609 -0.1487
   22DOPE    C1 2725   6.694   6.171  16.060  0.1324 -0.1264 -0.0118
   22DOPE    HA 2726   6.629   6.122  16.136  1.8708 -1.4594  0.6779
   22DOPE    HB 2727   6.799   6.143  16.082  0.2863  1.2593  1.2515
   22DOPE    C2 2728   6.658   6.112  15.917  0.3862 -0.2173 -0.0943
   22DOPE    HS 2729   6.642   6.002  15.924  0.9647 -0.4389 -1.8065
   22DOPE   O21 2730   6.770   6.147  15.832  0.1048 -0.5456  0.8981
   22DOPE   C21 2731   6.871   6.055  15.834  0.2307  0.3715 -0.6494
   22DOPE   O22 2732   6.862   5.943  15.886 -0.3878  0.7195  0.3225
   22DOPE   C22 2733   7.004   6.110  15.801 -0.1901  0.3355  0.2287
   22DOPE   H2R 2734   7.085   6.077  15.869  2.5418  0.9420 -2.5416
   22DOPE   H2S 2735   6.993   6.221  15.807 -1.9784  0.4617 -2.9880
   22DOPE    C3 2736   6.534   6.184  15.869  1.4083 -0.0049  0.0746
   22DOPE    HX 2737   6.554   6.293  15.883  2.1999 -0.3080  1.5405
   22DOPE    HY 2738   6.455   6.147  15.938  0.8727  1.0150  0.0323
   22DOPE   O31 2739   6.505   6.152  15.730  0.3534  0.6309  0.0328
   22DOPE   C31 2740   6.516   6.253  15.639 -0.0407 -0.3763 -0.3565
   22DOPE   O32 2741   6.551   6.367  15.668  0.8016  0.2406 -0.4857
   22DOPE   C32 2742   6.524   6.194  15.497  0.0702  0.2159 -0.0113
   22DOPE   H2X 2743   6.603   6.115  15.494  1.0657  1.2102 -2.1734
   22DOPE   H2Y 2744   6.428   6.141  15.484 -0.6329  0.5685  3.0258
   22DOPE   C23 2745   7.050   6.067  15.660  0.0065 -0.4943 -0.0673
   22DOPE   H3R 2746   7.029   5.958  15.662 -1.7316 -0.2064 -1.2942
   22DOPE   H3S 2747   7.159   6.088  15.653  0.2971  0.4882  4.2867
   22DOPE   C24 2748   6.967   6.119  15.542 -0.3490  0.9179 -0.0627
   22DOPE   H4R 2749   6.858   6.111  15.561 -0.3508  0.9007 -0.0817
   22DOPE   H4S 2750   6.992   6.062  15.450  1.2806 -0.4914  1.1920
   22DOPE   C25 2751   6.996   6.268  15.522 -0.4655  0.2309  0.4288
   22DOPE   H5R 2752   7.105   6.286  15.517 -0.5727  0.6156 -3.6457
   22DOPE   H5S 2753   6.945   6.324  15.603  0.4266  0.5849  0.7518
   22DOPE   C26 2754   6.940   6.312  15.386  0.6307 -0.5272 -0.0083
   22DOPE   H6R 2755   6.830   6.298  15.385  0.6855 -1.6254  2.3057
   22DOPE   H6S 2756   6.986   6.248  15.307 -0.0427 -0.2741 -0.6158
   22DOPE   C27 2757   6.963   6.465  15.357 -0.3811  0.7981 -0.0624
   22DOPE   H7R 2758   7.069   6.484  15.381  0.4577 -1.0336 -1.9602
   22DOPE   H7S 2759   6.904   6.526  15.429 -1.4427  1.1805 -1.2170
   22DOPE   C28 2760   6.919   6.503  15.218 -0.1724  0.0703  0.6920
   22DOPE   H8R 2761   6.974   6.596  15.196  0.2804 -0.7138 -1.8963
   22DOPE   H8S 2762   6.808   6.513  15.220 -0.4896 -2.3589 -0.8338
   22DOPE   C29 2763   6.953   6.417  15.099  1.0320  0.7898 -0.6248
   22DOPE   H9R 2764   7.011   6.327  15.122 -1.0757 -0.3803  0.4687
   22DOPE  C210 2765   6.926   6.448  14.969 -0.8387  0.0821 -0.5713
   22DOPE  H10R 2766   6.952   6.366  14.901  1.0168  0.9854 -1.0186
   22DOPE  C211 2767   6.862   6.573  14.914 -0.1567  0.2228 -0.1942
   22DOPE  H11R 2768   6.868   6.658  14.985 -1.0483  0.0657  0.0842
   22DOPE  H11S 2769   6.757   6.550  14.884 -0.1579  0.7134 -0.5646
   22DOPE  C212 2770   6.928   6.629  14.792  0.1580 -0.6320 -0.0118
   22DOPE  H12R 2771   6.878   6.728  14.783 -0.4129 -0.9463 -0.3666
   22DOPE  H12S 2772   6.894   6.566  14.707 -1.7034  0.1430  0.1082
   22DOPE  C213 2773   7.078   6.644  14.801 -0.4466  0.1469 -0.6024
   22DOPE  H13R 2774   7.116   6.540  14.805 -1.3053 -0.1415  0.4685
   22DOPE  H13S 2775   7.094   6.697  14.897  1.4083  0.0695 -0.8328
   22DOPE  C214 2776   7.140   6.725  14.684 -0.2298  0.4471  0.0790
   22DOPE  H14R 2777   7.245   6.741  14.715 -0.5582  2.1698  0.4032
   22DOPE  H14S 2778   7.077   6.817  14.680  0.2913  0.8003 -0.1164
   22DOPE  C215 2779   7.125   6.656  14.545 -0.5341 -0.0671  0.3026
   22DOPE  H15R 2780   7.020   6.684  14.521 -0.8259  1.2417  2.7926
   22DOPE  H15S 2781   7.122   6.546  14.556 -0.4418 -0.0873  0.1272
   22DOPE  C216 2782   7.225   6.708  14.451 -0.1630 -0.3219  0.2982
   22DOPE  H16R 2783   7.330   6.696  14.487  0.3965 -0.8480 -1.4104
   22DOPE  H16S 2784   7.210   6.817  14.432 -1.8375 -0.6928 -0.6662
   22DOPE  C217 2785   7.227   6.632  14.317 -0.1546  0.7068  0.1712
   22DOPE  H17R 2786   7.124   6.628  14.275 -0.2652  1.9184  0.2911
   22DOPE  H17S 2787   7.257   6.527  14.339 -1.6627 -0.0509 -1.1362
   22DOPE  C218 2788   7.321   6.695  14.211 -0.1144  0.2210 -0.1746
   22DOPE  H18R 2789   7.428   6.696  14.241 -0.2787 -0.1494  0.4369
   22DOPE  H18S 2790   7.279   6.797  14.196 -0.9831  0.1824  1.6602
   22DOPE  H18T 2791   7.308   6.647  14.112  2.7541 -1.9894  0.4153
   22DOPE   C33 2792   6.535   6.297  15.387 -0.3002  0.5777  0.2030
   22DOPE   H3X 2793   6.622   6.364  15.403 -0.7935  1.2552  0.0910
   22DOPE   H3Y 2794   6.442   6.358  15.388  1.1230  2.9283 -1.3965
   22DOPE   C34 2795   6.538   6.236  15.243  0.4235  0.2441 -0.4938
   22DOPE   H4X 2796   6.623   6.166  15.226 -0.3302 -0.1524 -3.2582
   22DOPE   H4Y 2797   6.445   6.176  15.232 -0.7708  2.2976 -2.3954
   22DOPE   C35 2798   6.544   6.335  15.129  0.3142  0.1655 -0.5967
   22DOPE   H5X 2799   6.626   6.410  15.134  0.0492  0.4025  0.5268
   22DOPE   H5Y 2800   6.447   6.390  15.132  0.3850  0.2784  1.9532
   22DOPE   C36 2801   6.542   6.261  14.998 -0.0646  0.7176 -0.4578
   22DOPE   H6X 2802   6.460   6.190  15.022  0.6993  0.1320  0.5337
   22DOPE   H6Y 2803   6.641   6.210  14.996  0.3058  1.4252 -0.3942
   22DOPE   C37 2804   6.497   6.346  14.876  0.1214  0.4048  0.4011
   22DOPE   H7X 2805   6.479   6.449  14.915 -0.8545  1.7285 -3.1216
   22DOPE   H7Y 2806   6.565   6.353  14.789  1.3510  0.2077  1.3237
   22DOPE   C38 2807   6.362   6.297  14.820 -0.9188  0.1551  0.0735
   22DOPE   H8X 2808   6.329   6.369  14.742 -2.7335 -0.0388  0.6229
   22DOPE   H8Y 2809   6.283   6.293  14.899 -2.0629  2.7666 -0.8146
   22DOPE   C39 2810   6.390   6.155  14.766  0.0359 -0.2096  0.2010
   22DOPE   H9X 2811   6.467   6.093  14.816 -0.8547 -1.9037 -0.4279
   22DOPE  C310 2812   6.362   6.119  14.644  0.1283  0.2339 -0.5286
   22DOPE  H10X 2813   6.425   6.033  14.616 -1.3659 -0.1921 -2.8867
   22DOPE  C311 2814   6.280   6.185  14.534  0.1627  0.3681 -0.3078
   22DOPE  H11X 2815   6.224   6.107  14.478 -1.4646  0.6049  0.9209
   22DOPE  H11Y 2816   6.214   6.267  14.568  0.3094  0.8628 -1.2044
   22DOPE  C312 2817   6.373   6.252  14.431  0.3957 -0.6233  0.0627
   22DOPE  H12X 2818   6.436   6.175  14.380  1.5937  0.7324 -0.5810
   22DOPE  H12Y 2819   6.444   6.320  14.483 -0.5309 -0.1847  0.7650
   22DOPE  C313 2820   6.303   6.327  14.317 -0.7328  0.4166  0.1476
   22DOPE  H13X 2821   6.243   6.255  14.257  1.0354 -0.5365 -0.5798
   22DOPE  H13Y 2822   6.229   6.397  14.359 -0.5831  2.3358 -2.4991
   22DOPE  C314 2823   6.400   6.401  14.223 -0.0174 -0.0031  0.0557
   22DOPE  H14X 2824   6.483   6.433  14.289 -0.5349 -0.1968  0.8061
   22DOPE  H14Y 2825   6.354   6.496  14.188  1.1190 -0.6358 -3.6327
   22DOPE  C315 2826   6.455   6.312  14.112 -0.3943  0.4465 -0.4444
   22DOPE  H15X 2827   6.380   6.246  14.064  0.4775  0.2297 -1.5496
   22DOPE  H15Y 2828   6.528   6.241  14.156  1.0253  1.6994 -0.6800
   22DOPE  C316 2829   6.528   6.394  14.008 -0.7406  0.3703 -0.2780
   22DOPE  H16X 2830   6.582   6.317  13.948 -2.8265 -0.7742 -0.7921
   22DOPE  H16Y 2831   6.599   6.468  14.051 -2.0352  1.3188  0.2750
   22DOPE  C317 2832   6.433   6.469  13.918  0.9546 -0.3940  0.1980
   22DOPE  H17X 2833   6.358   6.393  13.886  0.6681  0.2171 -0.6186
   22DOPE  H17Y 2834   6.380   6.540  13.986  2.4112 -1.6904  2.8349
   22DOPE  C318 2835   6.497   6.527  13.797 -0.2870  0.3677  0.2081
   22DOPE  H18X 2836   6.587   6.589  13.818 -1.0226  1.1874  1.0478
   22DOPE  H18Y 2837   6.520   6.451  13.719  1.3775  0.0817  0.9337
   22DOPE  H18Z 2838   6.434   6.600  13.741  0.7525  0.4394 -0.9243
   23DOPE     N 2839   3.424   1.436  16.443  0.9103 -0.0882  0.1594
   23DOPE   HN1 2840   3.435   1.364  16.517 -1.8494  0.2382  0.9834
   23DOPE   HN2 2841   3.392   1.383  16.359  0.9045  1.5789 -0.9583
   23DOPE   HN3 2842   3.520   1.475  16.433 -0.0874  2.8160  0.8989
   23DOPE   C12 2843   3.317   1.529  16.477 -0.3647 -0.4472  0.2803
   23DOPE  H12A 2844   3.337   1.576  16.575 -2.0587 -0.8418  0.8544
   23DOPE  H12B 2845   3.224   1.469  16.488 -0.5374 -0.1087  0.7150
   23DOPE   C11 2846   3.287   1.625  16.360 -0.1428 -0.1164  0.5558
   23DOPE  H11A 2847   3.185   1.669  16.355  0.2930  1.0171  1.1194
   23DOPE  H11B 2848   3.297   1.572  16.263  1.2187  0.8655  0.1380
   23DOPE     P 2849   3.425   1.814  16.245 -0.2790  0.1279  1.0067
   23DOPE   O13 2850   3.550   1.768  16.179  0.1676  0.4112  0.0802
   23DOPE   O14 2851   3.434   1.955  16.289  0.5233  0.1920  0.0904
   23DOPE   O11 2852   3.302   1.793  16.153  0.3508 -0.3878 -0.2869
   23DOPE   O12 2853   3.391   1.718  16.365  0.4205 -0.0031 -0.1334
   23DOPE    C1 2854   3.306   1.718  16.035  0.4743 -0.2139  0.0830
   23DOPE    HA 2855   3.202   1.686  16.011  0.2798 -0.8041  1.6452
   23DOPE    HB 2856   3.360   1.622  16.045 -1.2462 -1.2598 -0.2450
   23DOPE    C2 2857   3.357   1.804  15.915  0.0352 -0.8084 -0.8186
   23DOPE    HS 2858   3.456   1.830  15.959 -0.7725 -1.8056  1.7478
   23DOPE   O21 2859   3.264   1.917  15.895 -0.7119 -0.1384  0.4711
   23DOPE   C21 2860   3.321   2.024  15.859 -0.3923 -0.0724 -0.4368
   23DOPE   O22 2861   3.444   2.047  15.864  0.6433  0.3954  0.5164
   23DOPE   C22 2862   3.219   2.108  15.785 -0.4157 -0.1513  0.4772
   23DOPE   H2R 2863   3.143   2.130  15.863  0.8561  2.5801  1.0736
   23DOPE   H2S 2864   3.169   2.060  15.698 -1.0315  0.6968  0.3540
   23DOPE    C3 2865   3.361   1.720  15.784  0.4764 -0.0353 -0.0972
   23DOPE    HX 2866   3.259   1.680  15.765 -0.0465  0.9893  0.4577
   23DOPE    HY 2867   3.420   1.628  15.806 -0.3293 -1.0831 -2.0538
   23DOPE   O31 2868   3.407   1.795  15.673 -0.1709 -0.0111 -0.1355
   23DOPE   C31 2869   3.535   1.810  15.663 -0.2503 -0.1439  0.6206
   23DOPE   O32 2870   3.613   1.764  15.745  0.1893 -0.1265 -0.1815
   23DOPE   C32 2871   3.574   1.887  15.533 -0.2247 -0.0082  0.4946
   23DOPE   H2X 2872   3.507   1.858  15.449  0.4444  0.7583 -0.3297
   23DOPE   H2Y 2873   3.548   1.991  15.560 -1.2109  0.1011 -0.7672
   23DOPE   C23 2874   3.284   2.236  15.730  0.3577  1.0209 -0.4442
   23DOPE   H3R 2875   3.345   2.206  15.642 -3.8824 -2.6685 -2.5755
   23DOPE   H3S 2876   3.352   2.276  15.807  2.4772 -1.7147 -0.7644
   23DOPE   C24 2877   3.179   2.338  15.686  0.3017 -0.4627  0.1690
   23DOPE   H4R 2878   3.121   2.364  15.776  0.5721  2.0991 -0.3216
   23DOPE   H4S 2879   3.108   2.294  15.612 -0.7751  1.7258 -0.1685
   23DOPE   C25 2880   3.240   2.463  15.621 -0.4083  1.0485  0.2806
   23DOPE   H5R 2881   3.268   2.441  15.516 -1.7107  0.3527  0.0581
   23DOPE   H5S 2882   3.330   2.504  15.672  2.4067 -3.2732 -0.5831
   23DOPE   C26 2883   3.140   2.572  15.605 -0.1509 -0.4640  0.1442
   23DOPE   H6R 2884   3.107   2.610  15.704  2.5888 -0.9689  1.3472
   23DOPE   H6S 2885   3.053   2.534  15.548  0.8033 -0.3207 -1.4818
   23DOPE   C27 2886   3.196   2.693  15.530  0.1566 -0.8328  0.4072
   23DOPE   H7R 2887   3.271   2.673  15.450  0.8485 -0.4765  0.9585
   23DOPE   H7S 2888   3.243   2.768  15.597 -1.2572  0.4414  0.0279
   23DOPE   C28 2889   3.090   2.779  15.454  0.2102 -0.3769 -0.2089
   23DOPE   H8R 2890   3.017   2.819  15.528  1.9848  3.2788 -0.1674
   23DOPE   H8S 2891   3.041   2.709  15.384 -0.5039  0.4265 -0.5315
   23DOPE   C29 2892   3.150   2.905  15.390  0.4584  0.3112 -0.0974
   23DOPE   H9R 2893   3.171   2.979  15.469  1.4423 -1.3096  1.2333
   23DOPE  C210 2894   3.167   2.940  15.258  0.0421 -0.6514  0.5432
   23DOPE  H10R 2895   3.215   3.039  15.251 -0.2449 -0.4522  1.3392
   23DOPE  C211 2896   3.129   2.848  15.133 -0.5458 -0.0702  0.3797
   23DOPE  H11R 2897   3.035   2.876  15.081 -0.4927 -0.8276 -0.1375
   23DOPE  H11S 2898   3.108   2.745  15.169 -0.4762 -0.2235 -0.0056
   23DOPE  C212 2899   3.241   2.832  15.027 -0.5745 -0.4194  0.3346
   23DOPE  H12R 2900   3.343   2.832  15.072  0.0506  0.6516 -1.0243
   23DOPE  H12S 2901   3.250   2.924  14.965 -0.3512 -1.0029 -0.5105
   23DOPE  C213 2902   3.213   2.712  14.931 -0.3331  0.1465  0.4536
   23DOPE  H13R 2903   3.301   2.715  14.863 -0.1143 -1.6100  0.5945
   23DOPE  H13S 2904   3.120   2.727  14.872  1.2208 -1.9533 -2.8134
   23DOPE  C214 2905   3.218   2.568  14.987  0.2211 -0.9697  0.2498
   23DOPE  H14R 2906   3.244   2.506  14.899 -1.8639 -1.0842 -0.3459
   23DOPE  H14S 2907   3.123   2.524  15.024  0.0379 -1.1956 -0.4763
   23DOPE  C215 2908   3.336   2.556  15.091 -0.3986  0.2640  0.9147
   23DOPE  H15R 2909   3.322   2.620  15.180 -0.6700  1.1084  0.2694
   23DOPE  H15S 2910   3.421   2.594  15.030  0.7680 -2.2958  0.7954
   23DOPE  C216 2911   3.352   2.411  15.149  0.5882  0.2791  0.8957
   23DOPE  H16R 2912   3.338   2.349  15.058 -1.4857  0.3883  1.0904
   23DOPE  H16S 2913   3.277   2.390  15.228  0.7763 -3.3705  0.2815
   23DOPE  C217 2914   3.491   2.393  15.208 -0.0300 -0.1725 -0.5072
   23DOPE  H17R 2915   3.562   2.377  15.124 -1.4631  0.4044 -1.8840
   23DOPE  H17S 2916   3.481   2.295  15.258 -2.7255 -1.5353 -3.3861
   23DOPE  C218 2917   3.540   2.500  15.304 -0.3559  0.4466 -0.1645
   23DOPE  H18R 2918   3.623   2.467  15.371 -1.4321 -0.7196  0.6498
   23DOPE  H18S 2919   3.456   2.515  15.375 -0.9390 -0.7142 -0.5808
   23DOPE  H18T 2920   3.582   2.590  15.254  3.9646 -0.2135  1.7499
   23DOPE   C33 2921   3.728   1.883  15.495  0.2473  0.0546 -0.5569
   23DOPE   H3X 2922   3.753   1.786  15.447  0.4549  0.1245 -0.5894
   23DOPE   H3Y 2923   3.784   1.896  15.590  0.8717 -1.5793 -0.6698
   23DOPE   C34 2924   3.780   1.988  15.401  0.0525  0.0866 -0.0037
   23DOPE   H4X 2925   3.772   2.090  15.443 -2.0544  0.5105 -1.2851
   23DOPE   H4Y 2926   3.885   1.959  15.379 -0.0685  1.1007 -2.1237
   23DOPE   C35 2927   3.691   2.000  15.274  0.3719  0.4901 -0.0874
   23DOPE   H5X 2928   3.610   2.072  15.300 -0.1648 -0.4587  0.9000
   23DOPE   H5Y 2929   3.644   1.903  15.247  0.6183 -0.0850  1.4888
   23DOPE   C36 2930   3.765   2.055  15.155  0.0150 -0.3364 -0.5016
   23DOPE   H6X 2931   3.831   1.972  15.122 -2.2609 -2.5932  0.2848
   23DOPE   H6Y 2932   3.825   2.138  15.198 -0.5935 -0.7015  1.1149
   23DOPE   C37 2933   3.685   2.101  15.043 -0.1114  0.2527  0.5714
   23DOPE   H7X 2934   3.636   2.021  14.984 -1.6466  1.0745  0.6686
   23DOPE   H7Y 2935   3.597   2.149  15.091  0.0547  0.8301  0.3124
   23DOPE   C38 2936   3.765   2.191  14.942 -0.1501 -0.0637 -1.5800
   23DOPE   H8X 2937   3.854   2.133  14.910 -0.9212 -2.9329  1.0562
   23DOPE   H8Y 2938   3.793   2.280  15.002 -0.6799 -0.5456 -0.5931
   23DOPE   C39 2939   3.682   2.244  14.831 -0.2008 -0.7056  0.2760
   23DOPE   H9X 2940   3.591   2.300  14.861  2.1750  3.8307 -0.0229
   23DOPE  C310 2941   3.708   2.245  14.698  1.0121 -0.5773  0.0775
   23DOPE  H10X 2942   3.632   2.285  14.630 -0.0211  1.2031  2.1689
   23DOPE  C311 2943   3.828   2.190  14.621  0.0910  0.0838  0.2058
   23DOPE  H11X 2944   3.847   2.260  14.536 -1.3403 -0.7202 -0.8207
   23DOPE  H11Y 2945   3.915   2.183  14.689 -1.0283 -0.3145  1.6320
   23DOPE  C312 2946   3.815   2.041  14.577 -0.3994 -0.1360 -0.5320
   23DOPE  H12X 2947   3.772   1.983  14.662 -1.9294 -0.2531 -1.3400
   23DOPE  H12Y 2948   3.920   2.015  14.555 -0.3040  0.1224 -0.3905
   23DOPE  C313 2949   3.739   2.024  14.443 -0.2606 -0.0033  0.0334
   23DOPE  H13X 2950   3.643   2.080  14.448 -0.2883  0.0469 -1.0064
   23DOPE  H13Y 2951   3.810   2.075  14.375  0.6488  1.9412  2.2645
   23DOPE  C314 2952   3.705   1.880  14.390 -0.6689  0.4743 -0.4896
   23DOPE  H14X 2953   3.679   1.878  14.282  1.3543  0.0027 -1.0152
   23DOPE  H14Y 2954   3.634   1.831  14.460  0.0665  0.9335  0.6089
   23DOPE  C315 2955   3.838   1.796  14.411 -0.8606  0.2565 -0.1059
   23DOPE  H15X 2956   3.882   1.819  14.510 -1.0300  0.8190 -0.1562
   23DOPE  H15Y 2957   3.917   1.820  14.338  0.9610 -0.8258  1.4039
   23DOPE  C316 2958   3.830   1.642  14.404 -0.0577  0.3321 -0.4939
   23DOPE  H16X 2959   3.776   1.619  14.498  0.9343  3.1260  0.8565
   23DOPE  H16Y 2960   3.931   1.595  14.402 -0.0218  0.4148 -1.9869
   23DOPE  C317 2961   3.756   1.600  14.281  0.8268 -0.2894 -0.6304
   23DOPE  H17X 2962   3.656   1.648  14.285  0.5636 -0.9077  2.1997
   23DOPE  H17Y 2963   3.809   1.640  14.192  0.2922 -0.1853 -0.9063
   23DOPE  C318 2964   3.761   1.449  14.268  0.0533 -0.7362 -0.3748
   23DOPE  H18X 2965   3.721   1.423  14.167  1.4463  0.5171 -1.2960
   23DOPE  H18Y 2966   3.867   1.417  14.258 -0.5221 -2.4609 -1.4876
   23DOPE  H18Z 2967   3.711   1.406  14.357 -2.5803  1.0398 -0.8803
   24DOPE     N 2968   6.308   7.072  16.278  0.6709  0.1414  0.2433
   24DOPE   HN1 2969   6.273   7.003  16.209  0.7926 -0.1380  0.4529
   24DOPE   HN2 2970   6.322   7.167  16.239  1.7383 -0.1659 -0.1728
   24DOPE   HN3 2971   6.399   7.038  16.317  1.2589  0.7378 -0.5943
   24DOPE   C12 2972   6.225   7.085  16.407 -0.7605 -0.0890 -0.0377
   24DOPE  H12A 2973   6.293   7.133  16.480  1.8540 -0.9671 -1.7495
   24DOPE  H12B 2974   6.201   6.983  16.446  0.6510 -0.4937 -0.1847
   24DOPE   C11 2975   6.117   7.184  16.381  0.3134  0.3262 -0.9352
   24DOPE  H11A 2976   6.068   7.196  16.481  2.3062 -1.2898  0.3233
   24DOPE  H11B 2977   6.046   7.137  16.310 -2.8886 -0.3128  2.3856
   24DOPE     P 2978   6.068   7.410  16.273 -0.0964  0.0327 -0.0040
   24DOPE   O13 2979   6.129   7.525  16.208 -1.0723  0.8591  0.4613
   24DOPE   O14 2980   5.956   7.433  16.369 -0.3511  0.3828  0.6486
   24DOPE   O11 2981   6.027   7.315  16.148  0.4080  0.6870  0.1311
   24DOPE   O12 2982   6.174   7.310  16.343 -0.2846 -0.2872  0.6737
   24DOPE    C1 2983   6.106   7.285  16.032 -0.3589  0.5156  0.0151
   24DOPE    HA 2984   6.170   7.198  16.056  1.7303  2.5408  2.4508
   24DOPE    HB 2985   6.167   7.375  16.009  0.2461  0.1277  0.0793
   24DOPE    C2 2986   6.012   7.256  15.908 -1.0007 -0.3395  0.3152
   24DOPE    HS 2987   6.004   7.147  15.890  0.6397 -0.0759 -2.6310
   24DOPE   O21 2988   6.064   7.325  15.792  0.1329 -0.1239  0.4095
   24DOPE   C21 2989   6.189   7.286  15.742 -0.1220  0.4074  0.5319
   24DOPE   O22 2990   6.253   7.191  15.784  0.5101  0.0525 -0.8969
   24DOPE   C22 2991   6.224   7.360  15.617 -0.3423 -0.5897 -0.0100
   24DOPE   H2R 2992   6.309   7.301  15.577  0.1551  0.2851 -0.2662
   24DOPE   H2S 2993   6.266   7.457  15.653 -3.1071  0.2644  1.2185
   24DOPE    C3 2994   5.866   7.302  15.924 -0.0947  0.2947  0.7660
   24DOPE    HX 2995   5.861   7.407  15.958  1.5133  0.8453 -0.5215
   24DOPE    HY 2996   5.813   7.235  15.994 -2.1876  1.6881  0.6117
   24DOPE   O31 2997   5.794   7.284  15.795 -0.2378 -0.7478 -0.0279
   24DOPE   C31 2998   5.737   7.394  15.732 -0.9192 -0.4823 -0.9581
   24DOPE   O32 2999   5.743   7.508  15.782 -0.6146 -0.2499 -0.2694
   24DOPE   C32 3000   5.651   7.363  15.614 -0.0141  0.2796  0.8021
   24DOPE   H2X 3001   5.572   7.289  15.641 -1.3401  0.3621 -2.4188
   24DOPE   H2Y 3002   5.597   7.458  15.594  0.9310  0.5325 -0.6824
   24DOPE   C23 3003   6.117   7.388  15.510 -0.0597 -0.5568  0.1892
   24DOPE   H3R 3004   6.170   7.446  15.432  0.9755 -3.8324 -1.7272
   24DOPE   H3S 3005   6.044   7.459  15.555 -0.2119 -0.3019 -0.4611
   24DOPE   C24 3006   6.059   7.266  15.443  0.1337 -0.6157  0.4271
   24DOPE   H4R 3007   5.987   7.299  15.365  1.0224 -0.3041 -0.2867
   24DOPE   H4S 3008   6.008   7.203  15.519  1.5318  0.3083  2.1952
   24DOPE   C25 3009   6.175   7.197  15.363  0.0612 -0.0177 -0.0507
   24DOPE   H5R 3010   6.244   7.152  15.437  1.4485  0.3732 -1.0638
   24DOPE   H5S 3011   6.236   7.268  15.303  1.3079 -1.5299 -0.6334
   24DOPE   C26 3012   6.114   7.095  15.264  1.2357  0.2409 -0.0223
   24DOPE   H6R 3013   6.195   7.034  15.221  0.8873  0.2815 -0.7576
   24DOPE   H6S 3014   6.049   7.147  15.190  1.6304 -0.6970 -1.0617
   24DOPE   C27 3015   6.026   7.003  15.345  0.6844 -0.2038  0.1265
   24DOPE   H7R 3016   5.926   7.047  15.364  1.5586  2.1600 -0.4505
   24DOPE   H7S 3017   6.069   6.985  15.446 -1.4565 -2.9696  0.6709
   24DOPE   C28 3018   6.002   6.861  15.284 -0.3346 -0.3251  0.2690
   24DOPE   H8R 3019   6.103   6.817  15.293 -0.4586 -0.4682  1.0694
   24DOPE   H8S 3020   5.988   6.885  15.177 -0.8979  1.3785  0.6905
   24DOPE   C29 3021   5.911   6.768  15.356 -0.1478  0.2209 -0.6843
   24DOPE   H9R 3022   5.942   6.737  15.457  2.2921  3.3019 -0.3292
   24DOPE  C210 3023   5.801   6.717  15.306  0.6515 -0.5583 -0.2717
   24DOPE  H10R 3024   5.751   6.638  15.363 -1.1138  0.1209 -0.8236
   24DOPE  C211 3025   5.740   6.734  15.168  0.3551 -0.4466  0.3934
   24DOPE  H11R 3026   5.663   6.659  15.141 -0.5874  0.3672  0.7472
   24DOPE  H11S 3027   5.822   6.747  15.094 -0.8757  0.0647 -0.9400
   24DOPE  C212 3028   5.657   6.864  15.175  0.8386 -0.6027  0.0203
   24DOPE  H12R 3029   5.735   6.943  15.175 -0.0533  0.3209  1.1711
   24DOPE  H12S 3030   5.598   6.862  15.270 -1.3184 -0.8738 -1.2630
   24DOPE  C213 3031   5.564   6.892  15.047 -0.1150 -0.7602 -0.5705
   24DOPE  H13R 3032   5.523   6.992  15.070  0.2220 -0.4357 -1.3748
   24DOPE  H13S 3033   5.475   6.825  15.040 -0.3513 -0.2698 -3.8304
   24DOPE  C214 3034   5.633   6.878  14.907  0.2895  0.6148  0.5977
   24DOPE  H14R 3035   5.555   6.886  14.828 -0.2351 -0.5498  0.9723
   24DOPE  H14S 3036   5.687   6.782  14.896  0.7208  1.0006 -0.9072
   24DOPE  C215 3037   5.724   6.994  14.877  0.2485 -0.1861  0.5756
   24DOPE  H15R 3038   5.803   6.995  14.954 -0.4003  1.2609  1.2785
   24DOPE  H15S 3039   5.662   7.086  14.887  0.2700 -0.1762  0.6202
   24DOPE  C216 3040   5.776   6.965  14.738 -0.3219  0.6437  0.6608
   24DOPE  H16R 3041   5.699   6.918  14.673  1.3552 -1.1452 -0.1301
   24DOPE  H16S 3042   5.859   6.891  14.748 -1.1585 -0.3253  0.6019
   24DOPE  C217 3043   5.821   7.092  14.671  0.5348 -0.6496  0.3380
   24DOPE  H17R 3044   5.909   7.131  14.725  2.1057 -1.5111 -1.4986
   24DOPE  H17S 3045   5.736   7.164  14.680  0.8213 -0.1991 -0.4631
   24DOPE  C218 3046   5.859   7.075  14.521  0.1726  0.3610  0.2511
   24DOPE  H18R 3047   5.890   7.166  14.465  2.5089 -1.1231 -1.0636
   24DOPE  H18S 3048   5.781   7.018  14.465  0.6737  0.0976 -0.1947
   24DOPE  H18T 3049   5.946   7.005  14.525  0.2123  0.4635  1.6361
   24DOPE   C33 3050   5.723   7.327  15.486  1.0039  0.3873  0.4409
   24DOPE   H3X 3051   5.759   7.223  15.499  0.1982 -0.0976 -0.9527
   24DOPE   H3Y 3052   5.797   7.407  15.466 -1.5143  2.5385 -1.0094
   24DOPE   C34 3053   5.625   7.330  15.359  0.5505  0.1091  0.8554
   24DOPE   H4X 3054   5.530   7.276  15.380  0.6445 -0.1873  0.5270
   24DOPE   H4Y 3055   5.613   7.436  15.329 -0.2671  0.1962  1.4484
   24DOPE   C35 3056   5.686   7.241  15.248  0.4679 -0.3417  0.4842
   24DOPE   H5X 3057   5.684   7.131  15.264 -0.0926 -0.2371  1.2115
   24DOPE   H5Y 3058   5.795   7.264  15.244  0.2411  0.5614 -0.9217
   24DOPE   C36 3059   5.631   7.279  15.113 -0.0337  0.1051  0.7905
   24DOPE   H6X 3060   5.684   7.212  15.041 -1.8255  0.7503 -1.2617
   24DOPE   H6Y 3061   5.659   7.386  15.107  0.3768  0.0146  1.0259
   24DOPE   C37 3062   5.481   7.277  15.112  0.3275  0.4605  0.7094
   24DOPE   H7X 3063   5.436   7.183  15.148 -3.2697  1.4409 -0.7694
   24DOPE   H7Y 3064   5.431   7.343  15.187  1.1575  0.2830  1.4464
   24DOPE   C38 3065   5.426   7.278  14.971  0.8384  0.2109  0.9357
   24DOPE   H8X 3066   5.449   7.181  14.923 -1.1137  0.3270 -0.3535
   24DOPE   H8Y 3067   5.480   7.355  14.914  2.3035  0.2998  2.3610
   24DOPE   C39 3068   5.272   7.299  14.959  0.4303  0.6347 -0.6696
   24DOPE   H9X 3069   5.245   7.405  14.950 -0.6094  0.5081  0.7566
   24DOPE  C310 3070   5.171   7.208  14.965 -0.8692  0.1016 -0.7047
   24DOPE  H10X 3071   5.070   7.250  14.957 -1.0279 -0.5221 -2.1994
   24DOPE  C311 3072   5.180   7.059  15.004  0.4410 -0.4753  0.8773
   24DOPE  H11X 3073   5.150   7.010  14.908  0.8521  1.0788 -0.0856
   24DOPE  H11Y 3074   5.287   7.030  15.010  0.5467 -0.6618 -1.1949
   24DOPE  C312 3075   5.096   7.003  15.117  0.8675 -0.2768 -0.1169
   24DOPE  H12X 3076   5.112   7.055  15.214 -0.2045 -0.6830  0.2982
   24DOPE  H12Y 3077   5.135   6.900  15.128  1.5309 -0.1226 -0.9434
   24DOPE  C313 3078   4.948   6.994  15.093 -0.3061  0.2523  0.7945
   24DOPE  H13X 3079   4.905   7.095  15.077  0.2209  0.3470 -0.0678
   24DOPE  H13Y 3080   4.919   6.925  15.011 -0.1803  0.0450  0.9211
   24DOPE  C314 3081   4.880   6.948  15.223  0.2098 -0.3564  0.2992
   24DOPE  H14X 3082   4.882   7.017  15.310  1.4090 -0.3965  0.3173
   24DOPE  H14Y 3083   4.927   6.856  15.265 -0.2145  0.7470  3.4551
   24DOPE  C315 3084   4.733   6.915  15.200  0.1784 -0.6685  0.3085
   24DOPE  H15X 3085   4.735   6.844  15.115  0.8756  2.9967 -3.0477
   24DOPE  H15Y 3086   4.672   7.002  15.169  0.4031 -1.4908 -2.8386
   24DOPE  C316 3087   4.663   6.857  15.327  0.0626 -0.0558 -0.0763
   24DOPE  H16X 3088   4.692   6.914  15.418  0.7538 -0.0433 -0.3043
   24DOPE  H16Y 3089   4.705   6.757  15.351  0.0394 -0.2600 -0.8464
   24DOPE  C317 3090   4.510   6.837  15.306 -0.2364 -0.1465 -0.0053
   24DOPE  H17X 3091   4.486   6.938  15.267  0.9820 -0.0303 -0.4807
   24DOPE  H17Y 3092   4.492   6.763  15.225 -1.9097 -1.2452  1.2835
   24DOPE  C318 3093   4.438   6.810  15.439  0.2027 -0.6845 -0.0137
   24DOPE  H18X 3094   4.469   6.725  15.503  0.2827 -1.0675 -0.5524
   24DOPE  H18Y 3095   4.450   6.902  15.501  2.9510 -0.7419 -0.3502
   24DOPE  H18Z 3096   4.329   6.800  15.418  0.0076 -0.0736  0.6489
   25DOPE     N 3097   6.167   0.004  15.986 -0.2534  0.2246 -0.4601
   25DOPE   HN1 3098   6.172  -0.055  16.072 -3.6953  0.2163 -0.1186
   25DOPE   HN2 3099   6.243  -0.029  15.923  0.9395 -0.9491  1.4608
   25DOPE   HN3 3100   6.197   0.097  16.020 -0.2541 -0.1518  0.6211
   25DOPE   C12 3101   6.029  -0.015  15.932 -0.3525  0.0976 -0.6915
   25DOPE  H12A 3102   5.970  -0.083  15.997 -0.1181  0.5117 -0.0343
   25DOPE  H12B 3103   6.049  -0.061  15.833  1.0898 -2.2244  0.5766
   25DOPE   C11 3104   5.962   0.126  15.929 -0.1770 -0.7341 -0.7694
   25DOPE  H11A 3105   5.961   0.162  16.035 -2.1173 -1.3333 -0.5368
   25DOPE  H11B 3106   5.856   0.114  15.897 -1.6730 -0.4412  3.3714
   25DOPE     P 3107   6.141   0.317  15.885 -0.1696 -0.0378 -0.1696
   25DOPE   O13 3108   6.231   0.261  15.992  0.2875 -0.0875  0.7982
   25DOPE   O14 3109   6.080   0.445  15.916 -0.0100  0.0988 -0.1591
   25DOPE   O11 3110   6.235   0.337  15.754 -0.6665  0.1898  0.1165
   25DOPE   O12 3111   6.032   0.211  15.829 -0.2270  0.3604  0.0756
   25DOPE    C1 3112   6.189   0.337  15.617 -0.6764  0.3346 -0.0353
   25DOPE    HA 3113   6.250   0.417  15.569  1.8558 -1.9201 -0.8051
   25DOPE    HB 3114   6.082   0.358  15.596 -1.0322  0.0690  1.4022
   25DOPE    C2 3115   6.230   0.208  15.538 -0.4841 -0.1626 -0.2018
   25DOPE    HS 3116   6.238   0.233  15.430  3.5017  1.7043  0.3250
   25DOPE   O21 3117   6.126   0.109  15.563 -0.3120  0.0968 -0.4514
   25DOPE   C21 3118   6.018   0.131  15.494 -0.4110  0.0538  0.4967
   25DOPE   O22 3119   5.999   0.230  15.421  0.0222 -0.0773 -0.4938
   25DOPE   C22 3120   5.916   0.027  15.509  0.4794  0.2887 -0.3187
   25DOPE   H2R 3121   5.906   0.014  15.619  0.2826  0.1436 -0.3535
   25DOPE   H2S 3122   5.951  -0.069  15.466 -0.0702 -0.7654  1.4646
   25DOPE    C3 3123   6.368   0.151  15.578 -0.2213 -0.3005 -0.2788
   25DOPE    HX 3124   6.360   0.120  15.684 -0.7902 -2.0744 -0.8127
   25DOPE    HY 3125   6.449   0.227  15.570 -0.3826 -0.3094 -2.4665
   25DOPE   O31 3126   6.403   0.038  15.497  0.6692 -0.6592 -0.0282
   25DOPE   C31 3127   6.521  -0.014  15.522  0.1147 -0.5738  0.3245
   25DOPE   O32 3128   6.594   0.010  15.614 -0.1608 -0.7464 -0.8492
   25DOPE   C32 3129   6.559  -0.104  15.405 -0.1521  0.6736  0.1281
   25DOPE   H2X 3130   6.601  -0.040  15.325 -0.7141  0.8801 -0.0076
   25DOPE   H2Y 3131   6.632  -0.182  15.434  1.3125  1.7404 -0.5920
   25DOPE   C23 3132   5.776   0.063  15.448 -0.6241  0.0558  0.7545
   25DOPE   H3R 3133   5.741   0.159  15.491  1.6250  1.6986 -0.8255
   25DOPE   H3S 3134   5.702  -0.016  15.472 -0.4761 -0.9335 -1.6989
   25DOPE   C24 3135   5.765   0.071  15.298 -0.2816  0.0069  0.4289
   25DOPE   H4R 3136   5.816  -0.016  15.251 -1.5649 -0.1915 -0.6489
   25DOPE   H4S 3137   5.811   0.162  15.256  2.1053 -2.2177 -2.2025
   25DOPE   C25 3138   5.621   0.071  15.236 -0.0036 -0.3126  0.5305
   25DOPE   H5R 3139   5.576   0.169  15.260  0.3745 -0.6634  2.8507
   25DOPE   H5S 3140   5.558  -0.009  15.280 -1.0991  0.9739  1.3871
   25DOPE   C26 3141   5.617   0.049  15.081  0.3630  0.4173  0.0481
   25DOPE   H6R 3142   5.671  -0.046  15.063  0.6534  0.3111  1.3819
   25DOPE   H6S 3143   5.675   0.125  15.024 -1.1125  0.2523 -1.7747
   25DOPE   C27 3144   5.473   0.040  15.026 -0.1601 -0.8908  0.2404
   25DOPE   H7R 3145   5.402   0.116  15.067  0.2464  1.5698 -3.1115
   25DOPE   H7S 3146   5.430  -0.058  15.053 -1.0628 -0.4364  0.5064
   25DOPE   C28 3147   5.469   0.057  14.870 -0.3154  0.3634  0.3436
   25DOPE   H8R 3148   5.521  -0.028  14.820 -0.6343  0.5448 -0.3120
   25DOPE   H8S 3149   5.533   0.145  14.850 -2.3171  1.8018 -0.0313
   25DOPE   C29 3150   5.336   0.076  14.808  1.5480 -0.4586 -0.0440
   25DOPE   H9R 3151   5.249   0.090  14.873  2.5692  1.8676  0.9541
   25DOPE  C210 3152   5.314   0.094  14.679  0.1554  0.0498 -0.3991
   25DOPE  H10R 3153   5.211   0.105  14.640  0.7555  1.4279 -1.7487
   25DOPE  C211 3154   5.415   0.090  14.563 -0.6322 -1.1434 -0.4768
   25DOPE  H11R 3155   5.523   0.097  14.589 -0.5486  0.3919 -1.1630
   25DOPE  H11S 3156   5.389   0.176  14.498  1.1636  0.6845  1.0819
   25DOPE  C212 3157   5.399  -0.041  14.477 -0.0344 -0.2282  0.0022
   25DOPE  H12R 3158   5.474  -0.045  14.396 -0.3653  1.8518 -0.4639
   25DOPE  H12S 3159   5.301  -0.052  14.427  1.4309 -2.3519 -2.6641
   25DOPE  C213 3160   5.406  -0.174  14.557 -0.2204 -0.0330 -0.1026
   25DOPE  H13R 3161   5.341  -0.173  14.647  0.8267  2.0554  0.6881
   25DOPE  H13S 3162   5.504  -0.187  14.606  0.5265 -0.1535 -1.5747
   25DOPE  C214 3163   5.361  -0.299  14.476 -0.0918 -0.4594  0.2888
   25DOPE  H14R 3164   5.391  -0.283  14.370  0.5997 -0.1584  0.5252
   25DOPE  H14S 3165   5.252  -0.319  14.476 -0.4035  1.1303  0.9500
   25DOPE  C215 3166   5.414  -0.422  14.544 -0.4124 -0.5303  0.6664
   25DOPE  H15R 3167   5.445  -0.413  14.650  0.1276 -2.4755  0.7071
   25DOPE  H15S 3168   5.494  -0.463  14.478 -2.8821  1.2715 -3.9556
   25DOPE  C216 3169   5.313  -0.541  14.555 -0.0970 -0.6971 -0.4051
   25DOPE  H16R 3170   5.258  -0.566  14.462 -0.8452 -0.9702  0.1050
   25DOPE  H16S 3171   5.244  -0.518  14.639  1.7136 -3.2364  1.9411
   25DOPE  C217 3172   5.382  -0.669  14.595 -0.2081 -0.4593  0.2340
   25DOPE  H17R 3173   5.443  -0.649  14.686  0.2446 -0.1321 -0.1339
   25DOPE  H17S 3174   5.451  -0.698  14.513 -0.9083  0.4967 -0.7142
   25DOPE  C218 3175   5.284  -0.780  14.628  0.1427  0.0300 -0.3867
   25DOPE  H18R 3176   5.222  -0.760  14.719 -1.1746  2.4316 -1.7163
   25DOPE  H18S 3177   5.347  -0.870  14.639 -0.6919 -0.5863 -0.5633
   25DOPE  H18T 3178   5.215  -0.801  14.544 -1.5789 -0.3866  1.0563
   25DOPE   C33 3179   6.435  -0.179  15.346 -0.0423 -0.1528 -0.4215
   25DOPE   H3X 3180   6.346  -0.114  15.334 -1.4245 -1.7976  0.5177
   25DOPE   H3Y 3181   6.396  -0.255  15.416 -2.4141  1.4231  0.0957
   25DOPE   C34 3182   6.486  -0.246  15.220 -0.7154  0.0715  0.4766
   25DOPE   H4X 3183   6.589  -0.286  15.234 -0.3306  0.9760  0.3091
   25DOPE   H4Y 3184   6.421  -0.331  15.192 -1.0190 -0.0643  1.5555
   25DOPE   C35 3185   6.507  -0.144  15.099  0.4483 -0.0312 -0.1403
   25DOPE   H5X 3186   6.579  -0.068  15.137  2.8574 -1.9080 -0.7379
   25DOPE   H5Y 3187   6.408  -0.096  15.080  0.7165  0.8310  0.5579
   25DOPE   C36 3188   6.576  -0.213  14.985  0.1103  0.5676 -0.8106
   25DOPE   H6X 3189   6.518  -0.306  14.968  1.5174 -0.8796  1.7623
   25DOPE   H6Y 3190   6.672  -0.260  15.016 -0.9470 -1.1606 -0.0408
   25DOPE   C37 3191   6.586  -0.131  14.857 -0.0578 -0.8784  0.2762
   25DOPE   H7X 3192   6.652  -0.045  14.883 -1.8851  0.2107  1.5365
   25DOPE   H7Y 3193   6.636  -0.189  14.776  0.3069  0.4714 -0.5044
   25DOPE   C38 3194   6.457  -0.079  14.796  0.3294 -0.0087  0.1134
   25DOPE   H8X 3195   6.504  -0.045  14.702  0.2899  0.1992  0.1669
   25DOPE   H8Y 3196   6.424   0.017  14.841 -4.9970 -1.9154  1.1140
   25DOPE   C39 3197   6.341  -0.172  14.768 -0.4646  0.4627 -0.4860
   25DOPE   H9X 3198   6.294  -0.219  14.855  2.2785  0.3599  1.0431
   25DOPE  C310 3199   6.299  -0.227  14.654 -0.6807  0.0168 -0.4461
   25DOPE  H10X 3200   6.225  -0.309  14.659 -0.6897 -0.0181 -1.1482
   25DOPE  C311 3201   6.371  -0.210  14.522 -0.4691  1.2255  0.3135
   25DOPE  H11X 3202   6.480  -0.192  14.523 -0.1156 -0.7297  0.8453
   25DOPE  H11Y 3203   6.387  -0.306  14.469  0.2198  2.8887 -2.7098
   25DOPE  C312 3204   6.300  -0.118  14.427  0.3022  0.3454 -0.0211
   25DOPE  H12X 3205   6.305  -0.021  14.480  0.2147  0.6294 -0.5287
   25DOPE  H12Y 3206   6.193  -0.148  14.420 -0.3513  2.5226  0.0776
   25DOPE  C313 3207   6.365  -0.111  14.285 -0.6097  0.2279  0.6234
   25DOPE  H13X 3208   6.476  -0.110  14.287 -0.6037  0.6690  0.2939
   25DOPE  H13Y 3209   6.344  -0.212  14.242 -0.1412  0.7054 -0.7962
   25DOPE  C314 3210   6.309   0.017  14.212  0.3051  0.4122 -0.3803
   25DOPE  H14X 3211   6.350   0.010  14.109 -2.0569 -0.4842 -1.3131
   25DOPE  H14Y 3212   6.358   0.102  14.265  1.8702 -0.3391 -0.5767
   25DOPE  C315 3213   6.154   0.014  14.192  0.0398  0.0700 -0.7168
   25DOPE  H15X 3214   6.094   0.014  14.285 -0.3701 -0.9458 -0.9748
   25DOPE  H15Y 3215   6.128  -0.085  14.149  1.5056 -0.2123 -1.0137
   25DOPE  C316 3216   6.113   0.118  14.093 -0.1590 -0.3265 -0.4291
   25DOPE  H16X 3217   6.165   0.112  13.995 -0.9547  1.3970 -1.0005
   25DOPE  H16Y 3218   6.147   0.215  14.133 -0.0062 -1.1482  1.5594
   25DOPE  C317 3219   5.961   0.116  14.061 -0.3306 -0.3254  0.1173
   25DOPE  H17X 3220   5.927   0.016  14.028  1.1961 -0.7475 -0.2729
   25DOPE  H17Y 3221   5.900   0.123  14.153 -1.0022 -1.1013 -0.2571
   25DOPE  C318 3222   5.917   0.246  13.976 -0.2887 -0.5031 -0.5734
   25DOPE  H18X 3223   5.950   0.224  13.872  0.6926 -1.7947 -0.0208
   25DOPE  H18Y 3224   5.806   0.238  13.980 -0.2135 -1.1345  1.7538
   25DOPE  H18Z 3225   5.944   0.345  14.018 -1.9429  0.1916 -1.0546
   26DOPE     N 3226   0.524   0.595  16.567 -0.0744 -0.7550 -0.3690
   26DOPE   HN1 3227   0.552   0.670  16.500  3.1372  0.1549  1.7276
   26DOPE   HN2 3228   0.496   0.641  16.656  1.2197  1.2527 -0.9189
   26DOPE   HN3 3229   0.611   0.545  16.593  1.3333  2.2069  1.1451
   26DOPE   C12 3230   0.410   0.516  16.502  0.1275 -0.4577 -0.0366
   26DOPE  H12A 3231   0.333   0.596  16.493  2.4438  1.9630  0.2161
   26DOPE  H12B 3232   0.385   0.429  16.566  1.2654 -0.2083  0.7650
   26DOPE   C11 3233   0.464   0.463  16.362 -0.1629 -0.6130 -0.5450
   26DOPE  H11A 3234   0.484   0.562  16.317 -0.1699  0.1019  0.9349
   26DOPE  H11B 3235   0.376   0.422  16.309 -2.1980  2.7872 -0.1084
   26DOPE     P 3236   0.588   0.232  16.397 -0.2030 -0.0818 -0.0361
   26DOPE   O13 3237   0.503   0.207  16.514 -0.7521 -0.2296  0.0448
   26DOPE   O14 3238   0.732   0.191  16.405  0.3136  0.1920 -0.1581
   26DOPE   O11 3239   0.530   0.167  16.273  0.1670  0.0533  0.4205
   26DOPE   O12 3240   0.580   0.380  16.358  0.2810  0.2690  0.6488
   26DOPE    C1 3241   0.602   0.142  16.158 -0.1376 -0.4525 -0.2876
   26DOPE    HA 3242   0.567   0.049  16.110 -0.8150  0.5189 -1.7463
   26DOPE    HB 3243   0.711   0.141  16.181 -0.3899  0.4164  1.0869
   26DOPE    C2 3244   0.581   0.256  16.051  0.4874  0.3418 -0.2718
   26DOPE    HS 3245   0.598   0.360  16.084  1.4427 -0.6226  2.5096
   26DOPE   O21 3246   0.445   0.229  15.999 -1.0645 -0.1762 -0.1007
   26DOPE   C21 3247   0.374   0.340  15.992 -0.1111  0.5949 -0.5386
   26DOPE   O22 3248   0.410   0.450  16.022 -0.1216  0.0268  0.5736
   26DOPE   C22 3249   0.237   0.304  15.929 -0.1529  0.3201 -0.5586
   26DOPE   H2R 3250   0.152   0.344  15.989 -1.4127  0.0532 -2.0915
   26DOPE   H2S 3251   0.219   0.195  15.919 -2.9102  0.4773  1.4201
   26DOPE    C3 3252   0.677   0.234  15.932 -0.0415 -0.5408  0.0501
   26DOPE    HX 3253   0.658   0.135  15.885  0.6106  0.0608 -1.5615
   26DOPE    HY 3254   0.779   0.228  15.975  0.0010  0.2033  0.0613
   26DOPE   O31 3255   0.681   0.336  15.830  0.1491  0.2991 -0.1558
   26DOPE   C31 3256   0.732   0.456  15.852  0.4327 -0.8284  0.0665
   26DOPE   O32 3257   0.780   0.493  15.955 -0.3589  0.0506 -0.2301
   26DOPE   C32 3258   0.723   0.559  15.736  0.6380  0.3153  0.1188
   26DOPE   H2X 3259   0.668   0.648  15.774  0.9182  0.5917 -0.1171
   26DOPE   H2Y 3260   0.825   0.588  15.700 -0.2329  0.0324 -2.8628
   26DOPE   C23 3261   0.215   0.368  15.791 -0.4604 -0.1076  0.2673
   26DOPE   H3R 3262   0.297   0.358  15.717  0.5568  0.4761  1.2799
   26DOPE   H3S 3263   0.203   0.478  15.802 -0.6471 -0.0328 -0.5977
   26DOPE   C24 3264   0.091   0.307  15.716 -0.0129 -0.1816  0.1032
   26DOPE   H4R 3265   0.016   0.331  15.795 -0.1028  3.9660 -1.0376
   26DOPE   H4S 3266   0.105   0.197  15.701 -0.3679 -0.1510 -0.4827
   26DOPE   C25 3267   0.080   0.381  15.580 -0.3974 -0.3619 -0.3502
   26DOPE   H5R 3268   0.105   0.489  15.586 -0.7690 -0.1300 -2.2501
   26DOPE   H5S 3269  -0.028   0.373  15.552 -0.5169 -1.3703  0.3445
   26DOPE   C26 3270   0.154   0.318  15.463 -0.7262  0.9841  0.1865
   26DOPE   H6R 3271   0.146   0.209  15.439  2.1734  0.9295 -0.9546
   26DOPE   H6S 3272   0.259   0.342  15.489 -1.0911  0.1359  2.6787
   26DOPE   C27 3273   0.148   0.390  15.327 -0.2497  0.2766 -0.1032
   26DOPE   H7R 3274   0.178   0.497  15.325 -0.0157  0.2158  0.0694
   26DOPE   H7S 3275   0.041   0.397  15.300 -0.1925  1.2532 -0.1098
   26DOPE   C28 3276   0.231   0.326  15.210 -0.1962 -0.8263  0.0132
   26DOPE   H8R 3277   0.332   0.297  15.246  0.3214  1.0994  0.2361
   26DOPE   H8S 3278   0.246   0.410  15.139  3.9944  0.2550  1.8160
   26DOPE   C29 3279   0.168   0.205  15.145 -0.1537 -0.1092 -0.3152
   26DOPE   H9R 3280   0.124   0.128  15.211 -0.7159  1.4312  1.1824
   26DOPE  C210 3281   0.135   0.185  15.018 -1.2855  0.4679  0.1765
   26DOPE  H10R 3282   0.082   0.095  14.984  1.2919 -0.1449 -2.7861
   26DOPE  C211 3283   0.161   0.274  14.902  0.2819  0.3185  0.5802
   26DOPE  H11R 3284   0.232   0.223  14.834  0.0476  0.4322  0.2460
   26DOPE  H11S 3285   0.207   0.369  14.937  0.6581 -0.1091  1.2759
   26DOPE  C212 3286   0.040   0.309  14.817 -0.3883 -0.8360 -0.1296
   26DOPE  H12R 3287  -0.017   0.221  14.784  0.9328 -1.9873  0.5458
   26DOPE  H12S 3288   0.075   0.351  14.720 -0.9702  0.2837  0.1237
   26DOPE  C213 3289  -0.057   0.384  14.901 -0.5701 -0.3448 -0.0694
   26DOPE  H13R 3290  -0.072   0.326  14.994  2.5554  0.5754  1.1413
   26DOPE  H13S 3291  -0.157   0.385  14.854  0.5402  0.8277 -2.6476
   26DOPE  C214 3292  -0.018   0.531  14.936 -0.2776 -0.6829  0.1956
   26DOPE  H14R 3293  -0.021   0.592  14.843 -2.0359 -2.0147 -0.6789
   26DOPE  H14S 3294   0.075   0.535  14.996  1.4435 -2.4338 -2.1677
   26DOPE  C215 3295  -0.126   0.587  15.026 -0.4107 -0.0045  0.5201
   26DOPE  H15R 3296  -0.148   0.510  15.103 -2.4279  0.4334  0.4377
   26DOPE  H15S 3297  -0.217   0.598  14.964 -0.9412  1.2899  1.4867
   26DOPE  C216 3298  -0.087   0.713  15.101  0.2515 -0.4278  0.1981
   26DOPE  H16R 3299  -0.181   0.750  15.147 -1.2075 -1.2074 -1.9815
   26DOPE  H16S 3300  -0.062   0.792  15.028 -2.1690  0.6644  0.4559
   26DOPE  C217 3301   0.020   0.697  15.219 -0.0039 -0.7381  0.6278
   26DOPE  H17R 3302   0.114   0.671  15.166 -0.3740  0.2568 -0.5712
   26DOPE  H17S 3303  -0.022   0.616  15.282 -0.8686 -0.4052  0.4905
   26DOPE  C218 3304   0.037   0.824  15.302 -0.3640 -0.0643  0.0471
   26DOPE  H18R 3305   0.120   0.814  15.375 -0.5726  1.3100  0.4980
   26DOPE  H18S 3306  -0.063   0.831  15.350 -0.4474 -2.1409  0.2872
   26DOPE  H18T 3307   0.053   0.903  15.226  1.4024 -0.8515 -0.4503
   26DOPE   C33 3308   0.637   0.507  15.618 -0.4769  0.0881  0.8549
   26DOPE   H3X 3309   0.531   0.487  15.645 -0.7584 -1.5197 -1.1577
   26DOPE   H3Y 3310   0.680   0.413  15.577  1.0134  1.5627 -1.2186
   26DOPE   C34 3311   0.651   0.602  15.493  0.0769 -0.2560 -0.1842
   26DOPE   H4X 3312   0.641   0.706  15.530 -1.7560  0.6677 -2.9798
   26DOPE   H4Y 3313   0.752   0.595  15.448  0.0304  2.3779 -0.8683
   26DOPE   C35 3314   0.546   0.585  15.381 -0.1871 -0.1161 -0.0156
   26DOPE   H5X 3315   0.446   0.606  15.423 -0.4083 -0.8441 -0.1648
   26DOPE   H5Y 3316   0.546   0.478  15.350  0.8874  0.6082 -2.8059
   26DOPE   C36 3317   0.561   0.677  15.267 -0.3391 -0.0157  0.0860
   26DOPE   H6X 3318   0.644   0.643  15.202 -0.1572  1.3468 -0.4189
   26DOPE   H6Y 3319   0.585   0.778  15.305 -0.3984 -0.2258  0.6989
   26DOPE   C37 3320   0.427   0.678  15.184 -0.3322 -0.5719  0.1862
   26DOPE   H7X 3321   0.407   0.580  15.134  1.2494  0.1418 -1.9821
   26DOPE   H7Y 3322   0.348   0.704  15.257 -1.4773 -1.7010 -0.6007
   26DOPE   C38 3323   0.434   0.784  15.069 -0.1764 -0.5980  0.7613
   26DOPE   H8X 3324   0.540   0.791  15.036 -0.3298  0.2186  0.4171
   26DOPE   H8Y 3325   0.408   0.880  15.120  0.5864 -0.5398  1.0565
   26DOPE   C39 3326   0.341   0.745  14.949 -0.6702 -0.1966 -0.6945
   26DOPE   H9X 3327   0.370   0.647  14.909 -0.1505  0.2351 -1.3794
   26DOPE  C310 3328   0.242   0.814  14.891  0.2145  0.1365 -0.4376
   26DOPE  H10X 3329   0.177   0.765  14.817 -1.0344 -1.0108  1.3372
   26DOPE  C311 3330   0.187   0.949  14.945 -0.1787 -0.1482 -0.3491
   26DOPE  H11X 3331   0.078   0.947  14.923  0.2042 -0.5334 -2.4398
   26DOPE  H11Y 3332   0.222   0.962  15.050  1.0437  2.3970 -1.0024
   26DOPE  C312 3333   0.250   1.059  14.869 -0.3867 -0.7074 -0.0993
   26DOPE  H12X 3334   0.359   1.043  14.861  0.1000  1.5603  1.0781
   26DOPE  H12Y 3335   0.238   1.153  14.928  2.3760  0.6462 -1.5147
   26DOPE  C313 3336   0.188   1.084  14.731 -0.4864 -0.1036 -0.3780
   26DOPE  H13X 3337   0.232   1.164  14.667 -0.9184  0.1950 -0.3022
   26DOPE  H13Y 3338   0.198   0.993  14.668  0.5752  1.8160 -3.1862
   26DOPE  C314 3339   0.038   1.124  14.733  0.3685 -0.1384  0.4787
   26DOPE  H14X 3340   0.011   1.191  14.817 -0.4087  0.5360 -0.2982
   26DOPE  H14Y 3341  -0.023   1.032  14.745 -0.2516  0.2581  0.4065
   26DOPE  C315 3342   0.003   1.196  14.601  0.0019  0.4580 -0.3746
   26DOPE  H15X 3343   0.038   1.147  14.508  0.5231  2.1122 -1.0803
   26DOPE  H15Y 3344   0.062   1.290  14.598 -2.7143  2.2947  0.2819
   26DOPE  C316 3345  -0.145   1.231  14.582  0.0066 -0.1611  0.4228
   26DOPE  H16X 3346  -0.162   1.299  14.668  2.4797  2.2927 -0.8897
   26DOPE  H16Y 3347  -0.212   1.142  14.583  1.5199 -1.3406  0.6726
   26DOPE  C317 3348  -0.163   1.321  14.451  1.2309 -0.6060  0.4599
   26DOPE  H17X 3349  -0.109   1.418  14.450  0.5035 -0.1916  0.5607
   26DOPE  H17Y 3350  -0.130   1.259  14.364 -0.3556  0.3701 -0.8836
   26DOPE  C318 3351  -0.310   1.350  14.429  0.9509 -0.0176 -0.2030
   26DOPE  H18X 3352  -0.359   1.254  14.458  3.2829 -0.8116  1.4594
   26DOPE  H18Y 3353  -0.343   1.437  14.490 -0.2424  0.1778 -1.1095
   26DOPE  H18Z 3354  -0.332   1.375  14.323 -0.1454 -1.9193 -0.4756
   27DOPE     N 3355   6.429   0.366  16.149 -0.5355 -0.0451  0.5088
   27DOPE   HN1 3356   6.491   0.429  16.095 -3.2500  1.6813 -0.8281
   27DOPE   HN2 3357   6.496   0.296  16.186 -1.4386 -1.2870 -0.1404
   27DOPE   HN3 3358   6.352   0.323  16.094  0.7313 -0.5128 -0.9377
   27DOPE   C12 3359   6.364   0.446  16.255 -0.6950 -0.6625 -0.7209
   27DOPE  H12A 3360   6.440   0.495  16.318 -2.1877  0.2024  0.4801
   27DOPE  H12B 3361   6.314   0.374  16.322  1.3163 -1.0665  0.4036
   27DOPE   C11 3362   6.281   0.550  16.189  1.0546  0.2161  0.1903
   27DOPE  H11A 3363   6.240   0.617  16.267  1.2401 -0.7253  1.1143
   27DOPE  H11B 3364   6.198   0.500  16.134  0.6427  0.1670  0.8537
   27DOPE     P 3365   6.294   0.754  16.024 -0.1293 -0.5570 -0.4905
   27DOPE   O13 3366   6.368   0.880  16.048  0.1467  0.7090 -0.5023
   27DOPE   O14 3367   6.150   0.770  16.046 -0.0891  0.7990 -0.0422
   27DOPE   O11 3368   6.323   0.706  15.877 -0.4876 -0.0680 -0.1996
   27DOPE   O12 3369   6.357   0.638  16.113  0.2189  0.0566 -0.4086
   27DOPE    C1 3370   6.431   0.747  15.802 -1.0002  0.5730 -0.0928
   27DOPE    HA 3371   6.461   0.650  15.756 -2.3899 -0.9821  2.1031
   27DOPE    HB 3372   6.519   0.783  15.860 -1.0490  1.4143 -0.5259
   27DOPE    C2 3373   6.390   0.852  15.695  1.0761 -0.0002 -1.1602
   27DOPE    HS 3374   6.311   0.917  15.739  2.1029  0.0872  0.6779
   27DOPE   O21 3375   6.353   0.778  15.583 -0.5682 -0.5208  0.6502
   27DOPE   C21 3376   6.255   0.830  15.503 -0.2164 -0.8298  0.0065
   27DOPE   O22 3377   6.189   0.931  15.532 -0.1783  0.5738 -0.2034
   27DOPE   C22 3378   6.219   0.733  15.389  0.0811 -0.6119  1.0411
   27DOPE   H2R 3379   6.124   0.681  15.419 -0.7204  1.0762  1.5346
   27DOPE   H2S 3380   6.296   0.657  15.364  0.1767 -0.6927  1.5660
   27DOPE    C3 3381   6.507   0.952  15.661 -0.2769  0.9974 -0.6601
   27DOPE    HX 3382   6.586   0.876  15.641 -1.5944 -0.1163 -1.9463
   27DOPE    HY 3383   6.535   1.013  15.749  0.6977 -0.3592  0.0071
   27DOPE   O31 3384   6.487   1.026  15.540  0.5444  0.5801 -0.0275
   27DOPE   C31 3385   6.422   1.140  15.560 -0.4623  0.3308 -0.6061
   27DOPE   O32 3386   6.383   1.180  15.672 -0.2701 -0.4227  0.4027
   27DOPE   C32 3387   6.402   1.209  15.428  0.8788  0.3222  0.1913
   27DOPE   H2X 3388   6.499   1.231  15.380  0.7369  1.6125  0.4494
   27DOPE   H2Y 3389   6.342   1.146  15.359  1.6025  0.8923 -0.9822
   27DOPE   C23 3390   6.177   0.805  15.258 -0.4936 -0.9991 -0.0048
   27DOPE   H3R 3391   6.270   0.851  15.217 -0.6730 -1.1438 -0.5822
   27DOPE   H3S 3392   6.092   0.874  15.278 -0.9849 -2.4253  3.5324
   27DOPE   C24 3393   6.136   0.699  15.147 -0.0777  0.1927  0.1598
   27DOPE   H4R 3394   6.054   0.635  15.184  0.3614  0.4264  1.6274
   27DOPE   H4S 3395   6.230   0.641  15.132 -0.3915 -0.2103 -0.2338
   27DOPE   C25 3396   6.107   0.768  15.024  0.2360  0.2059  0.0755
   27DOPE   H5R 3397   6.188   0.843  15.009  0.9070  0.2042  3.0158
   27DOPE   H5S 3398   6.004   0.808  15.019 -0.3867 -1.5181 -2.4720
   27DOPE   C26 3399   6.107   0.670  14.909 -0.4137  0.2544 -0.2489
   27DOPE   H6R 3400   6.052   0.577  14.936 -1.1237  0.2183 -1.7484
   27DOPE   H6S 3401   6.208   0.624  14.912 -0.5783 -0.1206 -0.5036
   27DOPE   C27 3402   6.063   0.731  14.780 -0.2954  0.1412 -0.0576
   27DOPE   H7R 3403   6.107   0.833  14.789 -2.8221  1.4865 -1.4499
   27DOPE   H7S 3404   5.954   0.750  14.792 -0.6537 -0.9542 -1.3565
   27DOPE   C28 3405   6.100   0.670  14.644 -0.6007  0.0880  0.0980
   27DOPE   H8R 3406   6.088   0.745  14.562 -6.5686  0.7948  1.1523
   27DOPE   H8S 3407   6.021   0.594  14.624  0.2708 -0.7380 -0.2507
   27DOPE   C29 3408   6.223   0.586  14.647  0.2091 -0.2796 -0.3837
   27DOPE   H9R 3409   6.213   0.485  14.689 -0.1920 -0.4270 -0.8333
   27DOPE  C210 3410   6.343   0.618  14.605  0.1625  0.1955  0.2749
   27DOPE  H10R 3411   6.419   0.544  14.631 -0.3584 -0.3902  0.1548
   27DOPE  C211 3412   6.382   0.748  14.526  0.6347  0.6203  0.4246
   27DOPE  H11R 3413   6.437   0.815  14.596  0.1792  1.4414  0.0205
   27DOPE  H11S 3414   6.285   0.799  14.507  0.3159 -0.6842 -1.7496
   27DOPE  C212 3415   6.453   0.722  14.389 -0.0150  1.1943  0.0332
   27DOPE  H12R 3416   6.397   0.650  14.326 -1.2508  2.8302 -0.8451
   27DOPE  H12S 3417   6.556   0.683  14.396 -0.6869 -0.6253  0.3455
   27DOPE  C213 3418   6.477   0.863  14.317 -0.0267 -0.3578  0.0947
   27DOPE  H13R 3419   6.484   0.939  14.398 -0.6587  1.3882 -1.4187
   27DOPE  H13S 3420   6.383   0.887  14.264  0.2194 -0.8696 -0.5756
   27DOPE  C214 3421   6.604   0.862  14.234 -0.2842 -0.0255  0.5039
   27DOPE  H14R 3422   6.628   0.764  14.188 -2.0684  0.8842 -2.6966
   27DOPE  H14S 3423   6.692   0.889  14.295 -0.6890  1.5251  0.4466
   27DOPE  C215 3424   6.596   0.970  14.123 -0.5323  0.3267  0.5613
   27DOPE  H15R 3425   6.572   1.066  14.174 -0.4978  1.7666 -1.9735
   27DOPE  H15S 3426   6.507   0.937  14.065 -0.6131 -0.4766  1.1212
   27DOPE  C216 3427   6.716   0.977  14.033 -0.6390 -0.3034 -0.1459
   27DOPE  H16R 3428   6.720   0.896  13.957 -3.1611 -0.9784  0.3502
   27DOPE  H16S 3429   6.814   0.963  14.084  0.2044 -0.8328 -1.8504
   27DOPE  C217 3430   6.717   1.115  13.962  0.6353 -0.2088 -0.4175
   27DOPE  H17R 3431   6.691   1.186  14.044  0.2808 -0.3156 -0.4347
   27DOPE  H17S 3432   6.627   1.104  13.899  0.9325 -1.2356 -0.6872
   27DOPE  C218 3433   6.843   1.153  13.887 -0.2311 -0.4565 -0.5328
   27DOPE  H18R 3434   6.847   1.256  13.846 -2.1709  0.3464  1.0959
   27DOPE  H18S 3435   6.861   1.084  13.803  1.0169  0.7434 -1.2836
   27DOPE  H18T 3436   6.930   1.140  13.955 -1.5067 -0.0130  1.2575
   27DOPE   C33 3437   6.327   1.344  15.437  0.9726  0.1807 -0.0178
   27DOPE   H3X 3438   6.380   1.416  15.504  3.4779 -1.2263 -0.3643
   27DOPE   H3Y 3439   6.226   1.326  15.479  0.7512  0.3420 -0.4773
   27DOPE   C34 3440   6.306   1.423  15.305  0.5204  0.6844 -0.4603
   27DOPE   H4X 3441   6.287   1.530  15.330  1.2917  0.7884 -0.2800
   27DOPE   H4Y 3442   6.396   1.423  15.241  0.2391 -0.6345 -0.8842
   27DOPE   C35 3443   6.204   1.358  15.213 -0.0467  0.5238  0.4026
   27DOPE   H5X 3444   6.236   1.268  15.155  0.1066  0.7107  0.1988
   27DOPE   H5Y 3445   6.172   1.435  15.140  3.0380  1.8079  0.2727
   27DOPE   C36 3446   6.069   1.323  15.283  0.6329 -0.3828  0.0328
   27DOPE   H6X 3447   6.052   1.390  15.370 -0.1499 -1.5042  0.7680
   27DOPE   H6Y 3448   6.086   1.219  15.318  1.8838 -0.1250  0.2320
   27DOPE   C37 3449   5.949   1.318  15.192 -0.0356  0.3081 -0.0464
   27DOPE   H7X 3450   5.990   1.328  15.089  0.5631  1.5332  0.2943
   27DOPE   H7Y 3451   5.897   1.220  15.189 -0.1140  0.3427 -3.4572
   27DOPE   C38 3452   5.848   1.427  15.225  0.0518 -0.5848 -0.4430
   27DOPE   H8X 3453   5.899   1.519  15.261  0.1543  0.0779 -2.1838
   27DOPE   H8Y 3454   5.800   1.388  15.317  0.3983  0.9028  0.4094
   27DOPE   C39 3455   5.748   1.442  15.111 -0.4183 -0.0768 -0.2967
   27DOPE   H9X 3456   5.702   1.347  15.080  2.7865 -0.7223 -3.9389
   27DOPE  C310 3457   5.715   1.556  15.049 -0.0070  1.1421 -0.1569
   27DOPE  H10X 3458   5.635   1.560  14.974  1.2522  1.8246 -1.5375
   27DOPE  C311 3459   5.774   1.686  15.087 -0.2456 -0.8914  0.0849
   27DOPE  H11X 3460   5.763   1.695  15.197  1.2073 -1.3523  0.2828
   27DOPE  H11Y 3461   5.883   1.693  15.067 -0.3603  1.6613 -0.0103
   27DOPE  C312 3462   5.705   1.814  15.021 -0.5464  1.0414  0.5911
   27DOPE  H12X 3463   5.595   1.823  15.034 -0.9476 -0.6037 -1.2771
   27DOPE  H12Y 3464   5.716   1.799  14.912 -1.7123  1.1113  0.4555
   27DOPE  C313 3465   5.756   1.949  15.062 -0.5127  0.6075  0.1380
   27DOPE  H13X 3466   5.750   1.959  15.173 -0.6138 -0.8245  0.2880
   27DOPE  H13Y 3467   5.860   1.954  15.022 -0.5070  2.3389  0.3009
   27DOPE  C314 3468   5.692   2.071  15.006  0.1138 -0.3851  0.7506
   27DOPE  H14X 3469   5.586   2.073  15.040  0.4798 -0.0706  1.8833
   27DOPE  H14Y 3470   5.685   2.065  14.895 -2.4305 -1.1650  0.8794
   27DOPE  C315 3471   5.755   2.215  15.034  0.6677 -0.5022 -0.0979
   27DOPE  H15X 3472   5.862   2.220  15.006  0.2032  1.2378 -1.7431
   27DOPE  H15Y 3473   5.743   2.241  15.142 -0.5324  4.4554 -1.1464
   27DOPE  C316 3474   5.685   2.329  14.962 -0.5034  0.0919 -0.0102
   27DOPE  H16X 3475   5.744   2.422  14.975  0.8205 -0.6216 -0.7141
   27DOPE  H16Y 3476   5.583   2.328  15.006 -0.4627 -1.1628  0.0890
   27DOPE  C317 3477   5.665   2.315  14.804  0.5418  0.0083 -0.9259
   27DOPE  H17X 3478   5.678   2.419  14.766 -1.8329  1.2924  1.3765
   27DOPE  H17Y 3479   5.745   2.254  14.757  0.9867  1.0157 -1.5106
   27DOPE  C318 3480   5.528   2.267  14.759  0.6726 -0.1927  0.3135
   27DOPE  H18X 3481   5.443   2.331  14.791  0.4478  0.6625 -1.8360
   27DOPE  H18Y 3482   5.529   2.264  14.648  1.6558  0.4539  0.2918
   27DOPE  H18Z 3483   5.509   2.162  14.790  0.8644 -0.9553 -2.0078
   28DOPE     N 3484   7.543   0.377  16.657  0.2139  0.1251  0.3951
   28DOPE   HN1 3485   7.466   0.421  16.711 -0.5448  1.5203 -1.6552
   28DOPE   HN2 3486   7.580   0.290  16.699  2.9156 -0.0396 -1.9789
   28DOPE   HN3 3487   7.614   0.453  16.649 -1.1518  1.4249  0.1236
   28DOPE   C12 3488   7.490   0.348  16.520 -0.7567 -0.2516  0.2354
   28DOPE  H12A 3489   7.400   0.284  16.525 -2.9054  2.6779  2.0384
   28DOPE  H12B 3490   7.566   0.292  16.461  0.2701  1.7748 -0.4807
   28DOPE   C11 3491   7.458   0.475  16.446 -0.6580  1.0853  0.8988
   28DOPE  H11A 3492   7.425   0.449  16.343  0.6878 -0.7132  0.8776
   28DOPE  H11B 3493   7.555   0.528  16.433  0.3064 -0.8812 -0.6108
   28DOPE     P 3494   7.214   0.561  16.494 -0.3716  0.1801 -0.1287
   28DOPE   O13 3495   7.184   0.704  16.536  0.3754 -0.0897 -0.0056
   28DOPE   O14 3496   7.153   0.456  16.578 -0.2343 -0.0760  0.1911
   28DOPE   O11 3497   7.192   0.530  16.345  0.4973  0.0410  0.2191
   28DOPE   O12 3498   7.365   0.545  16.523 -0.0665 -0.1644  0.4004
   28DOPE    C1 3499   7.160   0.633  16.245  0.2896 -0.6005  0.5295
   28DOPE    HA 3500   7.255   0.689  16.234 -1.6017  2.8337  0.4128
   28DOPE    HB 3501   7.076   0.695  16.282 -0.8255 -1.6781 -0.1183
   28DOPE    C2 3502   7.119   0.578  16.100 -0.1647  0.0716 -0.2614
   28DOPE    HS 3503   7.021   0.526  16.113  0.0320  0.1357  1.7697
   28DOPE   O21 3504   7.217   0.480  16.062  0.2862 -0.2285 -0.3623
   28DOPE   C21 3505   7.178   0.384  15.979 -0.3093 -0.4026 -0.6947
   28DOPE   O22 3506   7.066   0.375  15.931 -0.3839  0.0766 -0.3931
   28DOPE   C22 3507   7.303   0.297  15.942  0.8123 -0.6750  0.0361
   28DOPE   H2R 3508   7.271   0.192  15.928 -1.6469  0.2228 -1.8533
   28DOPE   H2S 3509   7.370   0.298  16.030  1.0888 -1.2665 -0.1584
   28DOPE    C3 3510   7.103   0.693  15.993  0.2689 -0.9405 -0.5449
   28DOPE    HX 3511   7.200   0.748  15.997 -0.3243  0.1829 -1.1132
   28DOPE    HY 3512   7.032   0.764  16.039  0.9855 -0.6267  0.0987
   28DOPE   O31 3513   7.092   0.651  15.858 -0.6486 -0.0440  0.2501
   28DOPE   C31 3514   6.962   0.643  15.821 -0.2854  0.1826  0.3765
   28DOPE   O32 3515   6.868   0.680  15.892 -0.0876  0.2975 -0.1763
   28DOPE   C32 3516   6.956   0.557  15.690  0.2315  0.4312 -0.4795
   28DOPE   H2X 3517   7.020   0.616  15.621  1.3755  0.8050  0.8526
   28DOPE   H2Y 3518   7.006   0.460  15.713  0.5157  0.2338 -1.8697
   28DOPE   C23 3519   7.377   0.347  15.826  0.0555 -0.1371  0.7643
   28DOPE   H3R 3520   7.464   0.284  15.798  0.3596  0.6073 -0.0017
   28DOPE   H3S 3521   7.424   0.447  15.832 -1.7660  0.9194 -1.1645
   28DOPE   C24 3522   7.293   0.347  15.701  0.8641  0.5273  0.7979
   28DOPE   H4R 3523   7.203   0.410  15.714 -1.3667 -2.3589  0.4534
   28DOPE   H4S 3524   7.250   0.247  15.679  0.8882  1.2071 -3.0618
   28DOPE   C25 3525   7.366   0.396  15.571  0.2733 -0.3276  0.2168
   28DOPE   H5R 3526   7.455   0.334  15.545 -0.6409 -1.0368 -1.3379
   28DOPE   H5S 3527   7.403   0.496  15.603 -1.8337  1.1666 -1.7405
   28DOPE   C26 3528   7.285   0.418  15.440 -0.1571  0.3841  0.4917
   28DOPE   H6R 3529   7.346   0.455  15.356 -0.5485 -0.6245 -0.2518
   28DOPE   H6S 3530   7.200   0.485  15.466  0.7318  1.4310  0.7654
   28DOPE   C27 3531   7.223   0.285  15.405  0.2505 -0.9101 -0.4711
   28DOPE   H7R 3532   7.162   0.253  15.492 -0.8345  0.9260 -0.4890
   28DOPE   H7S 3533   7.311   0.219  15.393  0.4040 -0.5561 -1.3461
   28DOPE   C28 3534   7.139   0.276  15.270 -0.0415 -0.6762 -0.6807
   28DOPE   H8R 3535   7.048   0.340  15.281 -1.3836 -1.8938 -3.4960
   28DOPE   H8S 3536   7.089   0.177  15.258  1.5426 -1.4403 -1.2740
   28DOPE   C29 3537   7.215   0.295  15.142 -0.4596  0.1099 -0.0761
   28DOPE   H9R 3538   7.309   0.238  15.142  0.2167  1.2041  0.2272
   28DOPE  C210 3539   7.183   0.373  15.042  0.2794 -0.6643  0.8637
   28DOPE  H10R 3540   7.246   0.378  14.952 -1.7373 -0.6660 -0.6318
   28DOPE  C211 3541   7.070   0.476  15.028  0.0814 -0.0468  0.3498
   28DOPE  H11R 3542   7.097   0.559  14.960  1.2031 -0.4819  0.2527
   28DOPE  H11S 3543   7.060   0.526  15.127  2.9380 -2.8077  2.1993
   28DOPE  C212 3544   6.932   0.420  14.991 -0.0921 -0.4873  0.8283
   28DOPE  H12R 3545   6.875   0.511  14.962  1.5157 -0.0089 -1.0772
   28DOPE  H12S 3546   6.890   0.357  15.072  0.5342  1.3564  2.6725
   28DOPE  C213 3547   6.928   0.340  14.857 -0.3054 -0.3102  0.5527
   28DOPE  H13R 3548   6.985   0.246  14.864  0.4610  0.1133  0.0893
   28DOPE  H13S 3549   6.973   0.401  14.776  0.0422  0.2878  1.1814
   28DOPE  C214 3550   6.785   0.312  14.820  0.3639 -0.6071 -0.0633
   28DOPE  H14R 3551   6.721   0.403  14.832  1.2521  0.0935 -0.5214
   28DOPE  H14S 3552   6.747   0.238  14.894 -1.6442 -1.6339 -1.9864
   28DOPE  C215 3553   6.756   0.261  14.681  0.0339  0.3639 -0.6818
   28DOPE  H15R 3554   6.806   0.162  14.681  2.5758  1.5355  0.2814
   28DOPE  H15S 3555   6.817   0.321  14.610 -0.5489  1.9663  0.1227
   28DOPE  C216 3556   6.615   0.259  14.633 -0.2108 -0.1450  0.3969
   28DOPE  H16R 3557   6.596   0.368  14.619  2.0099  0.0171 -2.3841
   28DOPE  H16S 3558   6.547   0.223  14.712 -0.5603  2.9329  1.6361
   28DOPE  C217 3559   6.588   0.190  14.491  0.3876 -0.3301 -0.1947
   28DOPE  H17R 3560   6.487   0.222  14.457  0.0990 -1.4597 -0.4402
   28DOPE  H17S 3561   6.577   0.080  14.504  1.6283 -0.2921  1.5345
   28DOPE  C218 3562   6.677   0.225  14.373 -0.1928 -0.4531  0.0314
   28DOPE  H18R 3563   6.663   0.162  14.283 -0.8479  1.8159 -1.5402
   28DOPE  H18S 3564   6.785   0.218  14.397 -0.1542 -0.9656 -0.2837
   28DOPE  H18T 3565   6.671   0.324  14.323  1.9337  0.0903  0.7786
   28DOPE   C33 3566   6.817   0.543  15.635 -0.3211  0.4082  0.0345
   28DOPE   H3X 3567   6.771   0.637  15.597 -3.5405 -0.9884  0.0957
   28DOPE   H3Y 3568   6.741   0.521  15.714 -3.2418  0.2399 -2.6098
   28DOPE   C34 3569   6.809   0.429  15.532  0.1921  0.6438 -0.3682
   28DOPE   H4X 3570   6.883   0.449  15.452  1.1960 -0.7483  0.1674
   28DOPE   H4Y 3571   6.837   0.334  15.581 -1.0191  1.3479  1.8615
   28DOPE   C35 3572   6.664   0.427  15.479 -0.0232  0.7355 -0.5208
   28DOPE   H5X 3573   6.648   0.522  15.425  1.0741  1.0171 -0.3845
   28DOPE   H5Y 3574   6.590   0.416  15.561 -1.3837 -0.6610 -1.8718
   28DOPE   C36 3575   6.645   0.316  15.375 -0.5812  1.0015  0.0309
   28DOPE   H6X 3576   6.626   0.219  15.425 -4.0652  0.5107 -1.9073
   28DOPE   H6Y 3577   6.735   0.300  15.312 -0.7405  0.0272  0.0323
   28DOPE   C37 3578   6.521   0.352  15.285 -0.0938 -0.0119 -0.0191
   28DOPE   H7X 3579   6.431   0.353  15.350 -0.5932  2.1269 -0.6851
   28DOPE   H7Y 3580   6.537   0.454  15.246  1.3948 -0.5653 -0.9476
   28DOPE   C38 3581   6.500   0.264  15.167 -0.1034 -0.8671  0.0165
   28DOPE   H8X 3582   6.457   0.169  15.206 -1.3798 -0.3485 -0.0967
   28DOPE   H8Y 3583   6.601   0.236  15.129  0.4968  1.0129  0.1298
   28DOPE   C39 3584   6.426   0.323  15.044 -0.2816  0.3279 -0.3912
   28DOPE   H9X 3585   6.483   0.351  14.954 -2.9060  0.3426 -2.1621
   28DOPE  C310 3586   6.294   0.335  15.034 -0.3762  0.2852  0.0927
   28DOPE  H10X 3587   6.251   0.386  14.946 -1.4552 -1.3026 -0.3473
   28DOPE  C311 3588   6.197   0.279  15.132 -0.3209 -0.1068 -0.5705
   28DOPE  H11X 3589   6.247   0.209  15.202  0.4539  0.3458 -0.6631
   28DOPE  H11Y 3590   6.153   0.359  15.195  1.5041  0.2331  0.3436
   28DOPE  C312 3591   6.087   0.214  15.048 -0.1860  0.0718 -0.2622
   28DOPE  H12X 3592   6.047   0.285  14.973  0.1829  1.5760  0.9138
   28DOPE  H12Y 3593   6.005   0.189  15.119  2.4636 -0.2468  2.9858
   28DOPE  C313 3594   6.129   0.082  14.991 -0.7746  0.1760  0.8078
   28DOPE  H13X 3595   6.207   0.104  14.915  0.0004 -0.6762  1.3305
   28DOPE  H13Y 3596   6.188   0.024  15.065  2.7726 -1.8444 -3.1455
   28DOPE  C314 3597   6.015  -0.007  14.937  0.0564  0.2074  0.0418
   28DOPE  H14X 3598   5.958  -0.037  15.027  0.9430 -0.9342  0.2449
   28DOPE  H14Y 3599   6.051  -0.091  14.874  0.8559  1.7028 -1.5769
   28DOPE  C315 3600   5.924   0.078  14.846  0.5226  0.8776  0.2852
   28DOPE  H15X 3601   5.969   0.146  14.771 -0.1624  0.7783 -0.2293
   28DOPE  H15Y 3602   5.863   0.144  14.912 -1.0412  0.2211 -0.4448
   28DOPE  C316 3603   5.840  -0.014  14.757 -0.1940  0.6648 -0.0512
   28DOPE  H16X 3604   5.766   0.043  14.695 -2.4078  0.4926  2.2865
   28DOPE  H16Y 3605   5.777  -0.082  14.818  0.0861  0.8722  0.4735
   28DOPE  C317 3606   5.929  -0.101  14.658 -0.0960  0.0533 -0.7978
   28DOPE  H17X 3607   6.026  -0.055  14.628 -0.6518  1.5635 -0.3979
   28DOPE  H17Y 3608   5.954  -0.191  14.718 -1.2785  0.8396  0.9839
   28DOPE  C318 3609   5.854  -0.155  14.539  0.3442  0.3416 -0.2984
   28DOPE  H18X 3610   5.796  -0.075  14.489  0.5975 -0.5778 -2.1674
   28DOPE  H18Y 3611   5.932  -0.195  14.471  1.8978  0.8439  1.1007
   28DOPE  H18Z 3612   5.791  -0.240  14.575 -0.4443  1.1911  0.3783
   29DOPE     N 3613   6.854   2.849  16.069  0.1599  0.0719 -0.7435
   29DOPE   HN1 3614   6.934   2.806  16.119  1.9468  2.7784 -1.0669
   29DOPE   HN2 3615   6.895   2.935  16.029  0.9324  1.3927  2.5091
   29DOPE   HN3 3616   6.795   2.880  16.149 -1.1014 -0.2496 -1.5188
   29DOPE   C12 3617   6.772   2.754  15.991  0.0773 -0.4084  0.8453
   29DOPE  H12A 3618   6.837   2.702  15.917 -0.9722 -0.6749  0.0888
   29DOPE  H12B 3619   6.691   2.805  15.934  1.7638  0.7342 -0.6329
   29DOPE   C11 3620   6.710   2.642  16.073 -0.2619 -0.1174 -0.0888
   29DOPE  H11A 3621   6.674   2.562  16.005  1.1060 -0.2675 -0.6724
   29DOPE  H11B 3622   6.618   2.689  16.114  0.9829  0.2650  2.4166
   29DOPE     P 3623   6.883   2.466  16.182 -0.2488 -0.2193  0.0621
   29DOPE   O13 3624   6.817   2.366  16.266 -0.1535  0.4358 -0.2808
   29DOPE   O14 3625   7.027   2.501  16.206  0.7565 -0.2631  0.0968
   29DOPE   O11 3626   6.874   2.419  16.033 -0.1771 -0.0140 -0.2535
   29DOPE   O12 3627   6.798   2.598  16.176  0.2919  0.4300 -0.1871
   29DOPE    C1 3628   6.952   2.300  16.006  0.3684  0.1186  0.1314
   29DOPE    HA 3629   6.905   2.208  16.046 -1.1791  0.6935 -0.2937
   29DOPE    HB 3630   7.047   2.305  16.063 -1.5296  1.8983  3.4656
   29DOPE    C2 3631   6.981   2.280  15.856  0.2538 -0.3550 -0.0451
   29DOPE    HS 3632   7.071   2.217  15.842 -0.0671 -0.8936  0.2932
   29DOPE   O21 3633   6.996   2.413  15.796 -0.5758  0.0303 -0.3318
   29DOPE   C21 3634   7.115   2.462  15.813 -0.1646 -0.2376  0.0191
   29DOPE   O22 3635   7.203   2.407  15.875  0.0128 -0.2765 -0.7046
   29DOPE   C22 3636   7.124   2.608  15.759 -0.5268 -0.9821 -0.2834
   29DOPE   H2R 3637   7.231   2.632  15.774 -0.8599  1.5540 -1.4342
   29DOPE   H2S 3638   7.057   2.680  15.811  2.0519  1.0706  0.4260
   29DOPE    C3 3639   6.870   2.203  15.785  0.4835 -0.0232 -0.8132
   29DOPE    HX 3640   6.768   2.241  15.807  0.8373 -0.9303  3.0124
   29DOPE    HY 3641   6.867   2.099  15.824 -2.2611  0.6107  0.8958
   29DOPE   O31 3642   6.877   2.204  15.641 -0.4900 -0.0351  0.2318
   29DOPE   C31 3643   6.963   2.107  15.593 -0.0765  0.0890 -0.4995
   29DOPE   O32 3644   7.031   2.036  15.665  0.2184  0.3120 -0.1787
   29DOPE   C32 3645   6.965   2.110  15.445  0.4806 -0.3676  0.3463
   29DOPE   H2X 3646   6.860   2.097  15.410  0.9749 -0.5623 -1.1573
   29DOPE   H2Y 3647   7.005   2.209  15.415 -0.2568 -0.6017 -1.5504
   29DOPE   C23 3648   7.110   2.638  15.610  1.3013 -0.3553  0.6235
   29DOPE   H3R 3649   7.037   2.571  15.559  0.2023  0.1828  1.4619
   29DOPE   H3S 3650   7.212   2.618  15.571  0.4013 -1.4106 -1.3383
   29DOPE   C24 3651   7.063   2.787  15.567  0.7938  0.1979  0.4229
   29DOPE   H4R 3652   7.103   2.853  15.648 -1.2142  1.4989  0.4212
   29DOPE   H4S 3653   6.952   2.790  15.570  0.7973  2.7849  0.1238
   29DOPE   C25 3654   7.113   2.847  15.436  0.1484  0.0246  0.1544
   29DOPE   H5R 3655   7.224   2.852  15.428  0.4295 -3.3650  0.5832
   29DOPE   H5S 3656   7.093   2.956  15.445 -0.2701 -0.0192 -0.2175
   29DOPE   C26 3657   7.041   2.779  15.315  0.6396  0.7392 -0.3762
   29DOPE   H6R 3658   6.931   2.771  15.331  0.8336  3.3263  3.6147
   29DOPE   H6S 3659   7.072   2.673  15.312  1.7776  1.0182  0.7020
   29DOPE   C27 3660   7.075   2.850  15.178  0.1041 -0.4093 -0.7400
   29DOPE   H7R 3661   7.182   2.827  15.159  0.5461 -1.8603  2.7851
   29DOPE   H7S 3662   7.064   2.959  15.193 -1.4453 -0.7010  0.4309
   29DOPE   C28 3663   6.991   2.787  15.065  0.0216 -0.4455  0.5934
   29DOPE   H8R 3664   7.000   2.678  15.085  2.8331 -0.3209  0.4086
   29DOPE   H8S 3665   7.048   2.806  14.972 -0.2513 -3.7502 -0.3711
   29DOPE   C29 3666   6.847   2.838  15.055  0.6523  0.4697 -0.1958
   29DOPE   H9R 3667   6.784   2.832  15.145  0.5597  2.4245 -0.0815
   29DOPE  C210 3668   6.792   2.890  14.945 -0.2787  0.0085  0.2770
   29DOPE  H10R 3669   6.691   2.933  14.954 -0.3148  0.0324 -0.1966
   29DOPE  C211 3670   6.863   2.918  14.815  0.4808  0.2413  0.3131
   29DOPE  H11R 3671   6.803   2.889  14.725  0.5356  0.5570  0.1735
   29DOPE  H11S 3672   6.953   2.856  14.799 -0.8343 -2.0269  1.2351
   29DOPE  C212 3673   6.901   3.062  14.795  0.1577  0.1168  0.3954
   29DOPE  H12R 3674   6.972   3.075  14.879  0.5070 -0.4052  0.1880
   29DOPE  H12S 3675   6.809   3.123  14.808 -1.1950 -1.5968 -0.6398
   29DOPE  C213 3676   6.953   3.094  14.650  0.0429 -0.7462 -0.3655
   29DOPE  H13R 3677   7.048   3.037  14.647  0.4630 -0.0296 -1.6285
   29DOPE  H13S 3678   6.978   3.202  14.646  1.2535 -1.0284 -0.8479
   29DOPE  C214 3679   6.866   3.045  14.527  0.0665 -0.2440 -0.5371
   29DOPE  H14R 3680   6.758   3.063  14.544 -0.0571 -0.5760 -0.9376
   29DOPE  H14S 3681   6.860   2.934  14.529  1.2604 -0.4226 -2.9626
   29DOPE  C215 3682   6.913   3.107  14.405  0.2965  0.6748  0.4063
   29DOPE  H15R 3683   6.906   3.217  14.418  0.4188  0.6302  0.8852
   29DOPE  H15S 3684   6.839   3.093  14.324  1.1627 -0.2072 -0.2587
   29DOPE  C216 3685   7.046   3.060  14.344 -0.0188 -0.3315  0.3696
   29DOPE  H16R 3686   7.037   2.964  14.289  1.1507 -0.3006  0.1070
   29DOPE  H16S 3687   7.115   3.048  14.430  0.4615 -1.4549 -0.1525
   29DOPE  C217 3688   7.115   3.157  14.236  0.7743 -0.3309 -0.3032
   29DOPE  H17R 3689   7.155   3.250  14.282 -0.8730  2.0760 -3.3179
   29DOPE  H17S 3690   7.042   3.187  14.157  0.1182 -3.6775 -1.1406
   29DOPE  C218 3691   7.236   3.090  14.165 -0.4836 -0.1685  0.0026
   29DOPE  H18R 3692   7.284   3.152  14.086  1.9974 -2.2059 -0.2271
   29DOPE  H18S 3693   7.204   2.999  14.110 -1.6042  0.2887 -0.1079
   29DOPE  H18T 3694   7.315   3.062  14.238  0.5708 -0.7355 -1.3155
   29DOPE   C33 3695   7.055   2.007  15.386  0.7504 -0.4930 -0.2863
   29DOPE   H3X 3696   7.006   1.908  15.396 -3.0982  1.1405 -1.2201
   29DOPE   H3Y 3697   7.160   2.009  15.423  0.6279 -3.1985  0.4570
   29DOPE   C34 3698   7.072   2.017  15.236  0.9851 -0.1577  0.0298
   29DOPE   H4X 3699   7.110   2.120  15.223 -0.4599  0.8851  2.9855
   29DOPE   H4Y 3700   7.148   1.941  15.210  0.1748 -0.6899 -0.8508
   29DOPE   C35 3701   6.939   2.004  15.167  0.3671  0.1585  0.1263
   29DOPE   H5X 3702   6.876   2.095  15.171 -1.2553 -0.9688  1.6981
   29DOPE   H5Y 3703   6.881   1.920  15.210  1.1109 -1.2127 -1.4188
   29DOPE   C36 3704   6.965   1.975  15.016 -0.1580  0.3785 -0.3992
   29DOPE   H6X 3705   7.026   1.883  15.009  1.3402  1.3935 -1.0785
   29DOPE   H6Y 3706   7.020   2.057  14.964  1.9629 -1.6552 -1.5051
   29DOPE   C37 3707   6.836   1.955  14.940  0.4677 -0.8521  0.6062
   29DOPE   H7X 3708   6.787   1.858  14.963  0.3215 -0.6698  1.0864
   29DOPE   H7Y 3709   6.756   2.032  14.950  1.3991  0.5403 -1.9035
   29DOPE   C38 3710   6.860   1.954  14.783  0.5038  0.5475 -0.1918
   29DOPE   H8X 3711   6.912   2.045  14.746  1.2380  0.2834  0.1520
   29DOPE   H8Y 3712   6.757   1.953  14.743  0.7555  0.1292 -0.8580
   29DOPE   C39 3713   6.941   1.833  14.731  0.0737 -0.2396 -0.0364
   29DOPE   H9X 3714   6.988   1.769  14.808  1.5272 -0.8514 -1.3869
   29DOPE  C310 3715   6.954   1.800  14.604 -0.8248 -0.1665  0.7030
   29DOPE  H10X 3716   7.033   1.728  14.577 -0.7217  0.3266 -0.3704
   29DOPE  C311 3717   6.877   1.859  14.487 -0.2029 -0.0966  0.1054
   29DOPE  H11X 3718   6.767   1.863  14.501 -0.1840  1.8545 -0.1129
   29DOPE  H11Y 3719   6.912   1.963  14.474 -0.9234  0.1387  0.0654
   29DOPE  C312 3720   6.901   1.802  14.351 -0.8642  0.0756 -0.0340
   29DOPE  H12X 3721   6.826   1.834  14.276 -0.5542  0.5728 -0.1337
   29DOPE  H12Y 3722   6.891   1.691  14.358 -0.8806 -0.0693 -1.8814
   29DOPE  C313 3723   7.045   1.837  14.297 -0.1070 -0.0894  0.2590
   29DOPE  H13X 3724   7.053   1.942  14.262  2.2230 -0.5261 -0.6891
   29DOPE  H13Y 3725   7.125   1.815  14.371 -0.7902 -2.9379  0.2712
   29DOPE  C314 3726   7.082   1.741  14.179 -0.2512 -0.5449 -0.0106
   29DOPE  H14X 3727   7.050   1.643  14.221  1.4341 -1.7679 -1.4046
   29DOPE  H14Y 3728   7.191   1.727  14.161  0.1883 -0.9655  2.5677
   29DOPE  C315 3729   7.008   1.770  14.044  0.2014  0.7380 -0.4869
   29DOPE  H15X 3730   7.066   1.844  13.984 -0.1380  1.3371 -0.0806
   29DOPE  H15Y 3731   6.911   1.818  14.069 -1.9894 -3.5105  0.1138
   29DOPE  C316 3732   6.990   1.639  13.967  0.6943  0.2108 -0.4072
   29DOPE  H16X 3733   6.933   1.576  14.039  0.2072  2.7881  1.6387
   29DOPE  H16Y 3734   7.090   1.591  13.954  0.7691  0.2925 -0.1376
   29DOPE  C317 3735   6.925   1.650  13.827 -0.0054  0.3997  0.4429
   29DOPE  H17X 3736   6.816   1.630  13.831 -0.0650 -0.0451 -1.8108
   29DOPE  H17Y 3737   6.946   1.752  13.788 -1.1187  0.0936 -1.0574
   29DOPE  C318 3738   6.981   1.551  13.722 -0.0593  0.4754  0.8613
   29DOPE  H18X 3739   7.088   1.562  13.694 -0.3664  0.3054 -0.4382
   29DOPE  H18Y 3740   6.960   1.446  13.747  0.7809 -0.2779 -1.3002
   29DOPE  H18Z 3741   6.927   1.554  13.625 -1.1052 -0.7722  1.3961
   30DOPE     N 3742   0.756   1.128  16.308 -0.4118 -0.2837 -0.2407
   30DOPE   HN1 3743   0.814   1.084  16.382  0.3338 -0.1126 -0.7059
   30DOPE   HN2 3744   0.742   1.063  16.228  1.1386  1.1454 -1.7525
   30DOPE   HN3 3745   0.826   1.193  16.265 -0.6165 -0.9142 -1.5670
   30DOPE   C12 3746   0.649   1.225  16.347 -0.0825 -0.5129  0.0774
   30DOPE  H12A 3747   0.600   1.265  16.256 -0.5072 -1.0734  0.0541
   30DOPE  H12B 3748   0.696   1.304  16.410  0.2051 -1.3715  0.9720
   30DOPE   C11 3749   0.547   1.152  16.434 -0.3076  0.6001  0.1363
   30DOPE  H11A 3750   0.475   1.229  16.469  0.2620  0.5458  1.4901
   30DOPE  H11B 3751   0.591   1.113  16.528 -0.2894 -0.1618 -0.1820
   30DOPE     P 3752   0.411   0.933  16.406  0.3387  0.0185  0.0626
   30DOPE   O13 3753   0.326   0.972  16.525  0.3521  0.3411  0.6357
   30DOPE   O14 3754   0.510   0.829  16.424  0.0342  0.0373  0.0451
   30DOPE   O11 3755   0.314   0.894  16.284 -0.4991 -0.1187  0.1279
   30DOPE   O12 3756   0.480   1.060  16.349  0.1081  0.5248 -0.0827
   30DOPE    C1 3757   0.181   0.945  16.268  0.1037  0.6422 -1.0337
   30DOPE    HA 3758   0.157   1.000  16.361 -0.5197 -0.9233 -0.2268
   30DOPE    HB 3759   0.109   0.862  16.248 -0.7083  0.7121  1.2639
   30DOPE    C2 3760   0.164   1.043  16.146  0.7205 -0.7638 -0.2003
   30DOPE    HS 3761   0.080   1.114  16.159  2.0543  0.6555  1.1271
   30DOPE   O21 3762   0.158   0.978  16.015  0.1486 -0.1148 -0.3596
   30DOPE   C21 3763   0.048   0.913  15.999 -0.6554  0.4097 -0.7121
   30DOPE   O22 3764  -0.044   0.920  16.084 -0.0319 -0.3346  0.1362
   30DOPE   C22 3765   0.053   0.833  15.867 -0.3900  0.3166  0.1298
   30DOPE   H2R 3766   0.153   0.786  15.861  0.1839  1.6355 -1.2870
   30DOPE   H2S 3767   0.039   0.906  15.785  0.0067 -0.1570 -0.3649
   30DOPE    C3 3768   0.271   1.145  16.128 -0.1160  0.5011 -0.2193
   30DOPE    HX 3769   0.369   1.092  16.124  0.2597  1.2443 -1.7106
   30DOPE    HY 3770   0.268   1.217  16.212 -0.0313 -1.6020  1.6803
   30DOPE   O31 3771   0.239   1.235  16.015 -0.1656  0.6484  0.4695
   30DOPE   C31 3772   0.350   1.303  15.968 -0.1371  0.1952  0.2615
   30DOPE   O32 3773   0.460   1.285  16.014  0.1778 -0.4765 -0.1100
   30DOPE   C32 3774   0.306   1.381  15.847 -0.8540 -0.4074 -0.1401
   30DOPE   H2X 3775   0.351   1.322  15.764  0.6910  0.4112  0.0758
   30DOPE   H2Y 3776   0.196   1.399  15.846 -0.4442  2.6756 -0.1944
   30DOPE   C23 3777  -0.051   0.721  15.857  1.0269 -0.0337 -0.0330
   30DOPE   H3R 3778  -0.069   0.666  15.953 -2.0388  1.1619  0.2040
   30DOPE   H3S 3779  -0.037   0.650  15.773 -0.3111  0.3406 -0.6077
   30DOPE   C24 3780  -0.194   0.779  15.817  0.3588  0.4484 -0.7042
   30DOPE   H4R 3781  -0.228   0.857  15.889  1.6034 -1.5973  2.3164
   30DOPE   H4S 3782  -0.268   0.698  15.831  2.0511 -1.0939 -0.1703
   30DOPE   C25 3783  -0.203   0.819  15.669 -0.0385  0.0976  0.9194
   30DOPE   H5R 3784  -0.165   0.730  15.615  0.9810  1.0466 -0.0115
   30DOPE   H5S 3785  -0.149   0.909  15.631 -2.2457  0.2227 -2.2869
   30DOPE   C26 3786  -0.352   0.841  15.640  0.0699  0.1613  0.0662
   30DOPE   H6R 3787  -0.377   0.941  15.683 -0.0624  0.4201 -0.5999
   30DOPE   H6S 3788  -0.409   0.762  15.693 -0.1175  0.2973  0.0656
   30DOPE   C27 3789  -0.384   0.831  15.489 -0.1645  0.1819  0.2289
   30DOPE   H7R 3790  -0.363   0.724  15.466 -4.2339 -0.5633 -0.8082
   30DOPE   H7S 3791  -0.312   0.875  15.417  1.2114 -0.5000  1.1566
   30DOPE   C28 3792  -0.535   0.865  15.465  0.0200  0.4763  0.5643
   30DOPE   H8R 3793  -0.535   0.976  15.474 -0.2770  0.5965 -0.7057
   30DOPE   H8S 3794  -0.601   0.820  15.542 -0.5317 -0.5883 -0.5025
   30DOPE   C29 3795  -0.572   0.815  15.324  0.1535  0.6402 -0.4325
   30DOPE   H9R 3796  -0.497   0.821  15.243  0.6532  1.2113  0.0619
   30DOPE  C210 3797  -0.689   0.768  15.288 -0.0258 -0.4304 -0.3522
   30DOPE  H10R 3798  -0.711   0.750  15.181 -1.2127 -0.8636 -0.0466
   30DOPE  C211 3799  -0.819   0.753  15.366 -0.2273  0.2496  0.6913
   30DOPE  H11R 3800  -0.796   0.742  15.474  0.0535  0.6871  0.6762
   30DOPE  H11S 3801  -0.865   0.659  15.329 -0.6769  0.5195  0.5549
   30DOPE  C212 3802  -0.917   0.864  15.343  0.0706  0.3004 -0.4806
   30DOPE  H12R 3803  -0.872   0.953  15.392  1.0874 -1.8697  2.8675
   30DOPE  H12S 3804  -1.003   0.846  15.411 -0.9675  2.1144 -1.2294
   30DOPE  C213 3805  -0.967   0.877  15.202 -0.3780  0.5613 -0.7725
   30DOPE  H13R 3806  -1.001   0.777  15.169 -0.0469 -0.0858  0.8028
   30DOPE  H13S 3807  -0.880   0.906  15.139 -0.7350  0.5508 -1.2785
   30DOPE  C214 3808  -1.078   0.990  15.193  0.2090 -0.2633  0.1846
   30DOPE  H14R 3809  -1.046   1.086  15.237  1.2954  0.1929 -1.5330
   30DOPE  H14S 3810  -1.165   0.939  15.241  0.9280 -2.8551 -1.0646
   30DOPE  C215 3811  -1.119   1.026  15.046 -0.5087  0.2995 -0.7543
   30DOPE  H15R 3812  -1.159   0.938  14.992 -0.7900  1.2105 -2.0931
   30DOPE  H15S 3813  -1.020   1.040  14.996 -1.0838 -0.4933 -2.1699
   30DOPE  C216 3814  -1.224   1.132  15.032  0.1173  0.5431 -0.4118
   30DOPE  H16R 3815  -1.201   1.225  15.088 -1.3224  2.2292 -2.4320
   30DOPE  H16S 3816  -1.317   1.088  15.073  0.1644  1.1988  0.4506
   30DOPE  C217 3817  -1.249   1.182  14.889  0.1768  0.3619 -0.0815
   30DOPE  H17R 3818  -1.152   1.221  14.851  0.3926  0.0864  0.1859
   30DOPE  H17S 3819  -1.330   1.257  14.885  0.4678  0.6364 -0.9502
   30DOPE  C218 3820  -1.301   1.072  14.792 -0.2549 -0.7165 -0.4862
   30DOPE  H18R 3821  -1.321   1.108  14.689 -0.5881  0.3470 -0.0682
   30DOPE  H18S 3822  -1.392   1.019  14.824 -1.3479  0.0030 -2.2520
   30DOPE  H18T 3823  -1.220   0.997  14.781  0.1293 -0.5075  0.6869
   30DOPE   C33 3824   0.361   1.524  15.839 -0.6938 -0.6091 -0.1883
   30DOPE   H3X 3825   0.469   1.503  15.824  0.0485  1.2258  1.9531
   30DOPE   H3Y 3826   0.342   1.592  15.925  1.7814  0.6503 -0.5312
   30DOPE   C34 3827   0.308   1.591  15.711  0.0607  0.1594 -1.0951
   30DOPE   H4X 3828   0.306   1.519  15.627  2.6496  0.5541 -1.5725
   30DOPE   H4Y 3829   0.208   1.620  15.749  1.2128  3.7738 -0.4158
   30DOPE   C35 3830   0.386   1.713  15.671  0.0648  0.3884  0.2151
   30DOPE   H5X 3831   0.465   1.685  15.598  0.7123  2.7461 -0.0742
   30DOPE   H5Y 3832   0.436   1.767  15.754  0.5499  0.3205 -0.0255
   30DOPE   C36 3833   0.295   1.818  15.607  0.4160  0.2469  1.2174
   30DOPE   H6X 3834   0.370   1.888  15.564 -1.2084  1.1036 -0.3152
   30DOPE   H6Y 3835   0.233   1.871  15.682  1.2714  1.0874  1.3516
   30DOPE   C37 3836   0.217   1.766  15.480 -1.0579 -0.2101  0.1109
   30DOPE   H7X 3837   0.292   1.709  15.420  1.7268  2.3177  0.9331
   30DOPE   H7Y 3838   0.128   1.709  15.514 -1.5209  0.1076 -0.5585
   30DOPE   C38 3839   0.171   1.889  15.385  0.2343 -0.3336  0.2059
   30DOPE   H8X 3840   0.256   1.957  15.367  0.8254 -0.7619  1.2703
   30DOPE   H8Y 3841   0.104   1.952  15.446 -0.3817 -0.5272 -0.2571
   30DOPE   C39 3842   0.109   1.857  15.252  0.6780 -0.1671  0.4970
   30DOPE   H9X 3843   0.169   1.782  15.198  0.3573 -0.7079  0.8800
   30DOPE  C310 3844  -0.012   1.884  15.201 -0.5124 -0.7290 -0.0205
   30DOPE  H10X 3845  -0.022   1.845  15.099 -0.7669 -1.5953  0.3202
   30DOPE  C311 3846  -0.123   1.972  15.252  0.2088  0.1450 -0.5048
   30DOPE  H11X 3847  -0.193   1.910  15.311 -1.8106  0.7050 -2.1830
   30DOPE  H11Y 3848  -0.078   2.046  15.322  0.8341 -1.3720  0.7599
   30DOPE  C312 3849  -0.207   2.044  15.144 -0.0900  0.1612 -0.3323
   30DOPE  H12X 3850  -0.148   2.133  15.116  0.1919  0.3147  0.7167
   30DOPE  H12Y 3851  -0.304   2.079  15.186 -0.3876 -1.7629  0.7058
   30DOPE  C313 3852  -0.244   1.957  15.021  0.0742 -0.5386  0.4607
   30DOPE  H13X 3853  -0.156   1.948  14.954 -0.8963  1.0750 -1.1225
   30DOPE  H13Y 3854  -0.273   1.861  15.069  0.3916 -0.3361  1.0620
   30DOPE  C314 3855  -0.364   2.018  14.942 -0.6709 -0.1062 -0.2848
   30DOPE  H14X 3856  -0.342   2.116  14.895 -0.1670 -0.3590 -0.5780
   30DOPE  H14Y 3857  -0.439   2.036  15.022 -0.9379 -0.0342 -0.5485
   30DOPE  C315 3858  -0.423   1.924  14.832 -0.2499  0.2859  0.1945
   30DOPE  H15X 3859  -0.510   1.980  14.793 -0.1530  0.4725  0.2431
   30DOPE  H15Y 3860  -0.457   1.826  14.872  0.9204  0.0432  0.6465
   30DOPE  C316 3861  -0.335   1.897  14.711 -0.2485  0.5535  0.2750
   30DOPE  H16X 3862  -0.233   1.937  14.727  0.0689 -0.0970 -0.0630
   30DOPE  H16Y 3863  -0.386   1.948  14.627  1.5372 -0.1128 -1.2863
   30DOPE  C317 3864  -0.317   1.747  14.675 -1.0105  0.2364 -0.0037
   30DOPE  H17X 3865  -0.410   1.690  14.653 -0.0990 -1.3755  0.1769
   30DOPE  H17Y 3866  -0.265   1.736  14.577 -1.1988  1.1617 -0.2205
   30DOPE  C318 3867  -0.239   1.664  14.776 -0.0474  0.0594 -0.3252
   30DOPE  H18X 3868  -0.184   1.587  14.718 -0.6292 -0.0870 -0.6784
   30DOPE  H18Y 3869  -0.156   1.720  14.825  1.5134 -1.3317 -1.2712
   30DOPE  H18Z 3870  -0.293   1.629  14.866  4.2547  0.8636  2.9371
   31DOPE     N 3871   1.561   5.757  12.158  0.3720  0.0233 -0.0633
   31DOPE   HN1 3872   1.504   5.801  12.083 -0.1000 -3.2341 -1.7596
   31DOPE   HN2 3873   1.601   5.672  12.115  0.7939  0.7188 -1.0869
   31DOPE   HN3 3874   1.489   5.725  12.226 -1.3808  0.5101 -1.5843
   31DOPE   C12 3875   1.665   5.842  12.220 -0.1956 -0.4521  0.3415
   31DOPE  H12A 3876   1.613   5.923  12.276 -0.4393 -1.0504  0.9852
   31DOPE  H12B 3877   1.739   5.878  12.145 -1.0655  3.0019  0.9708
   31DOPE   C11 3878   1.751   5.752  12.314  0.7392 -0.7215  0.2982
   31DOPE  H11A 3879   1.687   5.713  12.397 -0.9315 -0.1409 -0.6652
   31DOPE  H11B 3880   1.831   5.803  12.373 -1.1178  3.2036 -0.2496
   31DOPE     P 3881   1.873   5.518  12.307  0.1477 -0.1079  0.3554
   31DOPE   O13 3882   2.015   5.541  12.292 -0.1954  0.4093  0.1127
   31DOPE   O14 3883   1.805   5.404  12.238 -0.2683 -0.3731 -0.4102
   31DOPE   O11 3884   1.822   5.518  12.449  0.0283  0.0670  0.0360
   31DOPE   O12 3885   1.810   5.648  12.237 -0.0550 -0.1224 -0.3105
   31DOPE    C1 3886   1.882   5.576  12.566 -0.0940  0.4973 -0.1033
   31DOPE    HA 3887   1.798   5.624  12.620  0.6310  1.3050  0.3378
   31DOPE    HB 3888   1.950   5.656  12.528  0.8633 -1.0175 -1.7523
   31DOPE    C2 3889   1.971   5.474  12.639  0.9506 -0.5392  0.3744
   31DOPE    HS 3890   2.033   5.429  12.558  1.4378 -1.5471  1.2891
   31DOPE   O21 3891   1.882   5.374  12.688 -0.5164  0.1191 -1.2291
   31DOPE   C21 3892   1.942   5.257  12.716 -0.7173 -0.4441 -0.7426
   31DOPE   O22 3893   2.065   5.237  12.694  0.9715  0.2161  0.1241
   31DOPE   C22 3894   1.839   5.153  12.772 -0.3056 -0.1671  0.0279
   31DOPE   H2R 3895   1.911   5.075  12.804  0.3611  0.1850 -0.5907
   31DOPE   H2S 3896   1.778   5.109  12.691  1.3616 -2.4958 -0.0583
   31DOPE    C3 3897   2.063   5.546  12.745  0.3307  0.6913  0.2872
   31DOPE    HX 3898   2.135   5.606  12.685  1.2045  0.4229  1.0263
   31DOPE    HY 3899   2.119   5.462  12.792 -0.1304 -1.4824 -2.7851
   31DOPE   O31 3900   1.987   5.629  12.833  0.2903  0.1536 -0.5975
   31DOPE   C31 3901   1.935   5.563  12.943  0.3312  0.6819  1.3372
   31DOPE   O32 3902   1.956   5.445  12.961  0.4744 -0.5787  0.0076
   31DOPE   C32 3903   1.853   5.650  13.036  0.2005  0.0994 -0.2921
   31DOPE   H2X 3904   1.905   5.748  13.043  1.4459 -0.6178  0.8251
   31DOPE   H2Y 3905   1.756   5.683  12.993 -0.3441 -0.4180  0.4982
   31DOPE   C23 3906   1.753   5.205  12.888  0.8558  0.7955 -0.0197
   31DOPE   H3R 3907   1.757   5.316  12.899  0.4744  0.7502  0.6588
   31DOPE   H3S 3908   1.798   5.160  12.979 -2.3010 -1.0125  0.8015
   31DOPE   C24 3909   1.613   5.149  12.887  0.1557 -0.1358  0.1862
   31DOPE   H4R 3910   1.622   5.038  12.879  0.1229 -0.1896  0.8243
   31DOPE   H4S 3911   1.561   5.196  12.801  0.4731  1.9055  1.0525
   31DOPE   C25 3912   1.526   5.174  13.018  0.0994 -0.0126  0.4085
   31DOPE   H5R 3913   1.566   5.114  13.102  0.8301  1.8878  1.4821
   31DOPE   H5S 3914   1.423   5.140  12.991  0.6952  0.0701 -2.3061
   31DOPE   C26 3915   1.512   5.318  13.058  0.0150  0.1232  0.4403
   31DOPE   H6R 3916   1.607   5.359  13.099 -1.3015  3.2019  0.6551
   31DOPE   H6S 3917   1.435   5.314  13.137 -0.4743 -2.7086 -0.0750
   31DOPE   C27 3918   1.469   5.420  12.952 -0.3290 -0.0519 -0.2934
   31DOPE   H7R 3919   1.377   5.403  12.891 -1.0139  1.8323  0.1371
   31DOPE   H7S 3920   1.555   5.433  12.884  1.1306  0.7811  1.6377
   31DOPE   C28 3921   1.444   5.560  13.018  0.7704 -0.4225  0.3417
   31DOPE   H8R 3922   1.526   5.593  13.085 -0.0141 -1.4649  1.8791
   31DOPE   H8S 3923   1.350   5.566  13.077 -0.7660  2.0163 -2.1339
   31DOPE   C29 3924   1.412   5.664  12.913  0.1254  0.7235 -0.1833
   31DOPE   H9R 3925   1.384   5.624  12.814  2.6492 -0.6122 -0.4519
   31DOPE  C210 3926   1.402   5.793  12.926  0.4651  0.0778 -0.5538
   31DOPE  H10R 3927   1.374   5.853  12.839  2.2417  3.1893  0.8269
   31DOPE  C211 3928   1.435   5.874  13.052 -0.5477  0.1029  0.1636
   31DOPE  H11R 3929   1.425   5.981  13.026  1.0690  0.1656 -0.3369
   31DOPE  H11S 3930   1.543   5.853  13.068 -0.2292  0.7411 -1.0192
   31DOPE  C212 3931   1.349   5.847  13.175 -0.2624  0.3822  0.4963
   31DOPE  H12R 3932   1.346   5.736  13.184 -0.4032  0.3420 -0.0086
   31DOPE  H12S 3933   1.244   5.877  13.151 -0.0629  1.0332  0.4261
   31DOPE  C213 3934   1.389   5.916  13.305 -0.5623 -0.2455  0.7800
   31DOPE  H13R 3935   1.392   6.025  13.284  2.6475 -0.6119 -1.3296
   31DOPE  H13S 3936   1.493   5.887  13.330  0.2440  1.2629 -0.6968
   31DOPE  C214 3937   1.297   5.880  13.424 -0.7860 -0.3248 -0.9756
   31DOPE  H14R 3938   1.327   5.787  13.476  0.3130  0.4378 -0.2203
   31DOPE  H14S 3939   1.193   5.851  13.395 -0.8483 -2.6891  1.2422
   31DOPE  C215 3940   1.280   5.989  13.539 -0.4677 -0.1333 -0.1283
   31DOPE  H15R 3941   1.181   5.975  13.587 -0.1307 -0.4056  0.5102
   31DOPE  H15S 3942   1.296   6.084  13.484  2.5720  0.2177  1.1529
   31DOPE  C216 3943   1.405   5.973  13.638  0.4976  0.0487 -0.8309
   31DOPE  H16R 3944   1.499   6.001  13.585  0.3893 -0.0846 -1.0977
   31DOPE  H16S 3945   1.408   5.870  13.681  0.6271  0.2998 -0.2394
   31DOPE  C217 3946   1.390   6.066  13.764  0.0458 -1.0641 -0.1355
   31DOPE  H17R 3947   1.388   6.172  13.730  0.7561 -1.3282 -1.0113
   31DOPE  H17S 3948   1.474   6.041  13.833 -1.3283  1.2018  2.5640
   31DOPE  C218 3949   1.262   6.049  13.854  0.3268 -0.0666 -0.0222
   31DOPE  H18R 3950   1.170   6.102  13.822  0.0126 -1.5178 -1.6945
   31DOPE  H18S 3951   1.279   6.089  13.956  2.0330 -1.1106  0.1469
   31DOPE  H18T 3952   1.233   5.942  13.860  1.2219 -0.3654 -0.7335
   31DOPE   C33 3953   1.828   5.582  13.166 -0.0927  0.1502 -0.6075
   31DOPE   H3X 3954   1.911   5.539  13.225  0.6132  0.7910 -1.1291
   31DOPE   H3Y 3955   1.764   5.492  13.153  0.0564 -0.2588  1.2358
   31DOPE   C34 3956   1.767   5.677  13.278 -0.3607  0.4128 -0.2219
   31DOPE   H4X 3957   1.858   5.725  13.321  1.3500  0.3104 -3.3911
   31DOPE   H4Y 3958   1.713   5.753  13.218  1.0070  0.4737 -1.4444
   31DOPE   C35 3959   1.667   5.608  13.376 -0.5478  0.5027 -0.0004
   31DOPE   H5X 3960   1.630   5.511  13.336  0.5632 -0.3738  1.0355
   31DOPE   H5Y 3961   1.581   5.675  13.399 -1.9221 -1.1346 -0.1633
   31DOPE   C36 3962   1.735   5.563  13.510 -0.9254  0.7024 -0.4301
   31DOPE   H6X 3963   1.790   5.644  13.562 -0.9291  0.2644  0.2567
   31DOPE   H6Y 3964   1.805   5.479  13.493 -0.4072  1.4287 -2.2104
   31DOPE   C37 3965   1.625   5.506  13.609 -0.5337  0.1414  0.2893
   31DOPE   H7X 3966   1.562   5.592  13.642  3.0030  2.4200  1.7394
   31DOPE   H7Y 3967   1.569   5.425  13.557  1.0420 -0.7311 -0.1140
   31DOPE   C38 3968   1.683   5.450  13.742 -0.4831 -0.5403 -0.0203
   31DOPE   H8X 3969   1.756   5.369  13.718  1.3723  0.8549  0.6564
   31DOPE   H8Y 3970   1.600   5.409  13.804 -1.2013 -1.8127 -1.7343
   31DOPE   C39 3971   1.777   5.554  13.804 -0.7363 -0.4607  0.0847
   31DOPE   H9X 3972   1.863   5.588  13.746 -0.7783 -2.6954 -1.3836
   31DOPE  C310 3973   1.765   5.612  13.922 -0.1010  0.6134 -0.7316
   31DOPE  H10X 3974   1.831   5.698  13.936  1.4586 -0.6966  0.4341
   31DOPE  C311 3975   1.661   5.581  14.026  0.5254  0.1895 -0.3011
   31DOPE  H11X 3976   1.616   5.484  13.994  1.4027 -0.4705  0.3827
   31DOPE  H11Y 3977   1.700   5.568  14.129 -0.5371 -0.9108 -0.0113
   31DOPE  C312 3978   1.554   5.692  14.028  0.4896 -0.1684 -0.5831
   31DOPE  H12X 3979   1.529   5.701  13.920 -0.0097 -0.3728 -0.4876
   31DOPE  H12Y 3980   1.597   5.786  14.067  0.1813 -0.0129 -0.6113
   31DOPE  C313 3981   1.423   5.656  14.102 -0.4285 -0.3351  1.0915
   31DOPE  H13X 3982   1.341   5.725  14.073 -0.1933  0.7944  2.9415
   31DOPE  H13Y 3983   1.403   5.551  14.071  2.2844 -0.9933  1.2467
   31DOPE  C314 3984   1.427   5.678  14.254 -0.5012  0.5916 -0.5489
   31DOPE  H14X 3985   1.515   5.623  14.294 -0.3824  1.2242  0.0678
   31DOPE  H14Y 3986   1.337   5.639  14.306 -0.0917 -0.6711 -0.7505
   31DOPE  C315 3987   1.451   5.815  14.304  0.2945  0.4976  0.7283
   31DOPE  H15X 3988   1.552   5.839  14.264  0.8618 -2.2049  0.3546
   31DOPE  H15Y 3989   1.444   5.815  14.415 -1.4406  2.2357  0.6822
   31DOPE  C316 3990   1.348   5.919  14.251  0.1617 -0.5449 -0.9240
   31DOPE  H16X 3991   1.250   5.885  14.291  0.5972  0.2326  0.9604
   31DOPE  H16Y 3992   1.354   5.934  14.141 -0.1357 -0.9312 -0.9943
   31DOPE  C317 3993   1.380   6.060  14.321 -0.1084  0.5544 -0.2108
   31DOPE  H17X 3994   1.490   6.080  14.318  0.2505 -1.0978  0.3626
   31DOPE  H17Y 3995   1.333   6.133  14.252  1.0265 -0.6429 -2.3725
   31DOPE  C318 3996   1.323   6.068  14.464 -0.2316  0.4040  0.0639
   31DOPE  H18X 3997   1.367   6.155  14.518 -0.3408  0.2395  0.4248
   31DOPE  H18Y 3998   1.213   6.065  14.474 -0.0030 -1.3323  3.4577
   31DOPE  H18Z 3999   1.347   5.972  14.516 -0.1347  0.9524  1.0655
   32DOPE     N 4000   4.255   4.348  11.989 -0.4906  0.5140  0.4393
   32DOPE   HN1 4001   4.223   4.314  11.896 -0.6201 -2.3232  1.4307
   32DOPE   HN2 4002   4.210   4.442  11.999 -0.1600  0.6205  0.9559
   32DOPE   HN3 4003   4.358   4.349  11.991 -0.2553 -3.6887 -0.4076
   32DOPE   C12 4004   4.205   4.243  12.090 -0.0042 -0.1905  0.2875
   32DOPE  H12A 4005   4.211   4.276  12.196 -1.3091  1.7444 -0.1771
   32DOPE  H12B 4006   4.260   4.149  12.073  0.1974 -0.1737  0.8314
   32DOPE   C11 4007   4.053   4.209  12.073  0.0751 -0.3828  0.2434
   32DOPE  H11A 4008   3.999   4.305  12.066  2.2311  0.8341 -0.9167
   32DOPE  H11B 4009   4.011   4.158  12.162 -2.8736 -0.5480 -1.1461
   32DOPE     P 4010   3.917   4.033  11.935 -0.3022  0.0962  0.1424
   32DOPE   O13 4011   3.959   3.952  11.819 -0.1731  0.1456  0.2197
   32DOPE   O14 4012   3.779   4.091  11.936  0.2665  0.2908  0.2957
   32DOPE   O11 4013   3.931   3.941  12.064  0.0669  0.1599  0.0545
   32DOPE   O12 4014   4.026   4.137  11.956 -0.5104 -0.1235  0.0334
   32DOPE    C1 4015   4.047   3.860  12.080 -0.1015 -0.0110 -0.2419
   32DOPE    HA 4016   4.136   3.906  12.031 -0.2326  1.0961  0.5095
   32DOPE    HB 4017   4.021   3.774  12.014 -2.6133 -2.0243  3.0872
   32DOPE    C2 4018   4.078   3.817  12.231  0.0263 -0.9819 -0.7450
   32DOPE    HS 4019   3.977   3.775  12.253 -0.6696  0.2119 -1.5630
   32DOPE   O21 4020   4.120   3.931  12.310  0.0399 -0.1387 -0.0232
   32DOPE   C21 4021   4.053   3.922  12.424 -0.1011  0.0967 -0.1892
   32DOPE   O22 4022   3.960   3.853  12.454  0.6089 -0.1892  0.5259
   32DOPE   C22 4023   4.130   4.020  12.514 -0.6938 -0.1824 -0.2681
   32DOPE   H2R 4024   4.098   4.115  12.466 -3.9993 -0.3216  1.3732
   32DOPE   H2S 4025   4.240   4.012  12.508 -0.7149 -0.2373 -0.6442
   32DOPE    C3 4026   4.192   3.718  12.235 -0.1632  0.0106  0.3254
   32DOPE    HX 4027   4.283   3.761  12.189  0.2101 -2.2574 -1.1956
   32DOPE    HY 4028   4.162   3.644  12.158 -1.6643 -0.0446  0.9156
   32DOPE   O31 4029   4.217   3.658  12.359 -0.2078 -0.3433  0.5877
   32DOPE   C31 4030   4.329   3.703  12.415 -0.2799 -0.2270 -0.2851
   32DOPE   O32 4031   4.398   3.794  12.383 -0.2399 -0.4374 -0.5394
   32DOPE   C32 4032   4.349   3.621  12.542  0.3901 -0.2601 -0.4982
   32DOPE   H2X 4033   4.295   3.524  12.530 -1.4892  0.8472 -1.4034
   32DOPE   H2Y 4034   4.458   3.602  12.553  0.9432  1.2335 -2.7132
   32DOPE   C23 4035   4.111   4.026  12.667 -0.0882  0.4283 -0.2764
   32DOPE   H3R 4036   4.151   3.933  12.713  0.5877  0.6644 -0.3639
   32DOPE   H3S 4037   4.003   4.020  12.691 -0.2643 -0.5753 -1.2638
   32DOPE   C24 4038   4.194   4.132  12.735  0.4534 -0.1376 -0.5285
   32DOPE   H4R 4039   4.157   4.234  12.712  1.4136 -0.3775 -3.7748
   32DOPE   H4S 4040   4.300   4.131  12.700  0.6504  0.9768 -0.0103
   32DOPE   C25 4041   4.202   4.117  12.890  0.8998 -0.2183 -0.1476
   32DOPE   H5R 4042   4.226   4.011  12.914 -0.9013 -0.9915 -1.4818
   32DOPE   H5S 4043   4.113   4.151  12.948 -0.7696 -0.5849 -2.3637
   32DOPE   C26 4044   4.315   4.201  12.954 -0.0346  0.0050  0.2905
   32DOPE   H6R 4045   4.277   4.298  12.992  1.7886  0.8456  0.0582
   32DOPE   H6S 4046   4.396   4.218  12.881  0.0551 -2.8792 -0.4076
   32DOPE   C27 4047   4.376   4.136  13.084 -0.0870  0.0759  0.2679
   32DOPE   H7R 4048   4.462   4.078  13.045 -0.4537 -0.0276 -0.3862
   32DOPE   H7S 4049   4.308   4.060  13.127  0.1143  1.8109  4.1195
   32DOPE   C28 4050   4.448   4.225  13.192 -0.3149  0.6486 -0.3666
   32DOPE   H8R 4051   4.510   4.300  13.138  1.0135  1.4511  2.1035
   32DOPE   H8S 4052   4.518   4.162  13.251 -2.7793 -0.9711  1.0255
   32DOPE   C29 4053   4.337   4.291  13.282  0.0421  0.2709 -0.1877
   32DOPE   H9R 4054   4.262   4.340  13.218 -0.9974 -1.1311 -0.1114
   32DOPE  C210 4055   4.324   4.295  13.412  0.2147  0.2190 -0.6419
   32DOPE  H10R 4056   4.239   4.351  13.454  1.1741  1.1386  0.1483
   32DOPE  C211 4057   4.415   4.247  13.527  0.1959 -0.3857 -0.4962
   32DOPE  H11R 4058   4.524   4.235  13.511  0.8281  0.2914  2.6468
   32DOPE  H11S 4059   4.383   4.147  13.562 -0.5161  0.1443  0.4162
   32DOPE  C212 4060   4.410   4.329  13.655  0.1500  0.0851 -0.9955
   32DOPE  H12R 4061   4.311   4.320  13.705  1.4152  0.9646  1.8371
   32DOPE  H12S 4062   4.445   4.433  13.640  0.1826  0.3165  0.5072
   32DOPE  C213 4063   4.506   4.266  13.759 -0.2462  0.2119  0.3441
   32DOPE  H13R 4064   4.605   4.315  13.767 -0.7001  1.2923 -0.4758
   32DOPE  H13S 4065   4.523   4.162  13.725  3.3545  1.3812 -2.0465
   32DOPE  C214 4066   4.454   4.265  13.901  0.0132  0.0196 -1.1676
   32DOPE  H14R 4067   4.351   4.225  13.903  0.0502 -0.0622  0.6064
   32DOPE  H14S 4068   4.450   4.370  13.938  1.4443 -1.1411  2.7942
   32DOPE  C215 4069   4.551   4.202  14.003  0.9690  0.1564  0.1037
   32DOPE  H15R 4070   4.636   4.269  14.025  1.1394 -0.5712  1.7812
   32DOPE  H15S 4071   4.589   4.107  13.959 -0.1343  0.1579 -0.8935
   32DOPE  C216 4072   4.470   4.161  14.131  0.2652  0.2518 -0.3933
   32DOPE  H16R 4073   4.525   4.075  14.175 -0.3693 -0.1664 -0.3934
   32DOPE  H16S 4074   4.370   4.122  14.101 -0.3248 -0.5564  2.3534
   32DOPE  C217 4075   4.466   4.272  14.238 -0.6438 -0.2910  0.4011
   32DOPE  H17R 4076   4.395   4.352  14.210 -0.7801  0.1766  1.9884
   32DOPE  H17S 4077   4.571   4.307  14.249 -0.4138 -1.0005  0.4968
   32DOPE  C218 4078   4.415   4.232  14.377 -0.4993  0.5064 -0.1451
   32DOPE  H18R 4079   4.479   4.152  14.421 -0.9579 -0.6706 -1.5381
   32DOPE  H18S 4080   4.309   4.198  14.372 -0.0466 -1.0604  0.1626
   32DOPE  H18T 4081   4.420   4.318  14.448 -2.8327  0.4673  0.1477
   32DOPE   C33 4082   4.301   3.685  12.674 -0.2190 -0.1406  0.0638
   32DOPE   H3X 4083   4.195   3.713  12.653 -0.4528 -1.2533 -0.3260
   32DOPE   H3Y 4084   4.363   3.773  12.701 -0.6786 -0.1059  1.0465
   32DOPE   C34 4085   4.303   3.583  12.787 -0.2661  0.1265 -0.7923
   32DOPE   H4X 4086   4.251   3.490  12.758 -0.4968 -0.2178  0.6250
   32DOPE   H4Y 4087   4.408   3.548  12.796  0.3259  1.4914 -1.9947
   32DOPE   C35 4088   4.246   3.642  12.916 -0.1287  0.3743 -0.0881
   32DOPE   H5X 4089   4.216   3.559  12.984 -0.2210  1.4606  1.2357
   32DOPE   H5Y 4090   4.157   3.697  12.878 -1.2182 -0.1138  1.6098
   32DOPE   C36 4091   4.343   3.736  12.990  0.8189  0.4378 -0.3724
   32DOPE   H6X 4092   4.284   3.823  13.026  1.5787  0.2533  1.4194
   32DOPE   H6Y 4093   4.414   3.775  12.914 -0.7548 -0.3619 -2.3276
   32DOPE   C37 4094   4.407   3.668  13.111  0.0936 -0.4128  0.1739
   32DOPE   H7X 4095   4.424   3.564  13.075 -0.4596 -0.3720 -0.2108
   32DOPE   H7Y 4096   4.498   3.730  13.129 -1.2423  1.8690 -0.5777
   32DOPE   C38 4097   4.316   3.659  13.241  0.8805  0.5625  0.1600
   32DOPE   H8X 4098   4.353   3.578  13.306 -3.1042  0.2051  2.3338
   32DOPE   H8Y 4099   4.228   3.605  13.199  1.0491 -0.0927  0.6453
   32DOPE   C39 4100   4.292   3.798  13.304  0.2703  0.1414 -1.2560
   32DOPE   H9X 4101   4.255   3.876  13.236 -2.1776  0.8291  0.7092
   32DOPE  C310 4102   4.359   3.846  13.412  0.0697 -0.0444  0.7049
   32DOPE  H10X 4103   4.332   3.946  13.451  1.8558  0.3920  0.9055
   32DOPE  C311 4104   4.458   3.779  13.500 -0.3989  0.4869 -0.3366
   32DOPE  H11X 4105   4.496   3.684  13.456  1.9343  1.1098  0.2251
   32DOPE  H11Y 4106   4.556   3.829  13.513 -0.4401  0.3858  0.4201
   32DOPE  C312 4107   4.395   3.755  13.636  0.0671 -0.0857  0.3015
   32DOPE  H12X 4108   4.470   3.694  13.691  0.5631  0.5127  0.2923
   32DOPE  H12Y 4109   4.300   3.697  13.633  0.6466 -1.0266 -1.4986
   32DOPE  C313 4110   4.374   3.878  13.720  0.0161 -0.1279  0.0368
   32DOPE  H13X 4111   4.454   3.946  13.685 -0.9776  1.5311  0.8423
   32DOPE  H13Y 4112   4.291   3.941  13.680  1.9680  0.7518 -2.8736
   32DOPE  C314 4113   4.369   3.865  13.872  0.4212  0.5855  0.2565
   32DOPE  H14X 4114   4.337   3.958  13.925 -1.9760 -0.1600  0.2366
   32DOPE  H14Y 4115   4.469   3.836  13.909 -0.6509 -2.2351  1.1645
   32DOPE  C315 4116   4.284   3.754  13.923  0.5159  0.7120 -0.5251
   32DOPE  H15X 4117   4.272   3.676  13.844  0.2902  0.2755 -0.0602
   32DOPE  H15Y 4118   4.179   3.777  13.952  1.0825 -1.4748  4.1738
   32DOPE  C316 4119   4.345   3.693  14.050 -0.2000  0.6684 -0.1555
   32DOPE  H16X 4120   4.444   3.646  14.032 -0.8349 -1.6593  1.8001
   32DOPE  H16Y 4121   4.281   3.610  14.087 -0.2954 -0.5907 -2.8871
   32DOPE  C317 4122   4.360   3.796  14.161  0.0889  0.2941 -0.3658
   32DOPE  H17X 4123   4.397   3.752  14.256 -3.6272 -2.1610  0.1566
   32DOPE  H17Y 4124   4.437   3.872  14.137  1.1950 -0.7162 -0.1172
   32DOPE  C318 4125   4.239   3.873  14.201  0.4187 -0.1604 -0.0531
   32DOPE  H18X 4126   4.155   3.803  14.219 -0.1802 -1.0930 -5.1392
   32DOPE  H18Y 4127   4.252   3.941  14.288  1.3664  0.8038 -0.9272
   32DOPE  H18Z 4128   4.206   3.937  14.117 -1.7874  1.4351  1.8837
   33DOPE     N 4129   2.721   3.884  12.485  0.0959 -0.1236 -0.8086
   33DOPE   HN1 4130   2.656   3.842  12.416 -0.8427 -1.3324  0.7479
   33DOPE   HN2 4131   2.765   3.817  12.551 -1.4855  0.4317  0.8928
   33DOPE   HN3 4132   2.666   3.943  12.550  1.4523 -1.2439  1.4785
   33DOPE   C12 4133   2.834   3.957  12.425  1.2681  0.4458 -0.3759
   33DOPE  H12A 4134   2.796   4.050  12.378  2.2087  1.1578  0.2277
   33DOPE  H12B 4135   2.876   3.895  12.344 -0.0632 -2.9879  1.3861
   33DOPE   C11 4136   2.947   3.984  12.531  0.2584  0.0010  0.4120
   33DOPE  H11A 4137   2.907   4.054  12.608  1.6537  0.7021  0.5402
   33DOPE  H11B 4138   3.032   4.035  12.480  0.2262 -0.9824 -0.6492
   33DOPE     P 4139   3.049   3.733  12.547  0.7003 -0.1235 -0.4612
   33DOPE   O13 4140   3.176   3.760  12.473 -0.3853 -0.0433 -0.4954
   33DOPE   O14 4141   2.943   3.672  12.467 -0.1514 -0.2281  0.3067
   33DOPE   O11 4142   3.080   3.642  12.670  0.0901 -0.3152 -0.1906
   33DOPE   O12 4143   2.996   3.870  12.604 -0.4503 -0.6423 -0.3415
   33DOPE    C1 4144   3.065   3.683  12.806 -0.0904  0.3490  0.3634
   33DOPE    HA 4145   3.086   3.597  12.874  2.7917  0.8194  0.1947
   33DOPE    HB 4146   2.958   3.709  12.824 -1.2704 -2.7079 -1.5461
   33DOPE    C2 4147   3.176   3.788  12.852  0.0544  0.6739  0.5959
   33DOPE    HS 4148   3.207   3.839  12.758 -0.1696  1.8035  1.1162
   33DOPE   O21 4149   3.289   3.712  12.899 -0.0259 -0.1591  0.1020
   33DOPE   C21 4150   3.409   3.775  12.910 -0.3329 -0.4296 -0.2125
   33DOPE   O22 4151   3.432   3.890  12.879  0.1649 -0.5927 -0.1143
   33DOPE   C22 4152   3.511   3.679  12.969  0.1405  0.4545 -0.1985
   33DOPE   H2R 4153   3.612   3.724  12.975 -0.0674  1.1572 -1.5874
   33DOPE   H2S 4154   3.524   3.603  12.889  0.8718  0.6308 -0.2501
   33DOPE    C3 4155   3.127   3.894  12.959 -0.0175  0.6177 -0.8102
   33DOPE    HX 4156   3.030   3.935  12.923  0.1928  4.4183  2.2414
   33DOPE    HY 4157   3.203   3.975  12.966  1.3888 -0.4783 -2.6495
   33DOPE   O31 4158   3.087   3.825  13.081  0.1001 -0.2218 -0.1368
   33DOPE   C31 4159   3.109   3.892  13.190  0.1190 -0.9068 -0.1207
   33DOPE   O32 4160   3.142   4.010  13.198 -0.6120 -0.4869 -0.0026
   33DOPE   C32 4161   3.101   3.800  13.310 -0.3115 -0.1014 -0.0123
   33DOPE   H2X 4162   3.028   3.720  13.285  0.1063 -0.6169  0.3837
   33DOPE   H2Y 4163   3.198   3.750  13.331  0.0464  0.6310  0.1125
   33DOPE   C23 4164   3.475   3.630  13.112 -0.2585  0.0226  0.3521
   33DOPE   H3R 4165   3.560   3.565  13.144 -2.0211 -3.0542 -0.8240
   33DOPE   H3S 4166   3.389   3.560  13.107 -0.3126  0.1718 -1.8075
   33DOPE   C24 4167   3.451   3.730  13.226 -0.1146  0.8540  0.0861
   33DOPE   H4R 4168   3.418   3.680  13.319  5.4238  0.1582  2.0484
   33DOPE   H4S 4169   3.361   3.792  13.205 -0.5951  0.9460  2.1957
   33DOPE   C25 4170   3.571   3.814  13.260 -0.1871 -0.2392 -0.1765
   33DOPE   H5R 4171   3.588   3.869  13.165  0.4530 -2.0641 -1.1732
   33DOPE   H5S 4172   3.663   3.758  13.284  0.1699  0.2597 -0.3624
   33DOPE   C26 4173   3.552   3.916  13.374 -0.5288 -0.4940  0.4792
   33DOPE   H6R 4174   3.465   3.985  13.372  1.0251  1.5827  0.8183
   33DOPE   H6S 4175   3.644   3.978  13.365 -0.8518 -0.1755 -0.7764
   33DOPE   C27 4176   3.557   3.846  13.515  0.3562 -0.3025  0.6155
   33DOPE   H7R 4177   3.660   3.837  13.554  0.7543  1.2858 -0.0174
   33DOPE   H7S 4178   3.510   3.746  13.500 -1.1253  0.3915  0.3752
   33DOPE   C28 4179   3.475   3.909  13.623  0.4369 -0.2316 -0.5328
   33DOPE   H8R 4180   3.491   3.842  13.711 -1.2097  1.1569  0.8770
   33DOPE   H8S 4181   3.366   3.920  13.610  0.4419 -0.2071 -0.5501
   33DOPE   C29 4182   3.533   4.047  13.654  0.2887 -0.9912  0.3913
   33DOPE   H9R 4183   3.587   4.086  13.566  0.5774 -1.4032  0.3808
   33DOPE  C210 4184   3.544   4.102  13.773 -0.1448 -0.2179 -0.3084
   33DOPE  H10R 4185   3.606   4.193  13.779  1.0173 -1.0886  1.8033
   33DOPE  C211 4186   3.477   4.055  13.901 -0.1659 -0.0195 -0.9472
   33DOPE  H11R 4187   3.444   3.950  13.891 -0.5523 -0.0455  0.3488
   33DOPE  H11S 4188   3.382   4.111  13.913 -0.2992 -0.3660 -0.3525
   33DOPE  C212 4189   3.578   4.061  14.022 -0.3716 -0.3264  0.4608
   33DOPE  H12R 4190   3.619   4.163  14.035  0.5271 -0.7128  0.7204
   33DOPE  H12S 4191   3.660   3.990  13.997  0.5537  1.1966 -0.9729
   33DOPE  C213 4192   3.511   4.018  14.149  0.4419  0.0112 -0.7956
   33DOPE  H13R 4193   3.464   3.918  14.138 -0.3928  0.4416 -1.2285
   33DOPE  H13S 4194   3.441   4.101  14.174 -1.0695 -1.2002 -0.8379
   33DOPE  C214 4195   3.607   3.988  14.266 -0.3906 -0.4845  0.1546
   33DOPE  H14R 4196   3.666   4.082  14.280  1.7010 -1.6959 -0.0774
   33DOPE  H14S 4197   3.673   3.900  14.252  0.4764 -0.1099  1.6288
   33DOPE  C215 4198   3.545   3.945  14.402  0.5875  0.6258  0.1136
   33DOPE  H15R 4199   3.482   3.855  14.383 -0.4022  1.5695 -1.3895
   33DOPE  H15S 4200   3.485   4.030  14.441  2.4399  1.4443  1.2663
   33DOPE  C216 4201   3.647   3.902  14.511  0.1510 -0.0054  0.0657
   33DOPE  H16R 4202   3.713   3.983  14.547 -0.1265  0.2054  0.0999
   33DOPE  H16S 4203   3.712   3.834  14.451 -0.3669  1.4891 -2.3047
   33DOPE  C217 4204   3.593   3.818  14.617  0.7206  0.0784 -0.5624
   33DOPE  H17R 4205   3.679   3.814  14.687  0.0153  0.3141  0.3468
   33DOPE  H17S 4206   3.559   3.720  14.576  0.5733  0.1874 -0.7013
   33DOPE  C218 4207   3.479   3.884  14.695  0.2159  0.1385 -0.4975
   33DOPE  H18R 4208   3.430   3.815  14.768  0.7929  2.5701  2.3768
   33DOPE  H18S 4209   3.403   3.910  14.619  0.4801  0.3069 -0.7076
   33DOPE  H18T 4210   3.512   3.977  14.745  1.0555  0.2145 -1.1712
   33DOPE   C33 4211   3.070   3.887  13.434  0.7212  0.5532 -0.0191
   33DOPE   H3X 4212   2.962   3.912  13.446  1.3798  3.2338  1.1917
   33DOPE   H3Y 4213   3.137   3.975  13.448  0.1305  1.4790 -2.3784
   33DOPE   C34 4214   3.105   3.801  13.558  0.2419 -0.5257  0.2948
   33DOPE   H4X 4215   3.041   3.710  13.555  1.8880 -1.7160 -2.1658
   33DOPE   H4Y 4216   3.212   3.772  13.559 -0.1307 -1.9718  0.5313
   33DOPE   C35 4217   3.070   3.876  13.687  0.4696 -0.1571  0.5524
   33DOPE   H5X 4218   2.965   3.910  13.683  0.5221  0.0347  0.7712
   33DOPE   H5Y 4219   3.129   3.970  13.697  1.1686 -0.5140 -0.0894
   33DOPE   C36 4220   3.075   3.792  13.811 -0.4181  0.1325 -0.1670
   33DOPE   H6X 4221   3.182   3.771  13.835 -0.9223 -0.9771  1.2988
   33DOPE   H6Y 4222   3.031   3.695  13.778  1.5038 -0.4919 -1.0399
   33DOPE   C37 4223   3.004   3.857  13.929  0.9083 -0.3067 -0.0100
   33DOPE   H7X 4224   3.049   3.958  13.939  3.0897 -0.8250 -3.0843
   33DOPE   H7Y 4225   2.900   3.888  13.902  1.8901  1.9591 -1.4465
   33DOPE   C38 4226   3.014   3.783  14.065  0.1088 -0.7292 -0.2123
   33DOPE   H8X 4227   3.001   3.861  14.143 -0.9374  0.9355 -1.9802
   33DOPE   H8Y 4228   3.118   3.748  14.081  1.3576  2.4737 -0.5888
   33DOPE   C39 4229   2.908   3.678  14.077 -0.2666  0.5940  0.6141
   33DOPE   H9X 4230   2.900   3.612  13.989 -0.0408 -0.0928  1.1014
   33DOPE  C310 4231   2.815   3.671  14.177 -0.4758 -0.1129  0.6176
   33DOPE  H10X 4232   2.741   3.591  14.183 -0.3382 -0.1659  1.9394
   33DOPE  C311 4233   2.817   3.764  14.296 -0.2952  0.0892 -0.3901
   33DOPE  H11X 4234   2.921   3.774  14.333 -0.4314  1.5620 -0.3516
   33DOPE  H11Y 4235   2.795   3.869  14.270  0.5881  0.7911  1.5396
   33DOPE  C312 4236   2.727   3.709  14.406 -0.7073  0.0085 -0.0337
   33DOPE  H12X 4237   2.761   3.610  14.441  1.7828  1.4366  1.9430
   33DOPE  H12Y 4238   2.619   3.701  14.379 -1.5097  3.6605  1.4882
   33DOPE  C313 4239   2.723   3.801  14.529  0.4210 -0.6505 -0.3722
   33DOPE  H13X 4240   2.826   3.834  14.554  0.0193 -0.5918  1.3621
   33DOPE  H13Y 4241   2.656   3.888  14.513 -1.4627 -2.0094 -0.3340
   33DOPE  C314 4242   2.660   3.718  14.642 -0.2520 -0.3552  0.0980
   33DOPE  H14X 4243   2.735   3.639  14.666 -0.8147 -0.6511  0.9346
   33DOPE  H14Y 4244   2.566   3.672  14.606 -2.0671  2.7447  0.5768
   33DOPE  C315 4245   2.623   3.792  14.777 -0.7742  0.2194 -0.3180
   33DOPE  H15X 4246   2.525   3.846  14.772 -1.2571 -0.7524 -2.3266
   33DOPE  H15Y 4247   2.700   3.866  14.808 -1.1957 -0.3030  2.2726
   33DOPE  C316 4248   2.608   3.691  14.901 -0.1560 -0.5854 -0.1306
   33DOPE  H16X 4249   2.706   3.640  14.915  0.4686  0.2921 -1.1150
   33DOPE  H16Y 4250   2.532   3.619  14.863 -1.4545  0.4910  0.3593
   33DOPE  C317 4251   2.570   3.741  15.044  0.2059 -0.0573  0.8596
   33DOPE  H17X 4252   2.641   3.820  15.075  1.8106 -1.6311  1.3355
   33DOPE  H17Y 4253   2.466   3.779  15.038  0.6628  1.3193  1.2634
   33DOPE  C318 4254   2.577   3.631  15.147  0.4549 -0.0245 -1.2396
   33DOPE  H18X 4255   2.515   3.543  15.119 -0.7807  0.8206 -1.1755
   33DOPE  H18Y 4256   2.678   3.593  15.176 -0.5304 -0.0252  2.6696
   33DOPE  H18Z 4257   2.539   3.673  15.242  1.0832  0.0637 -1.0233
   34DOPE     N 4258   1.998   7.110  12.400  0.4617 -0.0339  0.0902
   34DOPE   HN1 4259   1.966   7.015  12.428  1.9125 -0.1289  1.5626
   34DOPE   HN2 4260   1.955   7.179  12.466 -1.4683 -0.6236 -0.4674
   34DOPE   HN3 4261   1.948   7.141  12.314  0.5448 -0.7462 -0.2191
   34DOPE   C12 4262   2.142   7.117  12.387 -0.2287 -0.2100  0.2357
   34DOPE  H12A 4263   2.169   7.224  12.396 -0.8964  0.0231 -0.5268
   34DOPE  H12B 4264   2.176   7.078  12.288  0.6867 -1.4964  1.0246
   34DOPE   C11 4265   2.199   7.013  12.491  0.4982 -0.4219  0.5074
   34DOPE  H11A 4266   2.182   7.044  12.597  1.0424 -1.5703  0.9526
   34DOPE  H11B 4267   2.310   7.012  12.483  0.6244 -2.1761  1.6533
   34DOPE     P 4268   2.064   6.784  12.527  0.2549 -0.1559  0.3678
   34DOPE   O13 4269   2.078   6.646  12.488  0.1574 -0.3240  0.5441
   34DOPE   O14 4270   1.933   6.845  12.488 -0.1722  0.0103  0.0054
   34DOPE   O11 4271   2.095   6.808  12.678 -0.1390 -0.4302 -0.4096
   34DOPE   O12 4272   2.163   6.878  12.453  0.3638  0.2665  0.5439
   34DOPE    C1 4273   1.996   6.865  12.768 -0.2412  0.5448  0.3170
   34DOPE    HA 4274   1.891   6.847  12.736 -1.1610  2.2663  2.1418
   34DOPE    HB 4275   1.998   6.975  12.761 -1.8708  0.6210  0.5341
   34DOPE    C2 4276   2.005   6.802  12.912  0.1634 -0.0468  0.4749
   34DOPE    HS 4277   1.917   6.840  12.969 -1.2629 -2.1363 -0.2311
   34DOPE   O21 4278   2.124   6.848  12.974 -0.2371  0.2343  0.6513
   34DOPE   C21 4279   2.124   6.982  13.003  0.3545 -0.3838  0.4182
   34DOPE   O22 4280   2.023   7.051  13.002  0.1285 -0.4247  0.5580
   34DOPE   C22 4281   2.271   7.023  13.040 -0.0314  0.2525  0.4299
   34DOPE   H2R 4282   2.316   7.079  12.955  0.2372  0.0737  0.4517
   34DOPE   H2S 4283   2.324   6.927  13.057 -0.1721  0.2496  0.8609
   34DOPE    C3 4284   1.989   6.651  12.923  0.0374 -0.2457  0.0662
   34DOPE    HX 4285   1.972   6.626  13.030  1.4536  0.3649  0.4539
   34DOPE    HY 4286   2.078   6.589  12.898 -1.6360 -3.5430  1.6637
   34DOPE   O31 4287   1.874   6.606  12.840 -0.4204 -0.2584  0.0590
   34DOPE   C31 4288   1.752   6.639  12.885  0.3135 -0.8051  0.1494
   34DOPE   O32 4289   1.722   6.705  12.982  0.1401 -0.6621  0.2153
   34DOPE   C32 4290   1.644   6.584  12.788  0.1214  0.5106 -0.3080
   34DOPE   H2X 4291   1.553   6.640  12.818 -0.6734 -1.4620  1.1346
   34DOPE   H2Y 4292   1.681   6.611  12.686 -0.9446  1.6995 -0.4103
   34DOPE   C23 4293   2.288   7.108  13.164  1.3168 -1.3673 -0.0726
   34DOPE   H3R 4294   2.237   7.206  13.155  1.1931 -1.2407  1.6580
   34DOPE   H3S 4295   2.390   7.145  13.184  0.4208  2.5552 -1.7138
   34DOPE   C24 4296   2.217   7.047  13.290 -0.9116  0.2813 -0.5383
   34DOPE   H4R 4297   2.107   7.037  13.276 -0.9822 -0.7802  0.6851
   34DOPE   H4S 4298   2.218   7.121  13.372  0.7687  2.5286 -2.4224
   34DOPE   C25 4299   2.282   6.909  13.328  0.0860 -0.5916 -0.3461
   34DOPE   H5R 4300   2.385   6.924  13.367  0.6773 -0.1040 -2.0405
   34DOPE   H5S 4301   2.275   6.836  13.245  1.8664 -0.9834 -0.1858
   34DOPE   C26 4302   2.204   6.836  13.439  0.3602 -0.6095 -0.5200
   34DOPE   H6R 4303   2.205   6.725  13.428 -1.8740 -0.7173 -0.1826
   34DOPE   H6S 4304   2.097   6.867  13.441  0.5311  0.0315  1.9332
   34DOPE   C27 4305   2.253   6.858  13.582 -0.6924  0.2337  0.8762
   34DOPE   H7R 4306   2.264   6.965  13.609 -0.2826  0.1926  0.8816
   34DOPE   H7S 4307   2.352   6.809  13.593  1.2206  3.5784 -0.0653
   34DOPE   C28 4308   2.152   6.777  13.669 -0.7725  0.3002 -0.3459
   34DOPE   H8R 4309   2.147   6.679  13.617 -0.3189 -0.3628  0.8046
   34DOPE   H8S 4310   2.052   6.823  13.653 -0.3560  0.7843 -1.6669
   34DOPE   C29 4311   2.190   6.774  13.815 -0.1799  0.2140 -0.0932
   34DOPE   H9R 4312   2.223   6.872  13.852  0.5737 -0.0848  0.0461
   34DOPE  C210 4313   2.179   6.670  13.906  0.0176 -0.5135  0.0500
   34DOPE  H10R 4314   2.213   6.688  14.009  0.1633 -2.6016  0.4022
   34DOPE  C211 4315   2.108   6.546  13.870  0.4087  1.2096  0.9847
   34DOPE  H11R 4316   2.177   6.479  13.814 -1.2791  1.2010 -1.2122
   34DOPE  H11S 4317   2.033   6.572  13.792 -0.0650 -1.5082  0.4267
   34DOPE  C212 4318   2.042   6.471  13.987 -0.0371  0.4957  0.4928
   34DOPE  H12R 4319   2.121   6.434  14.056 -0.0519 -2.7471 -1.0647
   34DOPE  H12S 4320   1.997   6.376  13.951  0.2493 -0.8124  3.2589
   34DOPE  C213 4321   1.949   6.552  14.079 -0.8375 -0.1719  0.0204
   34DOPE  H13R 4322   1.861   6.597  14.029 -0.6935 -1.3046 -1.3349
   34DOPE  H13S 4323   2.019   6.629  14.116 -1.6969  2.1040 -2.7483
   34DOPE  C214 4324   1.888   6.462  14.194 -0.2535 -0.0762 -0.1034
   34DOPE  H14R 4325   1.971   6.428  14.260  0.4934  1.7607 -0.0319
   34DOPE  H14S 4326   1.845   6.367  14.156  0.4360 -1.0276  1.3911
   34DOPE  C215 4327   1.786   6.540  14.281 -0.1803  0.3045  0.1619
   34DOPE  H15R 4328   1.692   6.562  14.226 -1.1765  0.0054  1.6750
   34DOPE  H15S 4329   1.856   6.620  14.314  1.0409 -0.9209  0.6201
   34DOPE  C216 4330   1.746   6.471  14.410  0.1431 -0.0890  0.5373
   34DOPE  H16R 4331   1.696   6.542  14.479  1.2078 -0.4735  1.7422
   34DOPE  H16S 4332   1.839   6.444  14.465  0.2263  0.9712  0.9447
   34DOPE  C217 4333   1.658   6.343  14.396  0.2601  0.8308  0.0160
   34DOPE  H17R 4334   1.692   6.282  14.309 -1.1194  0.3623 -0.2138
   34DOPE  H17S 4335   1.552   6.372  14.383 -0.4679 -2.4474 -3.0325
   34DOPE  C218 4336   1.676   6.252  14.518 -0.3455 -0.0591 -0.2291
   34DOPE  H18R 4337   1.606   6.166  14.514  0.5359 -0.7725 -0.8967
   34DOPE  H18S 4338   1.655   6.305  14.613 -2.7570 -0.3374 -0.5393
   34DOPE  H18T 4339   1.778   6.209  14.525 -0.4895 -0.3437  0.1340
   34DOPE   C33 4340   1.612   6.426  12.791 -0.2958  0.2130 -0.1002
   34DOPE   H3X 4341   1.698   6.356  12.797 -1.2393 -1.0022 -0.3355
   34DOPE   H3Y 4342   1.561   6.398  12.697 -2.1050 -0.6016  1.0700
   34DOPE   C34 4343   1.508   6.382  12.902  0.2283 -0.0119  0.0459
   34DOPE   H4X 4344   1.411   6.429  12.876  1.1060  1.0188 -1.5739
   34DOPE   H4Y 4345   1.492   6.272  12.900  0.1560 -0.2041  4.0317
   34DOPE   C35 4346   1.545   6.414  13.050 -0.6548 -0.1235 -0.8169
   34DOPE   H5X 4347   1.538   6.524  13.063 -0.2840 -0.3104  1.5601
   34DOPE   H5Y 4348   1.650   6.386  13.075 -0.7852  1.2273  1.5259
   34DOPE   C36 4349   1.457   6.342  13.157  0.1824  0.1075  0.7501
   34DOPE   H6X 4350   1.499   6.243  13.181  0.4864  0.6821  2.8054
   34DOPE   H6Y 4351   1.351   6.334  13.123 -0.7126 -3.0473  3.6765
   34DOPE   C37 4352   1.459   6.423  13.291 -0.2485  0.8874  0.7733
   34DOPE   H7X 4353   1.564   6.427  13.328 -0.5306  1.9443  1.5127
   34DOPE   H7Y 4354   1.408   6.521  13.284 -0.1567  0.8332 -0.9977
   34DOPE   C38 4355   1.380   6.346  13.396 -0.6593  0.2888  0.1479
   34DOPE   H8X 4356   1.412   6.399  13.488 -1.5990  1.9882 -0.4567
   34DOPE   H8Y 4357   1.427   6.247  13.410 -1.8588 -0.2648  0.3638
   34DOPE   C39 4358   1.234   6.339  13.355  0.1900  0.0869  0.3907
   34DOPE   H9X 4359   1.202   6.346  13.250 -0.5656 -1.6071  0.4679
   34DOPE  C310 4360   1.133   6.327  13.436  0.3599 -0.1188 -0.0311
   34DOPE  H10X 4361   1.031   6.329  13.396 -0.6948 -2.4198  2.2398
   34DOPE  C311 4362   1.137   6.334  13.587 -0.0492 -0.0607  0.0147
   34DOPE  H11X 4363   1.031   6.321  13.617 -0.3537  0.4673 -0.7862
   34DOPE  H11Y 4364   1.204   6.255  13.627 -2.0849 -2.2027 -0.5576
   34DOPE  C312 4365   1.172   6.474  13.637 -0.0024 -0.0893 -0.0712
   34DOPE  H12X 4366   1.106   6.546  13.585  0.0419 -0.6763 -0.9737
   34DOPE  H12Y 4367   1.274   6.505  13.606 -0.5189  0.2375 -1.5470
   34DOPE  C313 4368   1.150   6.502  13.790 -0.1973 -0.5938  0.4644
   34DOPE  H13X 4369   1.144   6.612  13.803  1.8226 -0.3938  0.0134
   34DOPE  H13Y 4370   1.045   6.469  13.805 -0.0772 -0.9716  0.4829
   34DOPE  C314 4371   1.240   6.444  13.899 -0.2168 -0.6114 -0.6303
   34DOPE  H14X 4372   1.348   6.434  13.874  1.1664  1.8468  3.4246
   34DOPE  H14Y 4373   1.198   6.342  13.908  0.5446 -1.0565 -1.8363
   34DOPE  C315 4374   1.239   6.512  14.036 -0.1860  0.0098  0.0958
   34DOPE  H15X 4375   1.135   6.533  14.068 -0.0164  2.5912 -0.8107
   34DOPE  H15Y 4376   1.285   6.611  14.017 -1.4527  0.9085  1.4718
   34DOPE  C316 4377   1.321   6.434  14.146  0.5189  0.5004 -0.1354
   34DOPE  H16X 4378   1.429   6.448  14.124  0.4152 -1.8267 -2.4683
   34DOPE  H16Y 4379   1.312   6.326  14.122  0.7906  0.8181 -1.7735
   34DOPE  C317 4380   1.279   6.481  14.283 -0.6044 -0.0560  0.0037
   34DOPE  H17X 4381   1.168   6.488  14.293 -0.4356  0.9309  1.4207
   34DOPE  H17Y 4382   1.331   6.416  14.357 -1.2155  0.0972  0.5833
   34DOPE  C318 4383   1.323   6.623  14.301 -0.2535  0.0280  0.1757
   34DOPE  H18X 4384   1.428   6.648  14.273 -0.7545 -0.0396 -1.9371
   34DOPE  H18Y 4385   1.261   6.688  14.236 -1.2166 -0.9107  0.1310
   34DOPE  H18Z 4386   1.302   6.657  14.404 -5.9453 -0.4518 -0.5232
   35DOPE     N 4387   5.247   3.798  11.987  0.3567 -0.0148  0.4114
   35DOPE   HN1 4388   5.218   3.898  11.986 -2.0175 -0.6282  1.5653
   35DOPE   HN2 4389   5.349   3.787  12.002  0.0506 -1.7688  1.4572
   35DOPE   HN3 4390   5.214   3.742  11.906  1.1576  0.8655 -0.5605
   35DOPE   C12 4391   5.186   3.748  12.117  0.0599 -0.3830  0.1381
   35DOPE  H12A 4392   5.120   3.831  12.150  0.5634  0.7790 -1.6627
   35DOPE  H12B 4393   5.259   3.735  12.200 -0.1123  0.1375  0.3820
   35DOPE   C11 4394   5.119   3.613  12.096 -0.0659  0.1213 -0.4333
   35DOPE  H11A 4395   5.024   3.623  12.039  0.2957  1.4679 -0.8354
   35DOPE  H11B 4396   5.088   3.580  12.198  0.4514  2.7563  0.6731
   35DOPE     P 4397   5.280   3.412  12.094  0.0993 -0.2648 -0.1942
   35DOPE   O13 4398   5.409   3.392  12.028  0.0974 -0.3852 -0.0944
   35DOPE   O14 4399   5.177   3.309  12.091 -0.4442  0.5167  0.2047
   35DOPE   O11 4400   5.310   3.451  12.243  0.0559 -0.8372  0.2222
   35DOPE   O12 4401   5.211   3.534  12.028 -0.1133  0.3418  0.0845
   35DOPE    C1 4402   5.441   3.436  12.295  0.4748 -0.3539 -0.8049
   35DOPE    HA 4403   5.510   3.514  12.255 -1.4568  0.4262 -2.8812
   35DOPE    HB 4404   5.480   3.336  12.270  0.2227 -0.1998 -1.8836
   35DOPE    C2 4405   5.431   3.460  12.451 -0.2293  0.1098 -0.0830
   35DOPE    HS 4406   5.431   3.566  12.484  1.4997 -0.1345  0.8617
   35DOPE   O21 4407   5.538   3.389  12.509  0.1900 -0.3130 -0.6099
   35DOPE   C21 4408   5.656   3.439  12.487  0.5382  0.2452 -0.1872
   35DOPE   O22 4409   5.684   3.544  12.427 -1.0134 -0.3375 -0.3921
   35DOPE   C22 4410   5.755   3.354  12.561  0.3358  0.0338 -0.3052
   35DOPE   H2R 4411   5.831   3.324  12.486  1.2765  0.8785  0.2630
   35DOPE   H2S 4412   5.705   3.261  12.594 -1.2201  1.3505  1.2635
   35DOPE    C3 4413   5.294   3.405  12.509 -0.1087  0.5633  0.1887
   35DOPE    HX 4414   5.288   3.300  12.472 -0.4131  0.6788 -0.0879
   35DOPE    HY 4415   5.216   3.468  12.462 -1.0728 -0.0616  0.9111
   35DOPE   O31 4416   5.286   3.410  12.649 -0.6644 -0.2121  0.0470
   35DOPE   C31 4417   5.237   3.529  12.697  0.3979  0.4823 -0.5685
   35DOPE   O32 4418   5.201   3.631  12.646 -0.0925  0.0108  0.5201
   35DOPE   C32 4419   5.237   3.505  12.850  0.5837  0.1548  0.6936
   35DOPE   H2X 4420   5.166   3.422  12.870 -0.0486  0.3977 -0.4726
   35DOPE   H2Y 4421   5.341   3.473  12.870  0.4858 -3.1371 -2.7568
   35DOPE   C23 4422   5.805   3.425  12.683 -0.5117 -0.0439  0.0740
   35DOPE   H3R 4423   5.784   3.534  12.678 -0.6478  0.0248  1.7141
   35DOPE   H3S 4424   5.912   3.408  12.704 -0.4898  0.7812  0.6727
   35DOPE   C24 4425   5.742   3.377  12.813 -0.9457  0.0088 -0.0988
   35DOPE   H4R 4426   5.759   3.269  12.834 -1.1052 -0.2636 -1.2928
   35DOPE   H4S 4427   5.633   3.388  12.797 -0.9446  0.6194  0.2806
   35DOPE   C25 4428   5.768   3.445  12.950  0.2974 -0.1851 -0.5836
   35DOPE   H5R 4429   5.776   3.555  12.942  1.5767 -0.3019 -1.0605
   35DOPE   H5S 4430   5.873   3.428  12.982  0.7603  0.3732 -1.7499
   35DOPE   C26 4431   5.662   3.413  13.055  0.3899  0.0792 -0.4044
   35DOPE   H6R 4432   5.640   3.304  13.059 -0.4797  0.2661  0.4566
   35DOPE   H6S 4433   5.564   3.456  13.027 -0.2423 -0.2670  1.1718
   35DOPE   C27 4434   5.689   3.453  13.200 -0.1626  0.2179  0.2495
   35DOPE   H7R 4435   5.782   3.413  13.245 -0.9297 -2.2675 -0.2219
   35DOPE   H7S 4436   5.606   3.413  13.261 -1.0342  1.8277  0.1650
   35DOPE   C28 4437   5.685   3.602  13.221 -0.2870 -0.3259  0.3353
   35DOPE   H8R 4438   5.584   3.633  13.254 -0.6511  0.0355 -1.0630
   35DOPE   H8S 4439   5.701   3.650  13.122  0.5378  0.1941  0.7102
   35DOPE   C29 4440   5.784   3.656  13.323 -0.1985  0.1093  0.3067
   35DOPE   H9R 4441   5.889   3.645  13.295 -0.7566 -1.7841 -1.3062
   35DOPE  C210 4442   5.756   3.684  13.453  0.2582  0.3396 -0.4578
   35DOPE  H10R 4443   5.836   3.732  13.511  1.3274  0.8524 -2.2608
   35DOPE  C211 4444   5.628   3.665  13.528  0.4020  0.1588  0.2879
   35DOPE  H11R 4445   5.538   3.640  13.468 -1.6011  1.0151  2.7270
   35DOPE  H11S 4446   5.598   3.762  13.573  0.7435  1.3069 -1.8199
   35DOPE  C212 4447   5.648   3.554  13.637 -0.1369  0.2206  0.3506
   35DOPE  H12R 4448   5.750   3.562  13.680 -0.2904 -2.7750  1.5500
   35DOPE  H12S 4449   5.650   3.453  13.592 -0.1114 -0.0948  1.0399
   35DOPE  C213 4450   5.535   3.548  13.745  0.3931 -0.2170  0.3872
   35DOPE  H13R 4451   5.546   3.443  13.782  4.2723 -0.3737 -0.7099
   35DOPE  H13S 4452   5.434   3.563  13.703  1.2183  2.1959 -0.9238
   35DOPE  C214 4453   5.558   3.640  13.865  0.5319 -0.1981 -0.7749
   35DOPE  H14R 4454   5.562   3.750  13.849 -1.5671  0.3288  1.6722
   35DOPE  H14S 4455   5.657   3.605  13.902 -0.3791 -1.8982  0.1636
   35DOPE  C215 4456   5.456   3.622  13.980  0.3294 -0.3873 -0.9612
   35DOPE  H15R 4457   5.353   3.618  13.938 -0.2382 -0.0101  0.3535
   35DOPE  H15S 4458   5.457   3.714  14.042  1.0067 -0.1482 -1.3190
   35DOPE  C216 4459   5.488   3.503  14.067  0.3594  0.2601 -0.4259
   35DOPE  H16R 4460   5.593   3.514  14.102 -0.0384  1.7786  0.3534
   35DOPE  H16S 4461   5.486   3.411  14.004  1.1358 -0.3243  0.3770
   35DOPE  C217 4462   5.405   3.483  14.193  0.3026  0.5994  0.1291
   35DOPE  H17R 4463   5.298   3.456  14.175  0.2947 -1.4846  2.7842
   35DOPE  H17S 4464   5.428   3.577  14.248  0.5466 -0.0899  1.2244
   35DOPE  C218 4465   5.458   3.369  14.285  0.4243  0.8056  0.0020
   35DOPE  H18R 4466   5.559   3.407  14.312  0.0467  3.0661 -1.4385
   35DOPE  H18S 4467   5.457   3.280  14.219  2.2380  0.3685  0.5093
   35DOPE  H18T 4468   5.401   3.356  14.380  0.3341 -0.5638 -0.2179
   35DOPE   C33 4469   5.184   3.629  12.928  0.1160 -0.8648 -0.2889
   35DOPE   H3X 4470   5.075   3.630  12.910  0.0093 -1.5615  0.2566
   35DOPE   H3Y 4471   5.218   3.728  12.891  0.9817 -0.0700  2.3810
   35DOPE   C34 4472   5.214   3.627  13.076 -0.3498 -1.2137 -0.2183
   35DOPE   H4X 4473   5.170   3.532  13.114  0.4713 -1.1473  0.9530
   35DOPE   H4Y 4474   5.323   3.624  13.092 -0.4573  1.7870  1.7840
   35DOPE   C35 4475   5.153   3.748  13.153 -0.2383  0.0839 -0.6461
   35DOPE   H5X 4476   5.046   3.767  13.127  0.0431  3.3790  0.1972
   35DOPE   H5Y 4477   5.200   3.844  13.124 -1.4196  0.0348 -2.9721
   35DOPE   C36 4478   5.166   3.715  13.300 -0.1153  0.5428  0.0500
   35DOPE   H6X 4479   5.129   3.813  13.335 -0.5228  1.4885 -2.7562
   35DOPE   H6Y 4480   5.266   3.713  13.349  0.1757  0.3830 -0.5403
   35DOPE   C37 4481   5.086   3.596  13.354 -0.2388 -0.2417  0.3443
   35DOPE   H7X 4482   4.999   3.593  13.285  0.7224 -1.0168 -0.8829
   35DOPE   H7Y 4483   5.154   3.508  13.348  0.2015  0.0883  0.4218
   35DOPE   C38 4484   5.047   3.624  13.497 -0.2226 -0.2416 -0.1454
   35DOPE   H8X 4485   4.998   3.724  13.507  0.8045  0.3676 -0.9153
   35DOPE   H8Y 4486   5.132   3.638  13.567  0.0787  0.7261 -0.6887
   35DOPE   C39 4487   4.971   3.507  13.547 -0.6145 -0.6373  0.8652
   35DOPE   H9X 4488   5.021   3.409  13.541 -3.2234 -1.9952 -0.1878
   35DOPE  C310 4489   4.848   3.506  13.602 -0.4146  0.3371  0.4089
   35DOPE  H10X 4490   4.810   3.412  13.644  0.7061 -0.6063 -0.6320
   35DOPE  C311 4491   4.759   3.627  13.617 -0.4711  0.4092  0.0370
   35DOPE  H11X 4492   4.749   3.688  13.524  0.0550  1.0156  0.3731
   35DOPE  H11Y 4493   4.654   3.595  13.635 -0.3591 -0.8055 -1.2731
   35DOPE  C312 4494   4.805   3.719  13.725  0.4417 -0.0579  0.7454
   35DOPE  H12X 4495   4.725   3.796  13.721 -1.2968 -1.5092  3.8815
   35DOPE  H12Y 4496   4.905   3.758  13.696  0.8873 -0.1940  2.0460
   35DOPE  C313 4497   4.808   3.655  13.858  0.0020  0.4052 -0.2253
   35DOPE  H13X 4498   4.734   3.572  13.859 -1.0417  1.2145 -3.0071
   35DOPE  H13Y 4499   4.902   3.597  13.874  0.1518  0.6558 -0.1929
   35DOPE  C314 4500   4.762   3.747  13.967  0.1726  0.3482 -0.6612
   35DOPE  H14X 4501   4.656   3.777  13.952  0.8956  1.9793 -3.0968
   35DOPE  H14Y 4502   4.820   3.841  13.968  2.5429 -1.0326  0.4002
   35DOPE  C315 4503   4.792   3.712  14.117  0.1078  0.6748  0.1603
   35DOPE  H15X 4504   4.903   3.706  14.125  0.2409 -1.5502 -2.0296
   35DOPE  H15Y 4505   4.763   3.607  14.141 -3.2360  1.0769 -1.5569
   35DOPE  C316 4506   4.711   3.808  14.207  0.0436 -0.4771  0.3829
   35DOPE  H16X 4507   4.604   3.778  14.209 -0.1534 -0.0068 -1.3656
   35DOPE  H16Y 4508   4.723   3.913  14.170  0.6928 -0.0309  1.7840
   35DOPE  C317 4509   4.751   3.787  14.355  0.6769 -0.0818  0.0413
   35DOPE  H17X 4510   4.719   3.688  14.394 -1.8537  0.7065  0.1892
   35DOPE  H17Y 4511   4.860   3.807  14.357  0.6846 -0.1733  1.1443
   35DOPE  C318 4512   4.692   3.891  14.449  0.4292 -0.1901 -0.3387
   35DOPE  H18X 4513   4.749   3.987  14.445 -1.2057  0.9008  0.9906
   35DOPE  H18Y 4514   4.586   3.918  14.433  0.0715  1.4587  3.6963
   35DOPE  H18Z 4515   4.702   3.856  14.554  2.0897  2.0308  0.3392
   36DOPE     N 4516   5.529   4.264  11.939 -0.6899 -0.3152 -0.2724
   36DOPE   HN1 4517   5.580   4.175  11.957  1.4515  1.1674  1.6272
   36DOPE   HN2 4518   5.440   4.231  11.898 -1.6198  0.6735  0.8524
   36DOPE   HN3 4519   5.568   4.316  11.858 -1.4769 -2.3995 -2.0720
   36DOPE   C12 4520   5.506   4.357  12.060 -0.0868 -0.6428  0.0380
   36DOPE  H12A 4521   5.489   4.455  12.011  1.5867  0.1439  0.9474
   36DOPE  H12B 4522   5.600   4.379  12.114  0.4997  0.3161 -1.3039
   36DOPE   C11 4523   5.386   4.307  12.142  0.7571 -0.3011 -0.2031
   36DOPE  H11A 4524   5.356   4.371  12.228 -1.3246  1.0263 -1.8210
   36DOPE  H11B 4525   5.430   4.210  12.174  2.0090  0.1148 -0.6023
   36DOPE     P 4526   5.166   4.176  12.091  0.3498  0.0319  0.1632
   36DOPE   O13 4527   5.214   4.051  12.027 -0.0394 -0.0459  0.7188
   36DOPE   O14 4528   5.031   4.217  12.051 -0.4952 -0.0675 -0.2417
   36DOPE   O11 4529   5.176   4.177  12.244  0.3261 -0.1085 -0.7552
   36DOPE   O12 4530   5.276   4.291  12.053 -0.2966  0.4316  0.3561
   36DOPE    C1 4531   5.077   4.103  12.316 -0.0444 -0.6507  0.4370
   36DOPE    HA 4532   5.129   4.034  12.387 -0.6284 -0.2740  1.2557
   36DOPE    HB 4533   5.007   4.047  12.250  1.9423 -2.3940 -0.2786
   36DOPE    C2 4534   5.007   4.197  12.411  0.2449 -0.1056 -0.7457
   36DOPE    HS 4535   4.971   4.280  12.347  2.3200  1.1414 -0.3973
   36DOPE   O21 4536   5.096   4.248  12.507  0.5368 -0.0830  0.2508
   36DOPE   C21 4537   5.133   4.381  12.491  0.1866 -0.3842 -0.0039
   36DOPE   O22 4538   5.104   4.446  12.393 -0.1840  0.0615  0.1064
   36DOPE   C22 4539   5.217   4.433  12.602  0.0482  0.3965  0.6650
   36DOPE   H2R 4540   5.316   4.382  12.602 -0.4473 -0.5931 -0.2577
   36DOPE   H2S 4541   5.176   4.416  12.703  0.9197 -0.8246  0.8431
   36DOPE    C3 4542   4.881   4.137  12.482  0.3549  0.1431  1.0822
   36DOPE    HX 4543   4.815   4.112  12.396  0.1870  0.8937  0.9820
   36DOPE    HY 4544   4.826   4.220  12.531  1.0597  0.4700  1.3272
   36DOPE   O31 4545   4.901   4.023  12.561 -0.1622 -0.1134 -0.1375
   36DOPE   C31 4546   4.781   3.982  12.618 -0.4224 -0.2447  0.2943
   36DOPE   O32 4547   4.678   4.045  12.601  0.1558  0.0101  0.1666
   36DOPE   C32 4548   4.808   3.862  12.701  0.1280 -0.0797  1.1220
   36DOPE   H2X 4549   4.837   3.790  12.621  1.4852  1.8211 -0.1815
   36DOPE   H2Y 4550   4.903   3.887  12.752  1.0503  1.0063 -0.9899
   36DOPE   C23 4551   5.278   4.577  12.572  0.2821  0.1492 -0.1314
   36DOPE   H3R 4552   5.310   4.573  12.465  0.7120  0.8174 -0.0329
   36DOPE   H3S 4553   5.365   4.602  12.635 -0.0884  0.0432  0.4250
   36DOPE   C24 4554   5.178   4.691  12.590  0.2856  0.4234  0.0591
   36DOPE   H4R 4555   5.092   4.682  12.520 -1.6322  1.8297  2.0821
   36DOPE   H4S 4556   5.226   4.786  12.559  0.2006 -0.0597 -1.6365
   36DOPE   C25 4557   5.114   4.698  12.732  0.7450 -0.1405  0.5433
   36DOPE   H5R 4558   5.046   4.616  12.763  0.8430 -0.2439  0.4854
   36DOPE   H5S 4559   5.045   4.785  12.729 -0.6215 -1.2165 -1.3095
   36DOPE   C26 4560   5.221   4.728  12.850 -0.4862 -0.1403  0.1167
   36DOPE   H6R 4561   5.300   4.651  12.865  0.2257  0.3711 -0.8503
   36DOPE   H6S 4562   5.171   4.754  12.946 -0.0622 -1.5644  0.7434
   36DOPE   C27 4563   5.283   4.869  12.828  0.0733 -0.6329  0.4450
   36DOPE   H7R 4564   5.222   4.957  12.798  0.2299 -0.7868 -0.3605
   36DOPE   H7S 4565   5.330   4.859  12.727  1.5835  4.6324  0.3390
   36DOPE   C28 4566   5.389   4.919  12.929  0.1382  0.3384 -0.3832
   36DOPE   H8R 4567   5.469   4.961  12.863  0.3844  0.5463  0.0437
   36DOPE   H8S 4568   5.434   4.831  12.979 -1.4154 -1.1681 -1.5178
   36DOPE   C29 4569   5.330   5.017  13.022 -0.1906  0.5437  0.2783
   36DOPE   H9R 4570   5.225   4.993  13.044  0.1069  1.2537  2.8423
   36DOPE  C210 4571   5.377   5.127  13.076  0.2900 -0.0365  0.2974
   36DOPE  H10R 4572   5.314   5.182  13.147 -0.6640 -0.7304 -0.0010
   36DOPE  C211 4573   5.517   5.175  13.047  0.0030  0.1092  0.1974
   36DOPE  H11R 4574   5.500   5.262  12.979 -0.9953 -0.9710 -0.9735
   36DOPE  H11S 4575   5.583   5.108  12.988  2.0425  0.7970  1.5846
   36DOPE  C212 4576   5.592   5.223  13.166 -0.2943 -0.5351 -0.5228
   36DOPE  H12R 4577   5.534   5.301  13.219  0.4418 -0.8191  0.7392
   36DOPE  H12S 4578   5.690   5.272  13.145  0.5927 -2.5492 -1.3648
   36DOPE  C213 4579   5.612   5.122  13.275  0.5135  0.5338 -0.3335
   36DOPE  H13R 4580   5.635   5.025  13.227  1.5127  0.8145 -0.4602
   36DOPE  H13S 4581   5.521   5.112  13.338  0.5109 -0.6089 -0.5056
   36DOPE  C214 4582   5.727   5.158  13.375  0.0301  0.3966  0.4062
   36DOPE  H14R 4583   5.722   5.261  13.415 -2.5371  0.3580  0.3457
   36DOPE  H14S 4584   5.823   5.151  13.318 -0.1491 -0.7286  0.2161
   36DOPE  C215 4585   5.721   5.061  13.486  0.1823  0.1516 -0.4352
   36DOPE  H15R 4586   5.820   5.021  13.513  0.8665  0.3853 -2.4545
   36DOPE  H15S 4587   5.667   4.972  13.447  0.4800 -0.3110  0.1827
   36DOPE  C216 4588   5.664   5.115  13.622  0.4705  0.3078 -0.2877
   36DOPE  H16R 4589   5.647   5.035  13.697  2.1180  0.3650  0.1861
   36DOPE  H16S 4590   5.567   5.164  13.600  1.4564  2.3754 -0.2707
   36DOPE  C217 4591   5.747   5.227  13.694  0.2573 -0.1574  0.1339
   36DOPE  H17R 4592   5.753   5.317  13.629  0.3892 -0.1611  0.1409
   36DOPE  H17S 4593   5.843   5.174  13.711 -0.3064 -0.8169  1.3435
   36DOPE  C218 4594   5.699   5.251  13.837  0.3036  0.4012 -0.4165
   36DOPE  H18R 4595   5.759   5.337  13.875  2.9596 -0.1919 -2.9570
   36DOPE  H18S 4596   5.713   5.154  13.891 -1.3466  1.0020  1.1823
   36DOPE  H18T 4597   5.590   5.267  13.854  0.3679 -0.7686  1.4317
   36DOPE   C33 4598   4.690   3.824  12.792 -0.4735  0.0487  0.1120
   36DOPE   H3X 4599   4.706   3.720  12.829 -0.4997 -0.2197 -0.6075
   36DOPE   H3Y 4600   4.598   3.802  12.733 -1.4493  0.5599  1.4036
   36DOPE   C34 4601   4.666   3.923  12.911  0.1464 -0.4758  0.1684
   36DOPE   H4X 4602   4.668   4.027  12.872 -0.1733 -0.5890 -0.1578
   36DOPE   H4Y 4603   4.569   3.900  12.960 -0.3667 -2.1208 -1.4961
   36DOPE   C35 4604   4.779   3.918  13.017 -0.2706 -0.1275 -0.2828
   36DOPE   H5X 4605   4.863   3.939  12.947 -0.7633 -0.9520 -1.1447
   36DOPE   H5Y 4606   4.812   3.820  13.057 -1.0135 -0.3561 -0.2240
   36DOPE   C36 4607   4.770   4.016  13.133 -0.4860  0.2075  0.0896
   36DOPE   H6X 4608   4.692   3.968  13.196 -0.7310  1.2834  0.6289
   36DOPE   H6Y 4609   4.739   4.115  13.092  2.1096  1.6729  1.3953
   36DOPE   C37 4610   4.906   4.030  13.201 -0.0226 -0.5571  0.5567
   36DOPE   H7X 4611   4.917   3.935  13.258  0.6993 -0.6782  0.2252
   36DOPE   H7Y 4612   4.993   4.042  13.133  0.3072 -0.3537  1.0096
   36DOPE   C38 4613   4.904   4.144  13.297  0.4596  0.0256 -0.6818
   36DOPE   H8X 4614   4.875   4.240  13.249  0.6837  1.1005  1.2290
   36DOPE   H8Y 4615   5.007   4.156  13.338 -0.1904 -1.8098  1.7216
   36DOPE   C39 4616   4.806   4.118  13.406 -0.8130  0.0017  0.0043
   36DOPE   H9X 4617   4.709   4.072  13.383 -0.2106 -2.7145  2.3056
   36DOPE  C310 4618   4.824   4.138  13.534 -0.3654 -0.0001  0.1537
   36DOPE  H10X 4619   4.744   4.110  13.604 -0.2684 -1.1612 -0.1865
   36DOPE  C311 4620   4.959   4.176  13.603  0.6833  0.1805 -0.0523
   36DOPE  H11X 4621   5.042   4.194  13.532  0.0766  0.1956 -0.7750
   36DOPE  H11Y 4622   4.940   4.274  13.652 -0.9677  0.2965 -0.8193
   36DOPE  C312 4623   5.012   4.070  13.702 -0.5232  0.4177 -0.1237
   36DOPE  H12X 4624   5.121   4.093  13.709 -0.3757  0.0762 -1.0864
   36DOPE  H12Y 4625   5.004   3.968  13.658 -1.4838  1.0620 -1.5316
   36DOPE  C313 4626   4.950   4.075  13.842 -0.1937  0.4402 -0.4833
   36DOPE  H13X 4627   4.845   4.038  13.838 -0.0971  0.0902  0.0093
   36DOPE  H13Y 4628   5.014   4.007  13.903  0.6576  0.9813 -0.7614
   36DOPE  C314 4629   4.959   4.204  13.918  0.0207  0.2186 -0.1315
   36DOPE  H14X 4630   4.892   4.285  13.882 -0.2619  0.0398 -0.0187
   36DOPE  H14Y 4631   5.062   4.246  13.913  0.1453 -0.1870 -1.5349
   36DOPE  C315 4632   4.933   4.186  14.069 -0.1512 -0.1979  0.6742
   36DOPE  H15X 4633   4.981   4.093  14.107  1.9317  0.7580  0.4736
   36DOPE  H15Y 4634   4.824   4.169  14.084 -0.8217  1.9098 -1.1719
   36DOPE  C316 4635   4.970   4.308  14.156  0.3498  0.4419 -0.7344
   36DOPE  H16X 4636   4.921   4.402  14.121 -1.0950  0.3777  0.9463
   36DOPE  H16Y 4637   5.075   4.318  14.123 -0.7729  2.4051 -4.4101
   36DOPE  C317 4638   4.944   4.281  14.302  0.4705 -0.3424 -0.1915
   36DOPE  H17X 4639   4.957   4.381  14.349 -0.2845  1.1129 -2.8732
   36DOPE  H17Y 4640   4.841   4.241  14.317  0.9349 -1.6282 -0.3548
   36DOPE  C318 4641   5.057   4.193  14.368 -0.2633 -0.0745  0.2599
   36DOPE  H18X 4642   5.052   4.191  14.479  3.0484 -0.3513  0.4997
   36DOPE  H18Y 4643   5.052   4.089  14.332  0.3042  0.1795 -0.5647
   36DOPE  H18Z 4644   5.155   4.239  14.345  0.0918 -1.9357 -2.3252
   37DOPE     N 4645   2.503   4.474  12.214 -0.1197  0.5598 -0.0228
   37DOPE   HN1 4646   2.575   4.423  12.269  0.7267  0.8287 -0.8702
   37DOPE   HN2 4647   2.413   4.422  12.215  0.1979  0.0080  0.9370
   37DOPE   HN3 4648   2.526   4.494  12.115  1.8913  3.5128  0.9003
   37DOPE   C12 4649   2.479   4.603  12.287  0.5883  0.1284  0.1567
   37DOPE  H12A 4650   2.423   4.660  12.210  1.0578  1.0280  0.4652
   37DOPE  H12B 4651   2.576   4.649  12.318  0.4242  1.0936 -0.7176
   37DOPE   C11 4652   2.386   4.582  12.409  0.0688  0.3126  0.4273
   37DOPE  H11A 4653   2.400   4.671  12.474 -0.9598  1.9046 -1.4178
   37DOPE  H11B 4654   2.418   4.494  12.468 -0.3815 -1.1868 -1.4710
   37DOPE     P 4655   2.195   4.428  12.337  0.2181  0.0561 -0.3803
   37DOPE   O13 4656   2.258   4.400  12.209  0.1491  0.2905 -0.3432
   37DOPE   O14 4657   2.046   4.424  12.337  0.1359 -0.2370 -0.3488
   37DOPE   O11 4658   2.247   4.323  12.448  0.1706  0.6957  0.3412
   37DOPE   O12 4659   2.241   4.570  12.386  0.4162 -0.2491  0.1882
   37DOPE    C1 4660   2.168   4.287  12.562 -0.1272  0.2695  0.2649
   37DOPE    HA 4661   2.136   4.181  12.550 -1.0586  0.3339  1.8657
   37DOPE    HB 4662   2.080   4.352  12.580 -0.7170 -0.5388  0.3564
   37DOPE    C2 4663   2.253   4.285  12.686  0.7228 -0.5040 -0.5166
   37DOPE    HS 4664   2.184   4.258  12.769 -0.0395  0.5181 -0.7957
   37DOPE   O21 4665   2.317   4.414  12.715  0.7603 -0.2734 -0.1767
   37DOPE   C21 4666   2.234   4.509  12.765  0.0222 -0.1837  0.2900
   37DOPE   O22 4667   2.112   4.508  12.767  0.3944  0.0807 -0.5032
   37DOPE   C22 4668   2.314   4.631  12.795 -0.2296  0.2560 -0.3087
   37DOPE   H2R 4669   2.288   4.706  12.717 -0.8680  1.0027  0.5939
   37DOPE   H2S 4670   2.423   4.611  12.804 -0.7827 -1.9013  3.3674
   37DOPE    C3 4671   2.364   4.186  12.667  0.4437  0.4412  0.2234
   37DOPE    HX 4672   2.428   4.223  12.583  0.1777 -2.0232 -1.1677
   37DOPE    HY 4673   2.325   4.089  12.629 -1.7453  1.6291 -0.7455
   37DOPE   O31 4674   2.449   4.169  12.782  0.0895 -0.2303 -0.1719
   37DOPE   C31 4675   2.576   4.117  12.773 -1.3889 -0.2791  0.2663
   37DOPE   O32 4676   2.619   4.082  12.660  0.2096  0.1453 -0.3463
   37DOPE   C32 4677   2.640   4.118  12.911  0.1556 -0.9660  0.0424
   37DOPE   H2X 4678   2.745   4.145  12.886  0.8075 -2.1647  1.3431
   37DOPE   H2Y 4679   2.593   4.204  12.963 -0.9296 -1.7233  0.3338
   37DOPE   C23 4680   2.274   4.703  12.928 -0.3386  0.2455 -0.4804
   37DOPE   H3R 4681   2.263   4.636  13.016  1.9003  0.8403  0.3273
   37DOPE   H3S 4682   2.167   4.731  12.917 -0.1813  0.1991 -2.4236
   37DOPE   C24 4683   2.348   4.834  12.952 -0.0965 -0.4419  0.3060
   37DOPE   H4R 4684   2.370   4.877  12.852 -1.0817 -0.0661  0.2404
   37DOPE   H4S 4685   2.446   4.812  13.000  0.6652  0.0580 -0.9843
   37DOPE   C25 4686   2.256   4.927  13.042 -0.3746  0.2528 -0.4827
   37DOPE   H5R 4687   2.341   4.974  13.096  1.7023 -2.4228 -1.2106
   37DOPE   H5S 4688   2.198   4.868  13.116  1.1361  2.6163  2.8655
   37DOPE   C26 4689   2.176   5.031  12.960 -0.0456  0.2789  0.5132
   37DOPE   H6R 4690   2.102   4.974  12.899 -0.5579  2.6058 -1.1717
   37DOPE   H6S 4691   2.243   5.077  12.884 -0.4144 -1.0478 -0.6637
   37DOPE   C27 4692   2.116   5.143  13.041 -0.5457 -0.3488  0.2740
   37DOPE   H7R 4693   2.063   5.201  12.963  1.6117  0.2384 -0.8337
   37DOPE   H7S 4694   2.194   5.214  13.077 -0.7133 -0.4507  0.8535
   37DOPE   C28 4695   2.015   5.101  13.149  0.5111  0.4245  1.0165
   37DOPE   H8R 4696   2.063   5.033  13.223  0.2700 -2.1749 -1.0629
   37DOPE   H8S 4697   1.941   5.037  13.096  0.2398  1.7718 -0.3063
   37DOPE   C29 4698   1.954   5.216  13.220 -0.4411  0.3706 -0.1152
   37DOPE   H9R 4699   1.947   5.306  13.158 -1.3214  0.1147 -0.4096
   37DOPE  C210 4700   1.910   5.215  13.343 -0.5229 -0.5317  0.4035
   37DOPE  H10R 4701   1.868   5.306  13.388  1.8881  0.1428  1.4809
   37DOPE  C211 4702   1.906   5.096  13.430  0.6987 -0.3050 -0.5100
   37DOPE  H11R 4703   1.977   5.113  13.513  2.1053  0.5923 -1.8423
   37DOPE  H11S 4704   1.915   4.998  13.378  0.3876 -0.7595  0.2809
   37DOPE  C212 4705   1.770   5.098  13.506 -0.5788  0.0012  0.0271
   37DOPE  H12R 4706   1.760   5.190  13.568 -0.6970  0.1413 -0.1969
   37DOPE  H12S 4707   1.764   5.024  13.588 -0.5474  1.7578  1.6977
   37DOPE  C213 4708   1.652   5.077  13.412 -0.1326  0.7765 -0.2660
   37DOPE  H13R 4709   1.674   4.992  13.345  1.9350  1.0258  0.0208
   37DOPE  H13S 4710   1.644   5.164  13.343 -1.6804  1.0340  0.2048
   37DOPE  C214 4711   1.507   5.077  13.478  0.3306 -0.3365  0.0844
   37DOPE  H14R 4712   1.495   5.172  13.534  0.5981 -1.1587  1.6068
   37DOPE  H14S 4713   1.489   4.998  13.554 -0.4756  0.4411  0.7218
   37DOPE  C215 4714   1.395   5.086  13.376  0.6218  1.1518 -0.1228
   37DOPE  H15R 4715   1.419   5.172  13.310  1.8328  0.4392 -0.6369
   37DOPE  H15S 4716   1.305   5.111  13.437  0.2312 -0.0151 -0.1825
   37DOPE  C216 4717   1.371   4.961  13.296 -0.1838  0.3093 -0.0496
   37DOPE  H16R 4718   1.466   4.917  13.259 -0.7851 -3.7703  2.6856
   37DOPE  H16S 4719   1.305   4.981  13.208  0.9042 -1.8534 -1.4509
   37DOPE  C217 4720   1.303   4.842  13.376  0.2597 -0.3702  0.1424
   37DOPE  H17R 4721   1.361   4.817  13.467  2.2820  1.9324 -0.3952
   37DOPE  H17S 4722   1.318   4.757  13.307  0.7900  0.3640 -0.6721
   37DOPE  C218 4723   1.156   4.856  13.400  0.3388  0.5384 -0.3891
   37DOPE  H18R 4724   1.126   4.928  13.479  0.9536  0.5008 -0.1094
   37DOPE  H18S 4725   1.121   4.751  13.415 -2.1182  1.1412 -1.4583
   37DOPE  H18T 4726   1.102   4.875  13.305  0.6178 -0.2544 -0.7199
   37DOPE   C33 4727   2.640   3.986  12.973  0.1851 -0.2902 -0.2163
   37DOPE   H3X 4728   2.688   3.916  12.902  2.4168 -2.8164  3.4291
   37DOPE   H3Y 4729   2.537   3.947  12.989 -0.7108  2.0880  0.2188
   37DOPE   C34 4730   2.714   3.976  13.105  0.2560 -0.0775 -0.9699
   37DOPE   H4X 4731   2.745   3.870  13.109 -3.0697 -1.1521 -0.7032
   37DOPE   H4Y 4732   2.794   4.051  13.088 -2.0497  2.4601 -1.4145
   37DOPE   C35 4733   2.623   3.996  13.231 -0.1560 -0.1425 -0.4004
   37DOPE   H5X 4734   2.537   3.925  13.236 -0.0279 -0.2534  0.3512
   37DOPE   H5Y 4735   2.585   4.100  13.233 -0.1706 -0.1563  1.4388
   37DOPE   C36 4736   2.701   3.995  13.366 -0.3710 -0.1440 -0.3455
   37DOPE   H6X 4737   2.796   4.048  13.343 -1.2588  1.1020 -1.3853
   37DOPE   H6Y 4738   2.722   3.889  13.390  1.6681  0.2134 -0.4408
   37DOPE   C37 4739   2.622   4.059  13.478 -0.7165 -0.5375 -0.9448
   37DOPE   H7X 4740   2.574   4.155  13.452 -0.9981 -0.9014 -1.7871
   37DOPE   H7Y 4741   2.547   3.983  13.509  0.4149 -1.4816 -0.4417
   37DOPE   C38 4742   2.714   4.084  13.603  0.1741  0.6533 -0.4927
   37DOPE   H8X 4743   2.773   3.993  13.626  1.0690  0.6639 -2.5069
   37DOPE   H8Y 4744   2.640   4.104  13.683 -1.4355 -1.2748 -1.4433
   37DOPE   C39 4745   2.813   4.200  13.595  0.4511  1.1664  0.4133
   37DOPE   H9X 4746   2.915   4.159  13.587  0.3961  0.5839  2.2410
   37DOPE  C310 4747   2.783   4.327  13.617  0.5374  0.3338  0.0099
   37DOPE  H10X 4748   2.868   4.396  13.604  1.0028 -0.2152  0.0971
   37DOPE  C311 4749   2.651   4.389  13.658  0.1115  0.0044 -0.3668
   37DOPE  H11X 4750   2.595   4.417  13.566 -2.4721  2.4350  1.7728
   37DOPE  H11Y 4751   2.592   4.321  13.724  0.5978  0.3958  0.4804
   37DOPE  C312 4752   2.690   4.511  13.744 -0.4052  0.8129 -0.4684
   37DOPE  H12X 4753   2.598   4.573  13.754 -0.5759  0.7701 -1.6077
   37DOPE  H12Y 4754   2.746   4.587  13.686 -0.6322  1.6425  0.3670
   37DOPE  C313 4755   2.748   4.473  13.882 -0.2025  0.3468 -0.3870
   37DOPE  H13X 4756   2.738   4.364  13.898  1.2850  0.3224  0.6151
   37DOPE  H13Y 4757   2.858   4.479  13.872 -0.2342  3.3714  0.0197
   37DOPE  C314 4758   2.696   4.545  14.008  0.3222 -0.1902 -0.4908
   37DOPE  H14X 4759   2.585   4.539  14.019  0.3725  1.2553  1.0841
   37DOPE  H14Y 4760   2.714   4.654  13.996 -1.2557  0.2882  1.1367
   37DOPE  C315 4761   2.763   4.483  14.133 -0.2951  0.0498  0.1928
   37DOPE  H15X 4762   2.755   4.555  14.217  2.3459  0.1387  0.4568
   37DOPE  H15Y 4763   2.873   4.478  14.119 -0.3586  1.7825 -1.2617
   37DOPE  C316 4764   2.707   4.357  14.192 -0.4529  0.1763  0.0401
   37DOPE  H16X 4765   2.700   4.280  14.113 -0.2357  0.4221 -0.2223
   37DOPE  H16Y 4766   2.604   4.385  14.224 -0.1248  0.3499  0.9737
   37DOPE  C317 4767   2.785   4.314  14.319  0.4353  0.5038 -0.0265
   37DOPE  H17X 4768   2.883   4.277  14.283  0.9024  1.2207  0.4769
   37DOPE  H17Y 4769   2.793   4.390  14.400 -0.1834 -0.3780  0.8865
   37DOPE  C318 4770   2.715   4.189  14.379 -0.2751  0.0004 -0.3623
   37DOPE  H18X 4771   2.776   4.135  14.454  1.8706 -2.6744 -3.7285
   37DOPE  H18Y 4772   2.616   4.219  14.420  1.3689  3.4647  1.4798
   37DOPE  H18Z 4773   2.700   4.106  14.306 -1.0034 -0.8843  0.7582
   38DOPE     N 4774   4.892   4.521  11.794  0.1479 -0.4082  0.1186
   38DOPE   HN1 4775   4.972   4.583  11.771 -0.3345 -0.2449 -1.2158
   38DOPE   HN2 4776   4.875   4.512  11.897  0.4226  0.5631  0.2531
   38DOPE   HN3 4777   4.916   4.426  11.759  0.9369 -0.3259  0.4263
   38DOPE   C12 4778   4.773   4.582  11.722 -0.1858  0.5493 -0.2154
   38DOPE  H12A 4779   4.778   4.567  11.612 -0.4823  0.7283 -0.2552
   38DOPE  H12B 4780   4.772   4.692  11.734 -1.6571  0.5708 -0.3509
   38DOPE   C11 4781   4.643   4.502  11.772  0.4910  0.5831 -0.3625
   38DOPE  H11A 4782   4.659   4.393  11.757 -0.4274  0.4074 -0.1612
   38DOPE  H11B 4783   4.559   4.523  11.702 -0.5744  1.5579  1.1616
   38DOPE     P 4784   4.527   4.637  11.962 -0.3360 -0.2418 -0.3840
   38DOPE   O13 4785   4.407   4.581  12.025 -0.6858  0.1929 -0.2847
   38DOPE   O14 4786   4.504   4.736  11.849  0.3294 -0.2491  0.0832
   38DOPE   O11 4787   4.618   4.710  12.067  0.3031 -0.0994  0.0436
   38DOPE   O12 4788   4.612   4.521  11.907 -0.1053  0.1820  0.3715
   38DOPE    C1 4789   4.723   4.655  12.142 -0.3946 -0.5247  0.4050
   38DOPE    HA 4790   4.812   4.718  12.120 -1.9090  1.1016 -1.6210
   38DOPE    HB 4791   4.761   4.563  12.093 -1.7537 -0.2475 -1.2806
   38DOPE    C2 4792   4.690   4.643  12.291 -0.6099 -0.6935  0.0513
   38DOPE    HS 4793   4.602   4.576  12.296  0.3583 -1.9254  1.3599
   38DOPE   O21 4794   4.669   4.776  12.350 -0.0900 -0.3641 -0.4008
   38DOPE   C21 4795   4.544   4.797  12.403  0.0666 -0.6705 -0.3381
   38DOPE   O22 4796   4.449   4.719  12.401 -0.3006 -0.0637  0.4317
   38DOPE   C22 4797   4.540   4.943  12.457 -0.1143 -0.1025 -0.4744
   38DOPE   H2R 4798   4.444   4.991  12.431 -0.3524  1.2436  2.4741
   38DOPE   H2S 4799   4.620   5.006  12.412  0.7766 -0.0650  1.1088
   38DOPE    C3 4800   4.810   4.570  12.368  0.3657  0.2808  0.4615
   38DOPE    HX 4801   4.905   4.624  12.347  0.1635 -0.0218 -1.4426
   38DOPE    HY 4802   4.810   4.470  12.320 -1.5418  0.1047  0.7476
   38DOPE   O31 4803   4.789   4.569  12.510  0.1846  0.0196 -0.3636
   38DOPE   C31 4804   4.699   4.480  12.558 -0.0757 -0.0375  0.2466
   38DOPE   O32 4805   4.633   4.396  12.498  0.0451 -1.2437 -0.0072
   38DOPE   C32 4806   4.664   4.520  12.703 -0.1725  0.0515  0.1282
   38DOPE   H2X 4807   4.721   4.610  12.736 -2.4535  0.6526  2.8294
   38DOPE   H2Y 4808   4.557   4.551  12.705 -0.4247 -0.8226  0.5894
   38DOPE   C23 4809   4.538   4.942  12.609  0.5057  0.0575 -0.7567
   38DOPE   H3R 4810   4.497   4.841  12.632  0.9268 -0.3435 -1.7047
   38DOPE   H3S 4811   4.469   5.023  12.640  0.3016 -0.2484 -0.4000
   38DOPE   C24 4812   4.676   4.942  12.681  0.5034  0.2461 -0.6122
   38DOPE   H4R 4813   4.748   5.010  12.631  0.1079  0.9443 -0.2479
   38DOPE   H4S 4814   4.712   4.839  12.661 -1.1211 -0.7509  1.2093
   38DOPE   C25 4815   4.661   4.959  12.831  0.2352 -0.2481  0.3669
   38DOPE   H5R 4816   4.576   4.902  12.872 -1.0030  1.2662 -0.0169
   38DOPE   H5S 4817   4.638   5.067  12.847 -0.9794 -0.0972 -1.9861
   38DOPE   C26 4818   4.788   4.928  12.914 -0.2431 -0.3414  0.2774
   38DOPE   H6R 4819   4.862   5.006  12.888 -1.0680  0.6854  0.9386
   38DOPE   H6S 4820   4.822   4.823  12.901 -1.0391 -1.0255  2.9729
   38DOPE   C27 4821   4.752   4.928  13.063  0.3147  0.0880  0.4186
   38DOPE   H7R 4822   4.670   4.854  13.073 -1.5606  2.0879  0.6055
   38DOPE   H7S 4823   4.706   5.024  13.096 -0.5252 -0.6453  1.4570
   38DOPE   C28 4824   4.859   4.881  13.156 -0.0956 -0.3934  0.5645
   38DOPE   H8R 4825   4.906   4.796  13.101 -0.5652 -1.6396  2.0173
   38DOPE   H8S 4826   4.810   4.850  13.251 -1.1672  0.9300  0.4614
   38DOPE   C29 4827   4.949   4.999  13.175  0.4243 -0.1844  0.3176
   38DOPE   H9R 4828   5.008   5.030  13.087 -0.0752  1.7508  0.6165
   38DOPE  C210 4829   4.985   5.064  13.283  0.4324  0.6678  0.0140
   38DOPE  H10R 4830   5.045   5.156  13.278 -0.9594  1.5381 -3.4913
   38DOPE  C211 4831   4.932   5.021  13.417  0.3241 -0.2287  0.2052
   38DOPE  H11R 4832   5.001   4.938  13.444 -0.6075 -1.2017 -0.3209
   38DOPE  H11S 4833   4.828   4.982  13.417  0.4005 -0.5014  1.8693
   38DOPE  C212 4834   4.947   5.137  13.509  0.0300  0.4937  0.4737
   38DOPE  H12R 4835   4.848   5.182  13.532 -0.2960 -0.1915  0.4255
   38DOPE  H12S 4836   5.011   5.222  13.475  1.4095 -0.1170  1.4743
   38DOPE  C213 4837   5.004   5.085  13.643 -0.0156 -0.1754  0.0265
   38DOPE  H13R 4838   5.089   5.018  13.620  1.7125  2.5776 -2.3435
   38DOPE  H13S 4839   4.922   5.022  13.684  1.0424 -0.2284  2.2436
   38DOPE  C214 4840   5.049   5.200  13.743 -0.4805  0.5316  0.0790
   38DOPE  H14R 4841   4.960   5.253  13.782 -0.1601 -0.2589  1.9662
   38DOPE  H14S 4842   5.108   5.274  13.684 -1.4255  1.2193 -0.0113
   38DOPE  C215 4843   5.139   5.168  13.864 -0.4033 -0.1617 -0.7531
   38DOPE  H15R 4844   5.091   5.087  13.923  0.1342  0.7489  1.0197
   38DOPE  H15S 4845   5.147   5.260  13.926 -2.6569 -0.5850  0.2507
   38DOPE  C216 4846   5.277   5.113  13.826 -0.0863 -0.7203  0.4804
   38DOPE  H16R 4847   5.322   5.177  13.747  1.2166 -0.4764  1.3770
   38DOPE  H16S 4848   5.263   5.011  13.786  0.5696 -0.3836 -0.6712
   38DOPE  C217 4849   5.380   5.105  13.941  0.5499  0.0467 -0.3539
   38DOPE  H17R 4850   5.398   5.198  14.000 -1.2379  0.2839 -0.1270
   38DOPE  H17S 4851   5.481   5.081  13.901  1.3321  0.4134  1.3000
   38DOPE  C218 4852   5.336   4.990  14.035  0.4757  0.6766  1.0525
   38DOPE  H18R 4853   5.370   4.888  14.005  1.1046 -0.1988  4.3578
   38DOPE  H18S 4854   5.225   5.000  14.038  0.6655  3.4089  0.8328
   38DOPE  H18T 4855   5.375   5.013  14.136  0.7748  1.2770  0.8002
   38DOPE   C33 4856   4.680   4.398  12.791 -0.0706 -0.5603 -0.3919
   38DOPE   H3X 4857   4.778   4.352  12.769  0.8008  1.3406 -0.7534
   38DOPE   H3Y 4858   4.602   4.328  12.755  0.4949 -0.1332 -2.5835
   38DOPE   C34 4859   4.674   4.418  12.945  0.1031  0.3513  0.1988
   38DOPE   H4X 4860   4.572   4.445  12.981  0.9219  0.8475  2.3119
   38DOPE   H4Y 4861   4.709   4.323  12.992  0.9009  1.0466  1.0550
   38DOPE   C35 4862   4.757   4.530  13.007  0.0834 -0.3827  0.0582
   38DOPE   H5X 4863   4.704   4.623  12.975 -1.0938 -1.0888 -0.0888
   38DOPE   H5Y 4864   4.861   4.526  12.970 -0.2642  1.4426 -1.2652
   38DOPE   C36 4865   4.765   4.530  13.160 -0.5454 -0.3574  0.0579
   38DOPE   H6X 4866   4.828   4.618  13.187 -1.4921  0.6915 -0.9854
   38DOPE   H6Y 4867   4.827   4.443  13.187  2.5173  1.2254 -1.3000
   38DOPE   C37 4868   4.636   4.549  13.231 -0.3297 -0.2708 -0.6740
   38DOPE   H7X 4869   4.585   4.644  13.204 -0.9759 -0.7016 -0.9856
   38DOPE   H7Y 4870   4.572   4.460  13.215 -0.8299 -0.0882  0.2515
   38DOPE   C38 4871   4.655   4.549  13.392 -0.1730  0.5039 -0.3250
   38DOPE   H8X 4872   4.700   4.452  13.419  0.5326  0.4748 -1.5376
   38DOPE   H8Y 4873   4.553   4.556  13.435 -0.5443  1.0252 -1.2580
   38DOPE   C39 4874   4.737   4.664  13.449  0.0771 -0.4393 -0.2711
   38DOPE   H9X 4875   4.823   4.693  13.389 -1.3084  1.2977 -1.5081
   38DOPE  C310 4876   4.698   4.749  13.547 -1.2570  0.8057 -0.4757
   38DOPE  H10X 4877   4.755   4.842  13.561  0.0106  0.1929 -1.3786
   38DOPE  C311 4878   4.574   4.744  13.632 -0.0293 -0.3487 -0.0226
   38DOPE  H11X 4879   4.515   4.837  13.618 -0.9793 -0.8111  0.7757
   38DOPE  H11Y 4880   4.503   4.662  13.607 -0.2966 -0.0872 -0.1316
   38DOPE  C312 4881   4.612   4.737  13.786  0.3026  0.2547  0.3313
   38DOPE  H12X 4882   4.514   4.741  13.838 -1.1670 -4.7722 -1.4430
   38DOPE  H12Y 4883   4.674   4.825  13.812  1.4199 -0.2557 -0.5205
   38DOPE  C313 4884   4.679   4.604  13.823  0.1065  0.9491  0.0584
   38DOPE  H13X 4885   4.648   4.520  13.757  1.4102  1.6187 -1.4822
   38DOPE  H13Y 4886   4.787   4.620  13.802 -0.0793  1.3461 -0.6334
   38DOPE  C314 4887   4.664   4.559  13.973 -0.1001  0.2440 -0.1608
   38DOPE  H14X 4888   4.713   4.459  13.973 -1.6225 -0.5584  1.6498
   38DOPE  H14Y 4889   4.556   4.565  13.999 -0.9621  0.9300 -3.4325
   38DOPE  C315 4890   4.732   4.644  14.076  0.2898 -0.0940  0.4199
   38DOPE  H15X 4891   4.706   4.750  14.058 -0.2986 -0.5445 -1.6441
   38DOPE  H15Y 4892   4.841   4.622  14.073 -0.4473 -5.6414 -4.2500
   38DOPE  C316 4893   4.680   4.615  14.215  1.0501  0.7170  0.1027
   38DOPE  H16X 4894   4.707   4.511  14.244  1.0044  0.1720 -1.6437
   38DOPE  H16Y 4895   4.570   4.627  14.218  0.6220 -2.3290  2.8299
   38DOPE  C317 4896   4.721   4.711  14.328 -0.0357 -0.2835  0.0135
   38DOPE  H17X 4897   4.680   4.811  14.300 -1.4743 -1.0387 -0.7147
   38DOPE  H17Y 4898   4.674   4.686  14.425 -1.5928  0.5290 -0.5015
   38DOPE  C318 4899   4.869   4.718  14.351  0.2284  0.1910 -0.2923
   38DOPE  H18X 4900   4.924   4.751  14.261 -1.2584 -1.5234 -1.9123
   38DOPE  H18Y 4901   4.899   4.787  14.433 -0.3031 -1.1161  1.0601
   38DOPE  H18Z 4902   4.904   4.618  14.385  2.2973  1.5829  1.9933
   39DOPE     N 4903   1.625   5.259  12.413 -0.4655  0.7143 -0.8028
   39DOPE   HN1 4904   1.689   5.334  12.382  0.4375  0.6983  0.8588
   39DOPE   HN2 4905   1.673   5.167  12.428 -2.2652 -0.6658 -2.8699
   39DOPE   HN3 4906   1.548   5.231  12.349 -0.4970 -3.2644  0.6890
   39DOPE   C12 4907   1.567   5.291  12.540  0.0156  0.4404 -0.0429
   39DOPE  H12A 4908   1.640   5.284  12.624  0.7389 -0.1676 -0.7076
   39DOPE  H12B 4909   1.483   5.220  12.557  0.4642  0.0996  0.8061
   39DOPE   C11 4910   1.514   5.437  12.553 -0.5348  0.1838 -0.2057
   39DOPE  H11A 4911   1.583   5.506  12.500 -0.2852  0.1755  0.1067
   39DOPE  H11B 4912   1.519   5.468  12.660 -0.1969  1.0237 -0.4571
   39DOPE     P 4913   1.345   5.518  12.387 -0.3613  0.0425  0.1788
   39DOPE   O13 4914   1.221   5.458  12.331 -0.0199 -0.2956 -0.1065
   39DOPE   O14 4915   1.457   5.519  12.287 -0.1912  0.6466  0.1433
   39DOPE   O11 4916   1.316   5.663  12.432 -0.7020 -0.4891  0.0787
   39DOPE   O12 4917   1.377   5.446  12.523 -0.5823 -0.3343  0.8073
   39DOPE    C1 4918   1.242   5.701  12.551 -0.8948 -1.2116 -0.2106
   39DOPE    HA 4919   1.301   5.690  12.644 -0.3756 -0.0994 -0.3967
   39DOPE    HB 4920   1.148   5.643  12.565 -2.6245  1.9558  2.8098
   39DOPE    C2 4921   1.202   5.850  12.544  0.0964  0.4598  0.8559
   39DOPE    HS 4922   1.164   5.876  12.443 -1.8434 -1.9730  0.8742
   39DOPE   O21 4923   1.304   5.941  12.583 -0.0507  0.1229 -0.0414
   39DOPE   C21 4924   1.374   5.996  12.483 -0.3004  0.0582 -0.0030
   39DOPE   O22 4925   1.374   5.962  12.366 -0.2261  0.1447  0.6196
   39DOPE   C22 4926   1.470   6.097  12.533 -0.8595  0.2702  0.6906
   39DOPE   H2R 4927   1.415   6.193  12.549  0.2642  0.6028  3.0135
   39DOPE   H2S 4928   1.555   6.105  12.463  0.4974 -0.5806  2.1741
   39DOPE    C3 4929   1.085   5.875  12.639  0.7254  0.1035 -0.7281
   39DOPE    HX 4930   0.993   5.855  12.580 -0.4786  2.7483  0.0735
   39DOPE    HY 4931   1.066   5.982  12.662 -1.0622 -0.4689  0.7094
   39DOPE   O31 4932   1.085   5.808  12.770  0.3298 -0.0894  0.8522
   39DOPE   C31 4933   0.972   5.809  12.840 -0.5545  0.6507  0.0187
   39DOPE   O32 4934   0.873   5.871  12.818  0.1507 -0.0845  0.4466
   39DOPE   C32 4935   1.011   5.730  12.968  0.1099  0.1809  0.8136
   39DOPE   H2X 4936   1.099   5.667  12.942  1.2445  1.7631  0.6496
   39DOPE   H2Y 4937   1.042   5.806  13.042 -0.4625  0.0620  1.1829
   39DOPE   C23 4938   1.542   6.064  12.671 -0.2166 -0.2790 -0.0195
   39DOPE   H3R 4939   1.477   6.017  12.748 -2.8424  0.4479 -1.6601
   39DOPE   H3S 4940   1.576   6.161  12.713 -0.2516 -0.6981  0.9892
   39DOPE   C24 4941   1.668   5.977  12.653 -0.0143 -0.6401 -0.2482
   39DOPE   H4R 4942   1.748   6.032  12.599 -0.6726 -1.4460 -2.1279
   39DOPE   H4S 4943   1.642   5.892  12.587 -0.0552  0.7017 -2.0289
   39DOPE   C25 4944   1.738   5.939  12.779 -0.0303 -0.1603 -0.3503
   39DOPE   H5R 4945   1.840   5.898  12.762 -0.6369 -0.7132 -3.3210
   39DOPE   H5S 4946   1.681   5.873  12.849  0.7504  0.0083  0.4567
   39DOPE   C26 4947   1.762   6.069  12.865  0.5023  1.1796 -0.5363
   39DOPE   H6R 4948   1.669   6.127  12.888 -1.4606 -2.2407  0.8958
   39DOPE   H6S 4949   1.826   6.141  12.809  0.2971  1.5731 -0.2698
   39DOPE   C27 4950   1.824   6.039  12.997  0.2377  0.1096 -0.3283
   39DOPE   H7R 4951   1.924   5.992  12.995 -1.0058 -2.9360  1.2580
   39DOPE   H7S 4952   1.766   5.961  13.052  0.8213 -0.3368 -0.3302
   39DOPE   C28 4953   1.814   6.154  13.097 -0.3823 -0.0929  0.2279
   39DOPE   H8R 4954   1.822   6.101  13.194 -4.2650  0.2272  0.8902
   39DOPE   H8S 4955   1.715   6.202  13.086 -0.8816 -1.1635 -0.1017
   39DOPE   C29 4956   1.931   6.249  13.068 -0.3962 -0.9378 -0.5573
   39DOPE   H9R 4957   1.984   6.240  12.971 -0.9745  0.0357 -0.9725
   39DOPE  C210 4958   1.957   6.352  13.155  0.0644  0.1191  0.1675
   39DOPE  H10R 4959   2.035   6.421  13.121  0.6315 -0.6953 -0.2235
   39DOPE  C211 4960   1.886   6.371  13.283 -0.0410 -0.5603 -0.2140
   39DOPE  H11R 4961   1.893   6.288  13.356 -1.7638  1.7501  2.7913
   39DOPE  H11S 4962   1.778   6.384  13.264 -0.5436 -1.7716  1.5906
   39DOPE  C212 4963   1.927   6.505  13.350  0.1572 -0.1146  0.4009
   39DOPE  H12R 4964   1.930   6.594  13.283 -0.3544 -1.5982 -1.6860
   39DOPE  H12S 4965   2.031   6.493  13.388  0.8978  0.3420 -1.3593
   39DOPE  C213 4966   1.849   6.541  13.471 -0.8191 -0.4105  1.4380
   39DOPE  H13R 4967   1.751   6.584  13.440  0.6669  0.6093 -2.3665
   39DOPE  H13S 4968   1.909   6.622  13.517  0.0815  0.0674 -0.4835
   39DOPE  C214 4969   1.836   6.428  13.573  0.1157 -0.4345  0.2451
   39DOPE  H14R 4970   1.938   6.397  13.604  0.3356 -2.3119 -2.0772
   39DOPE  H14S 4971   1.799   6.334  13.527  0.2098 -0.5621  0.4249
   39DOPE  C215 4972   1.737   6.462  13.690  0.2844  0.2708 -0.4374
   39DOPE  H15R 4973   1.631   6.478  13.659 -0.0582  0.0750  0.6186
   39DOPE  H15S 4974   1.766   6.549  13.753  1.0242 -0.0718 -0.3074
   39DOPE  C216 4975   1.734   6.342  13.778  0.2333 -0.1434 -0.1444
   39DOPE  H16R 4976   1.829   6.287  13.797  0.3093  0.7490  2.4615
   39DOPE  H16S 4977   1.680   6.263  13.722 -1.2070  0.5720  0.1966
   39DOPE  C217 4978   1.671   6.365  13.917 -0.7123  0.9929 -0.3921
   39DOPE  H17R 4979   1.568   6.405  13.910 -1.5962 -1.1604 -0.5641
   39DOPE  H17S 4980   1.723   6.438  13.982 -2.2126  0.0464  2.0285
   39DOPE  C218 4981   1.660   6.238  13.998 -0.1393 -0.4038 -0.2345
   39DOPE  H18R 4982   1.590   6.161  13.960  0.1325 -1.1081  0.6850
   39DOPE  H18S 4983   1.636   6.266  14.103  0.7204 -0.0286 -0.1325
   39DOPE  H18T 4984   1.757   6.185  14.006 -0.1027 -0.2190  0.6151
   39DOPE   C33 4985   0.895   5.640  13.008  0.3523  0.1013  0.2562
   39DOPE   H3X 4986   0.872   5.553  12.943  1.3097  0.6740 -0.8767
   39DOPE   H3Y 4987   0.799   5.695  13.004  0.2988 -0.0729 -1.8893
   39DOPE   C34 4988   0.917   5.600  13.154 -0.3503 -0.0419 -0.1226
   39DOPE   H4X 4989   0.896   5.681  13.227 -1.2392  0.5313 -1.0003
   39DOPE   H4Y 4990   0.843   5.519  13.172 -2.1856  1.5207 -0.4258
   39DOPE   C35 4991   1.058   5.540  13.187  0.4740 -0.2475  0.4725
   39DOPE   H5X 4992   1.140   5.605  13.150  0.2796 -0.1495  0.2120
   39DOPE   H5Y 4993   1.071   5.446  13.130  2.7200 -1.7773  3.2145
   39DOPE   C36 4994   1.073   5.524  13.338 -0.5083  1.0051  0.2368
   39DOPE   H6X 4995   0.984   5.468  13.374  0.5305 -0.6016  0.4185
   39DOPE   H6Y 4996   1.080   5.624  13.386  0.3335  0.4441  1.3443
   39DOPE   C37 4997   1.194   5.441  13.359 -0.3820 -0.5903 -0.1300
   39DOPE   H7X 4998   1.178   5.333  13.340  0.6630 -1.1848  2.0055
   39DOPE   H7Y 4999   1.280   5.472  13.296  0.1464  3.0675  2.1101
   39DOPE   C38 5000   1.238   5.438  13.506 -0.1265 -0.2650 -0.0571
   39DOPE   H8X 5001   1.244   5.545  13.535 -2.0573  0.8002 -3.1701
   39DOPE   H8Y 5002   1.343   5.402  13.517  0.4484  1.0119 -1.1120
   39DOPE   C39 5003   1.148   5.368  13.603  0.3005  0.0690  0.1124
   39DOPE   H9X 5004   1.135   5.259  13.593  0.7739 -0.0612  0.8691
   39DOPE  C310 5005   1.081   5.426  13.704 -0.3624 -0.0920 -0.5717
   39DOPE  H10X 5006   1.013   5.362  13.762  0.6861 -0.3154  0.4606
   39DOPE  C311 5007   1.106   5.569  13.754  0.6937 -0.3234  0.0826
   39DOPE  H11X 5008   1.214   5.594  13.768  0.3870  1.2281 -0.1100
   39DOPE  H11Y 5009   1.079   5.641  13.674  0.8495 -0.4725 -0.1054
   39DOPE  C312 5010   1.036   5.588  13.888 -0.6567  0.4878 -0.4607
   39DOPE  H12X 5011   1.077   5.506  13.951  1.3365  1.7781 -0.0097
   39DOPE  H12Y 5012   0.927   5.564  13.888 -0.8571  1.3174  0.5426
   39DOPE  C313 5013   1.069   5.723  13.956  0.5556  0.1921  0.3702
   39DOPE  H13X 5014   1.179   5.739  13.962  0.7086 -0.1187 -1.1123
   39DOPE  H13Y 5015   1.026   5.799  13.888  1.6781  2.2553  1.8738
   39DOPE  C314 5016   0.998   5.742  14.097  0.2152  1.1768 -0.3677
   39DOPE  H14X 5017   1.047   5.827  14.149  0.5468  1.2692 -0.8232
   39DOPE  H14Y 5018   1.022   5.653  14.160  0.3841  2.0215  0.7854
   39DOPE  C315 5019   0.848   5.752  14.098  0.6242  0.1153  0.0362
   39DOPE  H15X 5020   0.793   5.677  14.037  0.4489 -0.0252  0.3631
   39DOPE  H15Y 5021   0.824   5.854  14.061  2.9645 -0.0717 -2.2619
   39DOPE  C316 5022   0.791   5.742  14.240  0.5934  0.4039  0.2568
   39DOPE  H16X 5023   0.833   5.646  14.278 -0.4775  0.0399  0.5397
   39DOPE  H16Y 5024   0.681   5.738  14.234  0.6169  0.9286 -0.5583
   39DOPE  C317 5025   0.841   5.854  14.331  0.4533 -0.0311  0.0690
   39DOPE  H17X 5026   0.948   5.847  14.361  0.7349  0.1996 -0.8652
   39DOPE  H17Y 5027   0.835   5.949  14.274  0.3144  1.3509  2.2704
   39DOPE  C318 5028   0.755   5.874  14.455 -0.7743 -0.4681 -0.2060
   39DOPE  H18X 5029   0.790   5.956  14.521  1.7183 -0.9238 -0.8824
   39DOPE  H18Y 5030   0.654   5.907  14.421  0.2062  0.6714 -2.1987
   39DOPE  H18Z 5031   0.751   5.783  14.518 -0.1372 -1.5537 -1.6669
   40DOPE     N 5032   3.149   6.502  12.205 -0.6783 -0.6021 -0.1259
   40DOPE   HN1 5033   3.075   6.568  12.235  1.1775  1.8349 -0.6303
   40DOPE   HN2 5034   3.241   6.542  12.231 -1.1585  1.4311 -1.3608
   40DOPE   HN3 5035   3.146   6.484  12.103  0.4883  1.0143 -0.4811
   40DOPE   C12 5036   3.129   6.371  12.277  0.3436 -0.2132  0.1016
   40DOPE  H12A 5037   3.045   6.315  12.230  0.5860 -0.2088 -0.3382
   40DOPE  H12B 5038   3.102   6.397  12.382  0.1180  1.2771 -0.2950
   40DOPE   C11 5039   3.259   6.285  12.273  0.1277  0.0118  0.0980
   40DOPE  H11A 5040   3.259   6.245  12.170 -1.4205 -1.1737  0.5208
   40DOPE  H11B 5041   3.241   6.199  12.341 -1.0129 -1.2531 -1.7385
   40DOPE     P 5042   3.516   6.323  12.261  0.0451  0.0578  0.1581
   40DOPE   O13 5043   3.567   6.452  12.206  0.2662 -0.0500 -0.4200
   40DOPE   O14 5044   3.499   6.210  12.172 -0.2865 -0.5170 -0.1343
   40DOPE   O11 5045   3.590   6.281  12.394 -0.5693  0.0002  0.3851
   40DOPE   O12 5046   3.371   6.356  12.321  0.5844  0.3068 -0.2553
   40DOPE    C1 5047   3.527   6.192  12.485 -0.4344 -0.1819 -0.3157
   40DOPE    HA 5048   3.610   6.137  12.535 -2.0597 -2.3647  0.1472
   40DOPE    HB 5049   3.450   6.122  12.446 -2.3713  1.4822  0.2839
   40DOPE    C2 5050   3.452   6.268  12.601  0.0630  0.1567 -0.5355
   40DOPE    HS 5051   3.349   6.301  12.574  0.1528  1.3585  0.4919
   40DOPE   O21 5052   3.529   6.377  12.655  0.4782  0.1230 -0.3488
   40DOPE   C21 5053   3.486   6.500  12.635  0.0042  0.2728  0.8052
   40DOPE   O22 5054   3.383   6.541  12.593  0.3669  0.5742  0.1370
   40DOPE   C22 5055   3.595   6.590  12.674 -0.1197 -0.4080 -0.2916
   40DOPE   H2R 5056   3.635   6.638  12.582  0.9114 -1.4594 -0.4199
   40DOPE   H2S 5057   3.677   6.540  12.729 -0.7919  0.1099  1.2302
   40DOPE    C3 5058   3.434   6.171  12.720 -0.2050 -0.5890  0.0941
   40DOPE    HX 5059   3.537   6.139  12.745  0.6241  1.6243 -0.2043
   40DOPE    HY 5060   3.366   6.094  12.678 -2.4632  1.7808 -0.9178
   40DOPE   O31 5061   3.378   6.239  12.833 -0.4732 -0.2954 -0.2829
   40DOPE   C31 5062   3.261   6.211  12.882 -0.0964  0.5623 -0.3675
   40DOPE   O32 5063   3.190   6.121  12.842  0.3702  0.3859 -0.3332
   40DOPE   C32 5064   3.215   6.296  13.001 -0.6708  0.2758 -1.4600
   40DOPE   H2X 5065   3.172   6.220  13.070  1.1802 -0.5573 -1.1784
   40DOPE   H2Y 5066   3.306   6.338  13.048 -0.6670  0.6729 -1.8111
   40DOPE   C23 5067   3.549   6.695  12.778  0.3235 -0.0232 -0.2395
   40DOPE   H3R 5068   3.465   6.758  12.740 -0.5803  0.5143  2.4481
   40DOPE   H3S 5069   3.631   6.765  12.803  0.2979  0.5590 -1.6585
   40DOPE   C24 5070   3.490   6.616  12.904 -0.4309  0.3608 -0.2437
   40DOPE   H4R 5071   3.566   6.544  12.942 -2.9092 -2.4907 -0.3323
   40DOPE   H4S 5072   3.411   6.548  12.867  0.2011  0.5012 -1.9404
   40DOPE   C25 5073   3.438   6.715  13.004 -0.2289 -0.1058 -0.0471
   40DOPE   H5R 5074   3.344   6.757  12.964 -0.4853 -0.1920  0.4583
   40DOPE   H5S 5075   3.513   6.795  13.022  0.4117 -1.0102  1.5525
   40DOPE   C26 5076   3.424   6.648  13.143  0.8769 -0.5494 -0.0146
   40DOPE   H6R 5077   3.522   6.603  13.170  1.3162  0.9300  1.0248
   40DOPE   H6S 5078   3.346   6.574  13.118 -0.7367  1.2173 -0.4002
   40DOPE   C27 5079   3.380   6.750  13.248 -0.1354 -0.2066 -0.0042
   40DOPE   H7R 5080   3.275   6.781  13.228 -0.7506 -1.0555  1.6926
   40DOPE   H7S 5081   3.444   6.839  13.233  0.6904 -1.3918 -5.7927
   40DOPE   C28 5082   3.407   6.691  13.389  0.4978 -0.0441 -0.0708
   40DOPE   H8R 5083   3.366   6.763  13.463 -0.1419 -2.5780  2.2361
   40DOPE   H8S 5084   3.518   6.696  13.395  0.6676 -1.6995 -1.1824
   40DOPE   C29 5085   3.362   6.548  13.405  0.7747  0.1850  0.0694
   40DOPE   H9R 5086   3.442   6.476  13.386  1.4854  1.0979 -0.4847
   40DOPE  C210 5087   3.244   6.507  13.456 -0.1656  0.0409  0.4589
   40DOPE  H10R 5088   3.220   6.400  13.441 -1.1858  0.1375  1.2476
   40DOPE  C211 5089   3.128   6.603  13.489 -0.4021  0.3685  0.4285
   40DOPE  H11R 5090   3.029   6.565  13.454 -0.1768 -0.5215  0.7291
   40DOPE  H11S 5091   3.145   6.698  13.435 -0.2892 -0.2704 -0.6869
   40DOPE  C212 5092   3.115   6.638  13.640 -0.1091 -0.3523  0.9040
   40DOPE  H12R 5093   3.152   6.556  13.705  0.1162 -2.6134 -1.8962
   40DOPE  H12S 5094   3.007   6.662  13.652  0.0056  0.0225  1.2277
   40DOPE  C213 5095   3.203   6.756  13.686 -0.3496 -0.1448  0.6178
   40DOPE  H13R 5096   3.207   6.840  13.613  1.0659 -0.9845 -0.3246
   40DOPE  H13S 5097   3.308   6.724  13.700  0.0900  0.9693 -0.0335
   40DOPE  C214 5098   3.157   6.810  13.816 -1.2570 -0.7541 -0.7285
   40DOPE  H14R 5099   3.154   6.723  13.886 -0.1103  1.5861  2.4613
   40DOPE  H14S 5100   3.058   6.859  13.807 -1.0600 -0.0775  0.5593
   40DOPE  C215 5101   3.263   6.912  13.875 -0.2083  0.0521 -0.1277
   40DOPE  H15R 5102   3.278   6.992  13.799 -1.3844 -0.6954 -1.1888
   40DOPE  H15S 5103   3.359   6.857  13.888 -0.2268  0.0975  0.1926
   40DOPE  C216 5104   3.213   6.973  14.003  0.1651  0.1975 -0.3929
   40DOPE  H16R 5105   3.110   7.014  13.998  0.4583  1.0912  0.6321
   40DOPE  H16S 5106   3.286   7.053  14.027  1.3158 -0.7092 -0.7607
   40DOPE  C217 5107   3.218   6.868  14.118 -0.0495  0.1127  0.1937
   40DOPE  H17R 5108   3.317   6.818  14.114  0.7939  1.7530 -1.2118
   40DOPE  H17S 5109   3.138   6.794  14.094 -1.0644  1.3887 -0.5003
   40DOPE  C218 5110   3.190   6.938  14.258 -0.0951 -0.3258 -0.2892
   40DOPE  H18R 5111   3.106   7.012  14.257  0.0572 -0.1438 -1.3680
   40DOPE  H18S 5112   3.279   6.988  14.301 -0.6685  0.6900 -0.2475
   40DOPE  H18T 5113   3.143   6.866  14.328 -0.2801  1.6881  1.7863
   40DOPE   C33 5114   3.105   6.410  12.969  0.0519  0.3242  0.5198
   40DOPE   H3X 5115   3.036   6.372  12.891  2.9052  1.3855 -2.7568
   40DOPE   H3Y 5116   3.154   6.488  12.908  1.0728 -1.1164 -0.5816
   40DOPE   C34 5117   3.036   6.470  13.089 -0.2621  0.3581 -0.0888
   40DOPE   H4X 5118   3.015   6.389  13.163 -1.3100 -0.2142 -0.9844
   40DOPE   H4Y 5119   3.120   6.532  13.127 -0.0402 -0.5101  0.9037
   40DOPE   C35 5120   2.927   6.569  13.053 -0.3504  0.7599 -0.1195
   40DOPE   H5X 5121   2.844   6.505  13.015 -0.1704 -0.6278  1.6864
   40DOPE   H5Y 5122   2.964   6.632  12.969  0.3356  1.2707  0.5645
   40DOPE   C36 5123   2.880   6.665  13.162  0.2067 -0.0684 -0.5897
   40DOPE   H6X 5124   2.967   6.726  13.193  0.1294 -0.0232 -0.4630
   40DOPE   H6Y 5125   2.853   6.593  13.242  1.6929  0.5868  0.5355
   40DOPE   C37 5126   2.757   6.749  13.122 -0.0098  0.3219 -1.1681
   40DOPE   H7X 5127   2.788   6.834  13.058 -1.3742  0.8726 -1.1374
   40DOPE   H7Y 5128   2.683   6.684  13.071  0.5504 -1.0495 -0.2825
   40DOPE   C38 5129   2.696   6.796  13.253  0.8252 -0.5230 -0.7152
   40DOPE   H8X 5130   2.660   6.706  13.307 -0.9308 -0.2634 -1.3942
   40DOPE   H8Y 5131   2.608   6.853  13.218  1.7507  1.1056 -0.5013
   40DOPE   C39 5132   2.785   6.878  13.344 -0.1016  0.0949 -0.3258
   40DOPE   H9X 5133   2.847   6.958  13.299 -0.2966  1.5986  1.8963
   40DOPE  C310 5134   2.800   6.847  13.474 -0.0888  0.1069 -0.2869
   40DOPE  H10X 5135   2.865   6.906  13.540  3.2959 -0.8201 -2.5254
   40DOPE  C311 5136   2.728   6.738  13.551  0.5890 -0.3152  0.9397
   40DOPE  H11X 5137   2.618   6.749  13.542  0.7966  1.8125  0.4076
   40DOPE  H11Y 5138   2.757   6.635  13.521  0.4452 -0.5718  1.6593
   40DOPE  C312 5139   2.748   6.760  13.710  0.7602  0.0672  0.3789
   40DOPE  H12X 5140   2.851   6.796  13.730  0.9829 -0.4131  0.1134
   40DOPE  H12Y 5141   2.740   6.661  13.759  0.7811 -0.5959 -0.9144
   40DOPE  C313 5142   2.655   6.861  13.769  0.7392 -0.8022 -0.2048
   40DOPE  H13X 5143   2.683   6.964  13.740  0.7122 -0.1186  2.0051
   40DOPE  H13Y 5144   2.552   6.844  13.730 -0.4262  1.9672  1.4057
   40DOPE  C314 5145   2.653   6.847  13.926 -0.4314  0.1804  0.3647
   40DOPE  H14X 5146   2.750   6.882  13.967 -0.4523  0.8532 -0.1392
   40DOPE  H14Y 5147   2.639   6.742  13.960  1.5726  0.0374  0.9046
   40DOPE  C315 5148   2.542   6.934  13.986  0.1435  0.0081  0.4520
   40DOPE  H15X 5149   2.448   6.903  13.934 -0.1072 -0.1363  0.9838
   40DOPE  H15Y 5150   2.556   7.040  13.959 -1.6591 -0.0924 -1.0999
   40DOPE  C316 5151   2.536   6.920  14.139  0.2162  1.4453 -0.1558
   40DOPE  H16X 5152   2.497   7.010  14.191  1.0858  0.5203  2.2318
   40DOPE  H16Y 5153   2.639   6.911  14.179  0.2758  1.8748 -0.2025
   40DOPE  C317 5154   2.461   6.788  14.168  0.4825 -0.3514 -0.5632
   40DOPE  H17X 5155   2.378   6.785  14.094  0.0642  2.5641 -0.2996
   40DOPE  H17Y 5156   2.516   6.698  14.132 -0.6971 -0.6813 -1.6281
   40DOPE  C318 5157   2.409   6.779  14.314  0.4800 -0.0543 -0.0800
   40DOPE  H18X 5158   2.341   6.863  14.339  1.4203  0.3314  1.3160
   40DOPE  H18Y 5159   2.357   6.683  14.333  0.2838 -0.0837 -0.7567
   40DOPE  H18Z 5160   2.486   6.805  14.390 -0.0231 -0.2529  0.5064
   41DOPE     N 5161   2.910   7.582  12.421  0.4089  0.5905  0.6050
   41DOPE   HN1 5162   2.904   7.568  12.318 -0.2158  1.1483  0.5542
   41DOPE   HN2 5163   2.820   7.624  12.454  0.6192  1.3668  0.2182
   41DOPE   HN3 5164   2.993   7.642  12.439  1.7358 -0.9972 -0.0786
   41DOPE   C12 5165   2.926   7.444  12.484  0.5285  0.3545 -1.2397
   41DOPE  H12A 5166   2.908   7.461  12.592  2.0522  0.4713 -0.9826
   41DOPE  H12B 5167   3.031   7.412  12.470  0.1618 -1.8541  0.5463
   41DOPE   C11 5168   2.821   7.342  12.433 -0.9433  0.0671  0.0534
   41DOPE  H11A 5169   2.841   7.245  12.483  2.8393  0.6285 -0.1152
   41DOPE  H11B 5170   2.843   7.322  12.326  0.6382 -0.5875  0.4672
   41DOPE     P 5171   2.548   7.300  12.434 -0.1263 -0.0659  0.3769
   41DOPE   O13 5172   2.570   7.173  12.364 -0.0133  0.2326  0.4083
   41DOPE   O14 5173   2.460   7.394  12.359 -0.2777 -0.2992 -0.1434
   41DOPE   O11 5174   2.486   7.281  12.577 -0.0650  0.4015  0.4022
   41DOPE   O12 5175   2.687   7.377  12.452 -0.4786  0.2196 -0.7432
   41DOPE    C1 5176   2.400   7.372  12.644 -0.6600  0.1494 -0.4663
   41DOPE    HA 5177   2.314   7.322  12.695 -0.6699  1.2195  0.6254
   41DOPE    HB 5178   2.358   7.449  12.576 -0.7637 -0.2468 -0.8559
   41DOPE    C2 5179   2.482   7.457  12.755  0.8804  0.1326  0.3968
   41DOPE    HS 5180   2.577   7.490  12.708  1.3816  1.0878  2.0081
   41DOPE   O21 5181   2.511   7.363  12.865  0.5305  0.5073  0.2272
   41DOPE   C21 5182   2.631   7.310  12.883 -0.4122 -0.9321 -0.0719
   41DOPE   O22 5183   2.726   7.337  12.811 -0.6518 -0.7764 -0.0676
   41DOPE   C22 5184   2.642   7.221  13.004  0.3810  0.4040 -0.2143
   41DOPE   H2R 5185   2.665   7.124  12.957  0.9204  2.5458 -4.9054
   41DOPE   H2S 5186   2.541   7.210  13.050  1.1580 -2.1290  1.0344
   41DOPE    C3 5187   2.405   7.582  12.798  0.1290 -0.8859  0.5939
   41DOPE    HX 5188   2.300   7.552  12.815  0.2576 -1.3426  0.6112
   41DOPE    HY 5189   2.399   7.661  12.720  2.8703  2.1272  3.1662
   41DOPE   O31 5190   2.465   7.650  12.910 -0.6252  0.4916  0.1047
   41DOPE   C31 5191   2.567   7.729  12.888 -0.6853 -0.2329 -0.4856
   41DOPE   O32 5192   2.636   7.744  12.793  0.6167 -0.5356  0.4331
   41DOPE   C32 5193   2.614   7.786  13.026 -0.2999 -0.1559 -0.2662
   41DOPE   H2X 5194   2.524   7.826  13.079  0.6755 -2.1564  3.1804
   41DOPE   H2Y 5195   2.644   7.696  13.082 -3.2286 -0.9906  0.1476
   41DOPE   C23 5196   2.753   7.251  13.102  0.2381 -0.7330 -0.3357
   41DOPE   H3R 5197   2.852   7.249  13.051  0.5281  3.8683 -0.3726
   41DOPE   H3S 5198   2.765   7.174  13.181 -0.3604  1.1578  1.7192
   41DOPE   C24 5199   2.729   7.389  13.178 -0.1986 -0.3169 -0.0302
   41DOPE   H4R 5200   2.740   7.472  13.104  1.1555  0.0905  0.6065
   41DOPE   H4S 5201   2.814   7.410  13.246  0.0193  1.6128 -0.8326
   41DOPE   C25 5202   2.604   7.385  13.266  0.3481 -0.5615  0.5435
   41DOPE   H5R 5203   2.514   7.356  13.207  0.1723  1.8907 -0.5456
   41DOPE   H5S 5204   2.581   7.493  13.279  0.4697 -0.4123 -0.3649
   41DOPE   C26 5205   2.623   7.310  13.394  0.5259  0.2192 -0.4214
   41DOPE   H6R 5206   2.709   7.352  13.450  1.1610 -2.5553  0.8316
   41DOPE   H6S 5207   2.652   7.203  13.395  0.3410  0.1621  1.2571
   41DOPE   C27 5208   2.498   7.334  13.477  0.5738  0.2999 -0.9308
   41DOPE   H7R 5209   2.425   7.264  13.431 -0.3321  0.3368  0.3933
   41DOPE   H7S 5210   2.472   7.442  13.475  1.6522  0.6417  1.0802
   41DOPE   C28 5211   2.522   7.309  13.627  0.3830 -0.2554 -0.1084
   41DOPE   H8R 5212   2.580   7.399  13.658 -3.2283  1.6962  1.6952
   41DOPE   H8S 5213   2.592   7.224  13.639  1.2481  0.5088  0.4399
   41DOPE   C29 5214   2.397   7.294  13.712  0.2554 -0.5171  0.6465
   41DOPE   H9R 5215   2.338   7.205  13.684 -0.6990 -0.5268  2.5735
   41DOPE  C210 5216   2.344   7.377  13.805 -0.7890  0.3696  0.2706
   41DOPE  H10R 5217   2.248   7.344  13.850  0.8804 -1.3383  2.8916
   41DOPE  C211 5218   2.404   7.504  13.860  0.2456  0.3248 -0.1722
   41DOPE  H11R 5219   2.328   7.584  13.860 -0.4199 -0.2554  1.5791
   41DOPE  H11S 5220   2.480   7.548  13.793 -0.6985  1.9788 -0.1981
   41DOPE  C212 5221   2.464   7.477  13.997 -0.3756  0.2783 -0.7235
   41DOPE  H12R 5222   2.498   7.572  14.045  1.6820  0.2277 -1.9913
   41DOPE  H12S 5223   2.557   7.418  14.002 -0.0102  0.8069 -1.1645
   41DOPE  C213 5224   2.367   7.404  14.093 -0.9082 -0.4841 -0.3873
   41DOPE  H13R 5225   2.368   7.297  14.063 -1.1347 -0.4085 -0.6567
   41DOPE  H13S 5226   2.264   7.445  14.090 -0.0194  2.6685  3.1897
   41DOPE  C214 5227   2.424   7.405  14.236  0.1964  0.0010 -0.5609
   41DOPE  H14R 5228   2.530   7.370  14.229  0.2953 -0.4987  2.3286
   41DOPE  H14S 5229   2.359   7.339  14.298 -0.7124  0.8450 -0.5944
   41DOPE  C215 5230   2.421   7.541  14.304 -0.4920 -0.6066 -0.1270
   41DOPE  H15R 5231   2.318   7.584  14.300 -0.6155 -0.9274 -0.5065
   41DOPE  H15S 5232   2.477   7.615  14.244 -1.0087  0.6226  0.8607
   41DOPE  C216 5233   2.477   7.537  14.447 -0.3951 -0.0466 -0.3466
   41DOPE  H16R 5234   2.587   7.524  14.449 -0.3949 -0.1766 -1.1470
   41DOPE  H16S 5235   2.442   7.444  14.499  0.4802 -1.5688 -2.3421
   41DOPE  C217 5236   2.447   7.661  14.527 -0.4890  0.5220  0.6839
   41DOPE  H17R 5237   2.337   7.673  14.538 -0.7360 -1.3890  0.6848
   41DOPE  H17S 5238   2.481   7.738  14.455  0.5006 -1.0884 -0.6646
   41DOPE  C218 5239   2.534   7.676  14.644  0.4822 -0.1338  0.3525
   41DOPE  H18R 5240   2.512   7.610  14.731 -1.1640  1.1352  0.9585
   41DOPE  H18S 5241   2.511   7.777  14.687 -0.3910 -0.1744 -0.0012
   41DOPE  H18T 5242   2.640   7.680  14.614  0.1012 -0.6204 -1.0954
   41DOPE   C33 5243   2.729   7.894  13.022  0.2257  0.0426 -0.0788
   41DOPE   H3X 5244   2.694   7.990  12.977 -2.2036 -0.4410  0.6545
   41DOPE   H3Y 5245   2.815   7.864  12.958 -1.0959 -1.5222 -1.2052
   41DOPE   C34 5246   2.794   7.904  13.165 -0.6239  0.3756  0.2506
   41DOPE   H4X 5247   2.796   7.799  13.203 -1.0659  0.4987  0.6166
   41DOPE   H4Y 5248   2.899   7.941  13.162 -0.1997 -0.7776 -2.2016
   41DOPE   C35 5249   2.713   7.994  13.258  0.1736  0.0491  0.2793
   41DOPE   H5X 5250   2.621   7.938  13.286 -1.2085  1.7350 -0.6578
   41DOPE   H5Y 5251   2.672   8.081  13.202  0.2868 -0.8858 -1.3198
   41DOPE   C36 5252   2.793   8.036  13.370  0.7055 -0.3682 -0.6219
   41DOPE   H6X 5253   2.883   8.087  13.328 -0.9091  1.9275 -1.5339
   41DOPE   H6Y 5254   2.837   7.947  13.419 -1.7977 -0.9011  0.8081
   41DOPE   C37 5255   2.719   8.116  13.475  0.8445 -0.4429 -0.0396
   41DOPE   H7X 5256   2.636   8.066  13.530  1.2317 -2.8591 -1.4723
   41DOPE   H7Y 5257   2.801   8.148  13.542  2.0593 -0.7681 -1.3192
   41DOPE   C38 5258   2.659   8.250  13.419 -0.0535 -0.3770  0.7537
   41DOPE   H8X 5259   2.588   8.287  13.495 -0.6732 -0.5554  0.2679
   41DOPE   H8Y 5260   2.606   8.237  13.323 -0.6493 -0.0181  1.0284
   41DOPE   C39 5261   2.773   8.351  13.384  0.4283 -0.0514  0.1115
   41DOPE   H9X 5262   2.826   8.341  13.288  2.3377 -2.3428  1.2872
   41DOPE  C310 5263   2.799   8.465  13.452 -0.0010  0.6184  0.7955
   41DOPE  H10X 5264   2.895   8.509  13.421 -0.1450 -0.1470 -0.8183
   41DOPE  C311 5265   2.740   8.514  13.582 -0.5777  1.0473  0.4909
   41DOPE  H11X 5266   2.669   8.435  13.612  1.3322 -0.9411  0.0496
   41DOPE  H11Y 5267   2.820   8.518  13.659 -0.8735 -0.5135  0.9197
   41DOPE  C312 5268   2.667   8.647  13.579 -0.2558 -1.1145  0.4682
   41DOPE  H12X 5269   2.737   8.728  13.547  0.7856 -0.9721  2.9209
   41DOPE  H12Y 5270   2.636   8.665  13.684 -0.3858 -1.1457  0.4348
   41DOPE  C313 5271   2.544   8.655  13.486  0.0352  0.0380 -0.2090
   41DOPE  H13X 5272   2.573   8.621  13.384  0.0148  0.3214 -0.3112
   41DOPE  H13Y 5273   2.463   8.592  13.527 -0.3761  0.1469 -0.8477
   41DOPE  C314 5274   2.476   8.793  13.466 -0.0192  0.2238 -1.1570
   41DOPE  H14X 5275   2.392   8.778  13.395 -0.1212 -2.0886 -0.6469
   41DOPE  H14Y 5276   2.546   8.871  13.430  1.4865 -0.2854  0.4906
   41DOPE  C315 5277   2.409   8.848  13.595  0.1786  0.1777  0.1281
   41DOPE  H15X 5278   2.490   8.863  13.670 -1.1990 -0.4002  1.7899
   41DOPE  H15Y 5279   2.339   8.769  13.629  0.7094 -1.1524 -1.7011
   41DOPE  C316 5280   2.331   8.980  13.595  0.3901  0.1237  0.0032
   41DOPE  H16X 5281   2.259   8.988  13.511  1.4685 -1.4382 -1.1252
   41DOPE  H16Y 5282   2.412   9.056  13.579  1.6756 -0.9819  1.0399
   41DOPE  C317 5283   2.240   9.019  13.716 -0.5792 -0.1885  0.0237
   41DOPE  H17X 5284   2.202   9.122  13.704 -1.7997 -0.6196  0.0489
   41DOPE  H17Y 5285   2.143   8.967  13.705 -0.4518 -0.3074 -0.6077
   41DOPE  C318 5286   2.301   8.993  13.855  0.2393 -0.1305 -0.2947
   41DOPE  H18X 5287   2.333   8.889  13.876 -3.2198 -1.0215  1.3439
   41DOPE  H18Y 5288   2.390   9.054  13.880  0.0633 -0.2471  0.6295
   41DOPE  H18Z 5289   2.227   9.010  13.935  1.1507  1.6715  0.2090
   42DOPE     N 5290   1.164   6.900  12.619  0.5525  0.1895  0.2485
   42DOPE   HN1 5291   1.085   6.891  12.686  1.3989 -1.1896  1.0886
   42DOPE   HN2 5292   1.179   7.003  12.605  0.3358  0.2893  0.7396
   42DOPE   HN3 5293   1.136   6.863  12.526  2.6993  0.8636 -0.7390
   42DOPE   C12 5294   1.281   6.840  12.680 -1.1669 -0.1635 -0.2403
   42DOPE  H12A 5295   1.301   6.886  12.779  0.4691 -2.7602  0.7359
   42DOPE  H12B 5296   1.371   6.866  12.620 -0.7879 -3.0501 -1.0563
   42DOPE   C11 5297   1.269   6.689  12.679 -0.3806  0.4126  0.3571
   42DOPE  H11A 5298   1.172   6.668  12.729 -0.6741  0.1251 -0.3162
   42DOPE  H11B 5299   1.356   6.643  12.731  0.1108 -0.6246 -1.3273
   42DOPE     P 5300   1.244   6.482  12.516  0.1058  0.4476 -0.1135
   42DOPE   O13 5301   1.373   6.447  12.456 -0.0781 -0.8418 -0.0835
   42DOPE   O14 5302   1.128   6.463  12.420  0.1626  0.5894  0.0703
   42DOPE   O11 5303   1.220   6.403  12.654  0.6524 -0.0545  0.0169
   42DOPE   O12 5304   1.256   6.640  12.551  0.1775 -0.1239  0.2820
   42DOPE    C1 5305   1.130   6.300  12.664  0.4149  0.5855 -0.1123
   42DOPE    HA 5306   1.171   6.225  12.736  1.6681  2.1746  0.8874
   42DOPE    HB 5307   1.092   6.250  12.572  2.0261 -1.0262  0.0488
   42DOPE    C2 5308   1.000   6.343  12.746 -0.2756  0.7086  0.1933
   42DOPE    HS 5309   0.938   6.412  12.685 -3.7882 -2.2866  0.0270
   42DOPE   O21 5310   1.032   6.389  12.884  0.2146  0.1645 -0.2914
   42DOPE   C21 5311   0.974   6.498  12.926  0.1697 -0.5781 -0.2437
   42DOPE   O22 5312   0.896   6.564  12.857  0.8275 -0.1976  0.0256
   42DOPE   C22 5313   1.018   6.528  13.060 -0.8802 -0.4246  0.0821
   42DOPE   H2R 5314   1.117   6.484  13.084  0.5881  3.1474  1.1788
   42DOPE   H2S 5315   0.957   6.476  13.137 -1.1947  1.0354  0.8621
   42DOPE    C3 5316   0.896   6.226  12.756  0.1927  0.0841  0.2323
   42DOPE    HX 5317   0.944   6.147  12.818  0.4724  0.6405  0.7388
   42DOPE    HY 5318   0.875   6.187  12.654 -0.4872  1.6728 -0.2753
   42DOPE   O31 5319   0.777   6.264  12.820  0.6724 -0.5368 -0.0979
   42DOPE   C31 5320   0.695   6.339  12.762 -0.9120  0.6775 -0.7011
   42DOPE   O32 5321   0.693   6.376  12.647  0.6361  0.2100 -0.2012
   42DOPE   C32 5322   0.582   6.349  12.863 -0.0460 -0.2136  0.7993
   42DOPE   H2X 5323   0.621   6.366  12.966  1.1827  1.5462  0.0802
   42DOPE   H2Y 5324   0.521   6.438  12.837 -0.6030 -1.0138 -0.7546
   42DOPE   C23 5325   1.036   6.675  13.098 -0.0418 -0.4574  0.3983
   42DOPE   H3R 5326   0.995   6.697  13.199  0.5842  2.5977  0.0810
   42DOPE   H3S 5327   0.973   6.740  13.034 -0.3664  1.1550  2.2841
   42DOPE   C24 5328   1.190   6.715  13.087 -0.2186 -0.0368 -0.3595
   42DOPE   H4R 5329   1.221   6.676  12.988 -1.1538 -0.2957 -0.5556
   42DOPE   H4S 5330   1.244   6.653  13.162 -0.8949  0.3925  0.4919
   42DOPE   C25 5331   1.218   6.862  13.114  0.4422 -0.4629  0.7134
   42DOPE   H5R 5332   1.131   6.902  13.169  0.4075  1.2792 -0.5362
   42DOPE   H5S 5333   1.240   6.916  13.019  2.4823  0.4289  1.6246
   42DOPE   C26 5334   1.329   6.878  13.223  0.5820  1.0009 -0.4014
   42DOPE   H6R 5335   1.317   6.807  13.308  1.1288 -0.2679 -1.3488
   42DOPE   H6S 5336   1.313   6.981  13.261 -3.3998 -0.0617  1.3099
   42DOPE   C27 5337   1.478   6.876  13.176  0.4137  0.5771 -0.1098
   42DOPE   H7R 5338   1.496   6.921  13.076  1.0832  0.2635 -0.1345
   42DOPE   H7S 5339   1.501   6.768  13.168 -0.0581  0.4283  0.4756
   42DOPE   C28 5340   1.566   6.954  13.280 -0.6328 -0.6688  0.0914
   42DOPE   H8R 5341   1.550   6.904  13.378  0.0855 -1.4190 -0.1559
   42DOPE   H8S 5342   1.518   7.053  13.290  0.8901  0.2565 -1.3148
   42DOPE   C29 5343   1.712   6.981  13.254 -0.2062  0.5419 -0.4864
   42DOPE   H9R 5344   1.743   6.998  13.150  1.0547  0.1714 -0.1915
   42DOPE  C210 5345   1.804   6.983  13.350 -0.2001 -0.4225 -0.0009
   42DOPE  H10R 5346   1.907   7.007  13.322 -0.3539  1.2886  0.7388
   42DOPE  C211 5347   1.796   6.980  13.500 -0.2748 -0.2805  0.5988
   42DOPE  H11R 5348   1.860   6.900  13.543  2.2269  0.8271 -0.8661
   42DOPE  H11S 5349   1.694   6.948  13.530 -1.1540  0.8656 -1.0348
   42DOPE  C212 5350   1.839   7.108  13.565 -0.3518 -0.4904  0.1223
   42DOPE  H12R 5351   1.772   7.191  13.537 -0.8450 -1.1782 -0.7778
   42DOPE  H12S 5352   1.936   7.132  13.517 -0.7357 -0.2498 -0.5397
   42DOPE  C213 5353   1.867   7.102  13.714 -0.1017 -0.2459 -0.1136
   42DOPE  H13R 5354   1.951   7.031  13.727 -0.4323 -0.3763  1.6459
   42DOPE  H13S 5355   1.776   7.069  13.769  1.1363 -0.2323  2.0593
   42DOPE  C214 5356   1.920   7.240  13.750  0.0439  0.5092 -0.2006
   42DOPE  H14R 5357   1.853   7.314  13.702  0.7693  0.6549 -1.0160
   42DOPE  H14S 5358   2.023   7.248  13.711  1.0396 -2.5562  1.4420
   42DOPE  C215 5359   1.943   7.248  13.904 -0.2016 -0.2776 -1.1330
   42DOPE  H15R 5360   2.045   7.210  13.924 -0.4510  0.4927  2.1776
   42DOPE  H15S 5361   1.866   7.181  13.948  0.5266 -0.3230  0.0965
   42DOPE  C216 5362   1.933   7.393  13.950  0.2685  0.5634  0.4649
   42DOPE  H16R 5363   1.836   7.423  13.905  2.0737  0.5998 -3.9397
   42DOPE  H16S 5364   2.013   7.459  13.910  2.4904 -0.7852  2.3894
   42DOPE  C217 5365   1.915   7.409  14.102  0.3515  0.2227 -0.2739
   42DOPE  H17R 5366   1.989   7.335  14.141  1.0162  0.4704 -1.0269
   42DOPE  H17S 5367   1.810   7.380  14.122 -0.9787  5.3183  1.4858
   42DOPE  C218 5368   1.932   7.544  14.155 -0.2518 -0.2002  0.2727
   42DOPE  H18R 5369   1.855   7.615  14.118 -1.4484 -0.6338  1.8180
   42DOPE  H18S 5370   2.027   7.590  14.121 -0.2989 -0.0825  0.3004
   42DOPE  H18T 5371   1.936   7.556  14.266 -0.0245  2.4300  0.0361
   42DOPE   C33 5372   0.489   6.222  12.854  0.4281  0.0080 -0.2347
   42DOPE   H3X 5373   0.557   6.134  12.858 -1.7887 -1.7541  0.8670
   42DOPE   H3Y 5374   0.436   6.238  12.758 -0.0833  2.2049  0.3461
   42DOPE   C34 5375   0.399   6.205  12.984  0.3811 -0.4764  0.2885
   42DOPE   H4X 5376   0.344   6.109  12.971  1.7089 -1.8695  3.7404
   42DOPE   H4Y 5377   0.470   6.198  13.069  0.2173  3.4991  0.9632
   42DOPE   C35 5378   0.300   6.323  13.021  0.4552 -0.3271  0.6461
   42DOPE   H5X 5379   0.222   6.324  12.941  0.3555 -1.5630  0.6961
   42DOPE   H5Y 5380   0.353   6.420  13.027 -2.7281  1.6782 -0.7867
   42DOPE   C36 5381   0.245   6.298  13.166  0.0434  0.4612  0.2570
   42DOPE   H6X 5382   0.208   6.395  13.205 -2.5636  0.2027 -1.3060
   42DOPE   H6Y 5383   0.340   6.289  13.223  0.5348  0.2116 -0.5845
   42DOPE   C37 5384   0.140   6.193  13.175  0.3873  0.0562  0.5896
   42DOPE   H7X 5385   0.084   6.203  13.079  1.5924  2.7165  0.0541
   42DOPE   H7Y 5386   0.196   6.098  13.166  1.2453  0.3966  2.0400
   42DOPE   C38 5387   0.048   6.212  13.297  0.5834  0.4898  0.4074
   42DOPE   H8X 5388   0.013   6.107  13.305  1.6804 -0.0626 -1.4850
   42DOPE   H8Y 5389  -0.047   6.267  13.280 -0.4826 -0.9606  1.4033
   42DOPE   C39 5390   0.105   6.285  13.420  0.6475  0.1158  0.3247
   42DOPE   H9X 5391   0.154   6.379  13.394  1.1229 -0.4859 -1.0309
   42DOPE  C310 5392   0.090   6.226  13.548 -0.6575 -0.4418 -0.0678
   42DOPE  H10X 5393   0.137   6.274  13.635  0.3058  1.0352 -1.3541
   42DOPE  C311 5394   0.019   6.096  13.587 -0.1137 -0.1467  1.0672
   42DOPE  H11X 5395  -0.054   6.066  13.508  0.0757 -1.7752  1.4731
   42DOPE  H11Y 5396   0.089   6.012  13.604  0.2725  0.4489  2.5602
   42DOPE  C312 5397  -0.075   6.116  13.704 -0.2891  0.0650 -0.2814
   42DOPE  H12X 5398  -0.156   6.040  13.709  1.0854 -1.4584 -0.3163
   42DOPE  H12Y 5399  -0.123   6.215  13.694 -0.6153  0.0045  0.6085
   42DOPE  C313 5400   0.005   6.111  13.835 -0.0326  0.1920 -0.0930
   42DOPE  H13X 5401   0.110   6.141  13.815  0.6199 -1.3626  0.8556
   42DOPE  H13Y 5402  -0.046   6.181  13.905 -4.5402  0.8696 -3.5263
   42DOPE  C314 5403   0.010   5.978  13.905  0.4022 -0.6968 -0.1967
   42DOPE  H14X 5404   0.065   5.904  13.843  1.4897  0.4387 -0.6359
   42DOPE  H14Y 5405  -0.096   5.948  13.918 -0.1521  0.2011 -2.3412
   42DOPE  C315 5406   0.062   5.997  14.050  0.6428 -0.0143 -0.4473
   42DOPE  H15X 5407  -0.019   5.955  14.114  0.8266  0.4555  0.1091
   42DOPE  H15Y 5408   0.065   6.105  14.078  0.8994 -0.4069  1.1479
   42DOPE  C316 5409   0.196   5.930  14.079  0.2289 -0.2790 -0.0911
   42DOPE  H16X 5410   0.223   5.836  14.026  3.7464 -0.6384  2.0205
   42DOPE  H16Y 5411   0.199   5.895  14.185 -2.4027 -1.0598 -0.2054
   42DOPE  C317 5412   0.320   6.016  14.049 -0.8988 -0.4266  0.2496
   42DOPE  H17X 5413   0.343   6.012  13.941  0.1233 -0.6369  0.4670
   42DOPE  H17Y 5414   0.303   6.123  14.074  1.0213 -0.2051  0.7608
   42DOPE  C318 5415   0.451   5.975  14.124  0.6598  0.2225 -0.4681
   42DOPE  H18X 5416   0.435   6.003  14.230  1.0983 -2.5961  0.4283
   42DOPE  H18Y 5417   0.452   5.864  14.132 -0.4180  0.3731  3.4797
   42DOPE  H18Z 5418   0.542   6.019  14.079  0.0169  0.5976 -1.4329
   43DOPE     N 5419   1.257   4.459  12.031 -0.1486  0.6060 -0.2161
   43DOPE   HN1 5420   1.277   4.357  12.032 -3.1904 -0.1182  1.4398
   43DOPE   HN2 5421   1.156   4.480  12.015  0.0967  0.9973 -1.3984
   43DOPE   HN3 5422   1.313   4.492  11.949  2.3952 -1.0375  0.7473
   43DOPE   C12 5423   1.305   4.524  12.154  0.3084 -0.8077 -0.2461
   43DOPE  H12A 5424   1.220   4.517  12.225  0.4543 -1.9072 -0.1690
   43DOPE  H12B 5425   1.313   4.633  12.135 -0.6036 -0.7458 -0.3121
   43DOPE   C11 5426   1.433   4.466  12.211  0.3927 -0.5985  0.2767
   43DOPE  H11A 5427   1.473   4.531  12.292 -2.1413  0.5965  0.6808
   43DOPE  H11B 5428   1.508   4.481  12.131  0.8939 -0.1863  0.8144
   43DOPE     P 5429   1.535   4.219  12.240  0.5041  0.2846 -0.0605
   43DOPE   O13 5430   1.662   4.263  12.178 -0.3785 -0.2919  0.7791
   43DOPE   O14 5431   1.469   4.093  12.189  0.2208  0.4205  0.2420
   43DOPE   O11 5432   1.560   4.204  12.395 -0.2947 -0.2301  0.3478
   43DOPE   O12 5433   1.423   4.330  12.239  0.3943  0.0537 -0.4142
   43DOPE    C1 5434   1.610   4.315  12.470 -0.0635  0.0984 -0.1734
   43DOPE    HA 5435   1.542   4.403  12.470 -1.3031 -0.8118  1.0844
   43DOPE    HB 5436   1.707   4.344  12.425 -0.8357  0.3673 -1.7547
   43DOPE    C2 5437   1.625   4.273  12.619  1.0995 -0.1949  0.3398
   43DOPE    HS 5438   1.641   4.165  12.635 -1.8165 -0.9571 -1.1210
   43DOPE   O21 5439   1.499   4.303  12.684  0.1364 -0.3249 -0.2710
   43DOPE   C21 5440   1.405   4.218  12.668 -0.7411  0.0780 -0.0281
   43DOPE   O22 5441   1.404   4.131  12.586  0.0629 -0.0816 -0.5289
   43DOPE   C22 5442   1.286   4.234  12.764 -1.0108  0.0634 -0.8672
   43DOPE   H2R 5443   1.254   4.339  12.745 -0.3767  0.4717  0.2413
   43DOPE   H2S 5444   1.325   4.231  12.868  1.0625  2.0517 -1.5212
   43DOPE    C3 5445   1.739   4.344  12.686  0.1669  0.2425 -0.0081
   43DOPE    HX 5446   1.716   4.452  12.700 -0.6971 -0.0630  1.0218
   43DOPE    HY 5447   1.831   4.349  12.623  0.9127 -0.9648  0.9320
   43DOPE   O31 5448   1.766   4.289  12.816 -0.0073 -0.3677  0.2461
   43DOPE   C31 5449   1.872   4.218  12.838 -0.9355 -0.7818 -0.4159
   43DOPE   O32 5450   1.946   4.178  12.752  0.2060 -0.3179  0.2739
   43DOPE   C32 5451   1.885   4.175  12.983  0.2702  0.3208  0.1746
   43DOPE   H2X 5452   1.902   4.066  12.993  1.2998  0.5430  1.1599
   43DOPE   H2Y 5453   1.981   4.218  13.019  0.9667 -0.8853 -0.1689
   43DOPE   C23 5454   1.171   4.144  12.751  0.1688  0.2282 -0.2686
   43DOPE   H3R 5455   1.206   4.040  12.738  1.4128  0.7574 -1.5379
   43DOPE   H3S 5456   1.125   4.179  12.656 -0.9480 -2.6017 -0.8468
   43DOPE   C24 5457   1.077   4.155  12.868  1.1316  0.3194 -0.3154
   43DOPE   H4R 5458   1.118   4.216  12.952 -1.5689  0.1065  1.2727
   43DOPE   H4S 5459   1.060   4.062  12.926  0.4672  2.1368  2.5894
   43DOPE   C25 5460   0.934   4.211  12.838 -0.4241 -0.3710 -0.1692
   43DOPE   H5R 5461   0.887   4.151  12.757  1.5353 -0.5545 -1.2336
   43DOPE   H5S 5462   0.953   4.317  12.814  1.3006 -0.1928  1.6891
   43DOPE   C26 5463   0.836   4.206  12.956 -0.1643  0.0048  0.7106
   43DOPE   H6R 5464   0.746   4.266  12.931 -0.5264 -1.7934 -3.1654
   43DOPE   H6S 5465   0.881   4.240  13.052  2.1476 -1.6602  0.3111
   43DOPE   C27 5466   0.785   4.066  12.972 -0.0260  0.0931  0.9171
   43DOPE   H7R 5467   0.866   3.990  12.967  1.1093  1.3208 -2.6715
   43DOPE   H7S 5468   0.716   4.036  12.890  0.8530 -0.5421  0.3919
   43DOPE   C28 5469   0.726   4.047  13.110  0.0654  0.5480  0.3404
   43DOPE   H8R 5470   0.662   4.135  13.129  0.9879  1.5977 -1.2008
   43DOPE   H8S 5471   0.798   4.076  13.190  0.8822 -1.9693  0.6178
   43DOPE   C29 5472   0.679   3.907  13.130  0.0774 -0.1763  0.8363
   43DOPE   H9R 5473   0.759   3.831  13.128  1.9749  1.7501 -0.0938
   43DOPE  C210 5474   0.550   3.871  13.124  0.2164 -0.4835  0.1358
   43DOPE  H10R 5475   0.526   3.763  13.128 -1.0367 -0.1861  1.2568
   43DOPE  C211 5476   0.430   3.962  13.092 -0.2664 -0.3387 -0.4036
   43DOPE  H11R 5477   0.418   3.961  12.981  0.6468 -1.5406 -0.5124
   43DOPE  H11S 5478   0.442   4.068  13.123  1.6232 -0.5634 -0.2344
   43DOPE  C212 5479   0.309   3.899  13.158 -0.2859 -0.1416  0.2990
   43DOPE  H12R 5480   0.337   3.885  13.265 -2.3237 -0.2914  0.8507
   43DOPE  H12S 5481   0.303   3.798  13.111  1.9478  0.1428 -0.7053
   43DOPE  C213 5482   0.174   3.978  13.149  0.3408  0.5976  0.3302
   43DOPE  H13R 5483   0.134   3.969  13.045  0.5704  2.3509  0.0712
   43DOPE  H13S 5484   0.195   4.085  13.169  0.7063  1.2429 -2.9494
   43DOPE  C214 5485   0.063   3.938  13.241  0.9943 -0.6721  0.2256
   43DOPE  H14R 5486   0.089   3.957  13.348 -1.1559  0.2592  0.6323
   43DOPE  H14S 5487   0.046   3.830  13.221  2.8756 -0.8728 -0.4979
   43DOPE  C215 5488  -0.070   4.009  13.220  0.4197  0.0047  0.2443
   43DOPE  H15R 5489  -0.090   4.012  13.111  2.2978  1.6882 -0.1020
   43DOPE  H15S 5490  -0.059   4.115  13.249  0.9290 -0.2773  1.1221
   43DOPE  C216 5491  -0.191   3.949  13.294 -0.3413 -0.4040  1.0175
   43DOPE  H16R 5492  -0.179   3.940  13.405 -2.4206 -1.7925  1.1764
   43DOPE  H16S 5493  -0.217   3.846  13.260 -0.4048 -0.5875  1.6077
   43DOPE  C217 5494  -0.299   4.060  13.290  0.7048  0.6812 -0.1097
   43DOPE  H17R 5495  -0.296   4.108  13.190 -0.5793  1.6952  0.3141
   43DOPE  H17S 5496  -0.280   4.140  13.364  0.7447  1.9948 -1.4894
   43DOPE  C218 5497  -0.437   4.000  13.323 -0.1456 -0.1650  0.0017
   43DOPE  H18R 5498  -0.511   4.083  13.324 -0.4010 -0.3837  1.2442
   43DOPE  H18S 5499  -0.444   3.952  13.423 -1.4099 -0.9085 -0.4301
   43DOPE  H18T 5500  -0.468   3.935  13.239 -1.1184  0.9223 -0.5088
   43DOPE   C33 5501   1.761   4.196  13.072  0.0150 -0.2038 -0.3242
   43DOPE   H3X 5502   1.669   4.152  13.027  1.7226 -2.7143 -1.6028
   43DOPE   H3Y 5503   1.739   4.305  13.076  0.5839 -0.1230  1.2919
   43DOPE   C34 5504   1.781   4.153  13.215 -0.3944 -0.0451 -0.9988
   43DOPE   H4X 5505   1.787   4.043  13.228  2.3571  0.2485  1.1126
   43DOPE   H4Y 5506   1.883   4.186  13.244 -0.5440  0.9937 -1.6053
   43DOPE   C35 5507   1.690   4.219  13.315 -0.2328  0.0712 -0.1092
   43DOPE   H5X 5508   1.595   4.161  13.312 -0.5797  0.4544  1.8961
   43DOPE   H5Y 5509   1.652   4.316  13.278 -0.9223 -0.2901 -0.3683
   43DOPE   C36 5510   1.747   4.219  13.460  0.8059  0.0434  0.5019
   43DOPE   H6X 5511   1.850   4.258  13.444  1.2368 -1.1972  0.1716
   43DOPE   H6Y 5512   1.762   4.115  13.495  3.3582 -0.0848 -0.7145
   43DOPE   C37 5513   1.655   4.305  13.552 -0.4571  0.4572  0.0417
   43DOPE   H7X 5514   1.660   4.409  13.516 -1.7328  0.2545 -0.7665
   43DOPE   H7Y 5515   1.550   4.269  13.539 -0.9101  1.1143  1.6006
   43DOPE   C38 5516   1.684   4.292  13.700 -0.4582  0.0580  0.9816
   43DOPE   H8X 5517   1.666   4.187  13.730  1.1852 -0.0361  1.7141
   43DOPE   H8Y 5518   1.615   4.362  13.753 -1.9916 -1.6874  1.3918
   43DOPE   C39 5519   1.836   4.320  13.731  0.7597  0.9998  0.4795
   43DOPE   H9X 5520   1.901   4.237  13.697 -0.9090 -0.1590 -0.0686
   43DOPE  C310 5521   1.887   4.428  13.788  0.2059  0.7465 -0.7057
   43DOPE  H10X 5522   1.994   4.444  13.810  0.6937 -0.0962 -2.3564
   43DOPE  C311 5523   1.807   4.551  13.832  0.2496  0.1389  1.4682
   43DOPE  H11X 5524   1.852   4.648  13.801 -0.9777  0.0100 -0.9404
   43DOPE  H11Y 5525   1.709   4.547  13.779  0.7125  0.2284  0.5920
   43DOPE  C312 5526   1.772   4.554  13.979  0.7369  0.3075  0.0402
   43DOPE  H12X 5527   1.866   4.548  14.038  0.9736  0.7253 -0.2992
   43DOPE  H12Y 5528   1.724   4.457  14.008 -0.4649  0.4735 -1.2860
   43DOPE  C313 5529   1.679   4.666  14.025  0.2164  0.5288  0.6529
   43DOPE  H13X 5530   1.720   4.758  13.977  1.2211  0.4157  1.2724
   43DOPE  H13Y 5531   1.581   4.643  13.976  0.4253 -1.6496  1.1496
   43DOPE  C314 5532   1.656   4.674  14.177  0.5755  0.5826 -0.1270
   43DOPE  H14X 5533   1.754   4.695  14.225  0.2915  0.2545  0.6058
   43DOPE  H14Y 5534   1.623   4.573  14.209  0.3646  0.4171 -0.8449
   43DOPE  C315 5535   1.552   4.784  14.212  0.9001 -0.5247  0.7414
   43DOPE  H15X 5536   1.464   4.757  14.151  1.4254  0.6947 -0.5930
   43DOPE  H15Y 5537   1.586   4.885  14.181 -1.8539 -0.0270 -0.9657
   43DOPE  C316 5538   1.502   4.793  14.357  0.3715  0.6381  0.5086
   43DOPE  H16X 5539   1.436   4.707  14.382  0.1121  0.7684  0.2754
   43DOPE  H16Y 5540   1.431   4.879  14.347 -0.0387  0.2166 -0.3341
   43DOPE  C317 5541   1.625   4.822  14.442  0.0320  0.1940  0.2666
   43DOPE  H17X 5542   1.703   4.885  14.393 -1.9692  1.0035 -2.0762
   43DOPE  H17Y 5543   1.587   4.890  14.521  0.1464  0.1527  0.3565
   43DOPE  C318 5544   1.675   4.694  14.517 -0.1246 -0.2090 -0.4531
   43DOPE  H18X 5545   1.595   4.656  14.584  0.4713  1.0622  1.0412
   43DOPE  H18Y 5546   1.693   4.607  14.449 -0.2877  1.6710 -3.0314
   43DOPE  H18Z 5547   1.767   4.709  14.578 -0.7957 -1.6199  0.9809
   44DOPE     N 5548   3.789   1.842  12.624  0.4756  0.7592  0.5665
   44DOPE   HN1 5549   3.737   1.838  12.714  1.9481  0.1333  1.4318
   44DOPE   HN2 5550   3.887   1.814  12.646  1.6205  2.4784 -1.8692
   44DOPE   HN3 5551   3.791   1.943  12.602 -0.0199  0.7344  0.4056
   44DOPE   C12 5552   3.744   1.766  12.508  0.3163  0.1453 -1.1883
   44DOPE  H12A 5553   3.633   1.762  12.516 -0.0687  2.4645 -3.9617
   44DOPE  H12B 5554   3.777   1.661  12.525  1.5131  0.4886 -1.2934
   44DOPE   C11 5555   3.799   1.805  12.372  0.1900  0.1425  0.1467
   44DOPE  H11A 5556   3.756   1.903  12.344 -1.0222 -0.3745  0.1276
   44DOPE  H11B 5557   3.762   1.721  12.309  0.5715  0.9890 -1.2473
   44DOPE     P 5558   4.010   1.846  12.237 -0.4429  0.1061  0.3561
   44DOPE   O13 5559   3.949   1.780  12.120 -0.1213  0.3097  0.1963
   44DOPE   O14 5560   4.156   1.823  12.269  0.4728 -0.0260 -0.3715
   44DOPE   O11 5561   3.987   2.001  12.230 -0.0002 -0.2948  0.2165
   44DOPE   O12 5562   3.940   1.799  12.366  0.1901 -0.1991 -0.1339
   44DOPE    C1 5563   4.008   2.098  12.336  0.3742 -0.4193 -0.4240
   44DOPE    HA 5564   4.011   2.049  12.436 -2.1959 -1.1682 -0.6257
   44DOPE    HB 5565   3.923   2.169  12.344 -0.9529 -1.8636 -1.1450
   44DOPE    C2 5566   4.141   2.180  12.322  0.3798  0.0437  0.4724
   44DOPE    HS 5567   4.209   2.096  12.296 -1.6211 -1.4099 -0.3199
   44DOPE   O21 5568   4.182   2.242  12.443 -0.6630 -0.1322 -0.3105
   44DOPE   C21 5569   4.315   2.263  12.451  0.7048  0.1399 -0.2423
   44DOPE   O22 5570   4.400   2.229  12.371  0.1603 -0.1078 -0.2130
   44DOPE   C22 5571   4.342   2.334  12.581 -0.5920 -0.4505  0.5736
   44DOPE   H2R 5572   4.303   2.438  12.586  0.5638  0.0340 -0.1563
   44DOPE   H2S 5573   4.453   2.335  12.586 -0.5451  1.3256  0.0006
   44DOPE    C3 5574   4.129   2.273  12.196 -0.6126 -0.2060 -0.5665
   44DOPE    HX 5575   4.109   2.214  12.104  1.1916 -0.2864 -0.9549
   44DOPE    HY 5576   4.233   2.309  12.176 -0.5401 -1.1794 -2.1482
   44DOPE   O31 5577   4.025   2.370  12.219 -0.0398 -0.7705 -0.7723
   44DOPE   C31 5578   4.071   2.485  12.277  0.0748 -1.0891  0.2777
   44DOPE   O32 5579   4.190   2.509  12.298  0.2820  0.1322 -0.4895
   44DOPE   C32 5580   3.958   2.584  12.294 -0.7246  0.5727  0.1533
   44DOPE   H2X 5581   3.920   2.618  12.195 -0.3847  0.3365 -0.0622
   44DOPE   H2Y 5582   3.878   2.518  12.332  0.5095 -0.2984  1.3530
   44DOPE   C23 5583   4.289   2.253  12.699  0.4257  0.6221  0.0884
   44DOPE   H3R 5584   4.352   2.161  12.708 -1.1373 -0.4215  0.8790
   44DOPE   H3S 5585   4.185   2.222  12.679  0.1977  2.3544 -1.6246
   44DOPE   C24 5586   4.278   2.331  12.836  0.8878  0.7349 -0.4214
   44DOPE   H4R 5587   4.229   2.430  12.822 -0.3630  0.1105 -0.4951
   44DOPE   H4S 5588   4.381   2.354  12.871  1.1693 -0.4953 -0.3922
   44DOPE   C25 5589   4.213   2.266  12.964 -0.3329 -0.0795  0.3826
   44DOPE   H5R 5590   4.262   2.172  12.998  1.5551  0.9273  0.5384
   44DOPE   H5S 5591   4.108   2.248  12.931 -0.4239 -0.8646  1.0670
   44DOPE   C26 5592   4.226   2.357  13.080 -0.2216 -0.3604 -0.1165
   44DOPE   H6R 5593   4.177   2.455  13.060  0.5894  0.2282  0.6974
   44DOPE   H6S 5594   4.334   2.373  13.099 -0.7830  2.7709  1.2004
   44DOPE   C27 5595   4.164   2.300  13.205 -1.0101  0.1158 -0.0955
   44DOPE   H7R 5596   4.215   2.203  13.224  0.1660  1.0201  1.6856
   44DOPE   H7S 5597   4.059   2.269  13.187 -1.0535 -0.3313  0.8705
   44DOPE   C28 5598   4.184   2.396  13.323 -0.4378 -0.1521  0.7928
   44DOPE   H8R 5599   4.148   2.498  13.298  2.8044  0.2865 -3.0087
   44DOPE   H8S 5600   4.293   2.412  13.329 -0.3319  0.5361 -1.8226
   44DOPE   C29 5601   4.101   2.346  13.438 -0.9852 -0.3826 -0.3758
   44DOPE   H9R 5602   4.017   2.283  13.406 -1.8253  0.0387  0.9592
   44DOPE  C210 5603   4.143   2.365  13.569 -0.0658 -0.3841 -0.0775
   44DOPE  H10R 5604   4.075   2.356  13.655 -1.0429 -0.5287 -0.8605
   44DOPE  C211 5605   4.266   2.431  13.614  0.5128  0.3576  0.3709
   44DOPE  H11R 5606   4.243   2.520  13.677  1.2238  1.7692 -1.2763
   44DOPE  H11S 5607   4.326   2.463  13.527 -0.5708 -0.3728 -0.6857
   44DOPE  C212 5608   4.343   2.341  13.718 -0.4191  0.2327 -0.2743
   44DOPE  H12R 5609   4.370   2.251  13.658 -0.3790 -1.3104  1.9569
   44DOPE  H12S 5610   4.270   2.303  13.793  0.9303 -2.1136 -0.0314
   44DOPE  C213 5611   4.468   2.400  13.778 -0.9127 -0.5557 -0.2254
   44DOPE  H13R 5612   4.451   2.491  13.839 -0.7381  0.0131 -1.0090
   44DOPE  H13S 5613   4.541   2.429  13.700  1.0525 -1.3712  1.2418
   44DOPE  C214 5614   4.527   2.306  13.888  0.5021  0.7885  0.4458
   44DOPE  H14R 5615   4.474   2.322  13.984 -0.6099  1.0642 -0.1935
   44DOPE  H14S 5616   4.632   2.339  13.905  0.9485  0.1493 -0.9523
   44DOPE  C215 5617   4.521   2.151  13.855  0.8338 -0.2304  0.7580
   44DOPE  H15R 5618   4.595   2.150  13.772 -1.3186 -0.8672 -1.2548
   44DOPE  H15S 5619   4.423   2.117  13.816  0.5664  2.4146 -1.2043
   44DOPE  C216 5620   4.564   2.065  13.972  0.2357  0.1538  0.8643
   44DOPE  H16R 5621   4.564   1.963  13.927 -0.2342  0.6576 -0.3219
   44DOPE  H16S 5622   4.486   2.069  14.051 -0.1656  0.1751  0.4677
   44DOPE  C217 5623   4.704   2.091  14.025 -0.5065  0.0091 -1.0925
   44DOPE  H17R 5624   4.719   2.188  14.077 -1.2532 -0.5439  0.2189
   44DOPE  H17S 5625   4.777   2.098  13.941 -0.1703  0.3647 -0.7733
   44DOPE  C218 5626   4.746   1.980  14.123  0.2170  0.0241  0.2249
   44DOPE  H18R 5627   4.737   1.876  14.085  0.7095 -0.1706  0.6296
   44DOPE  H18S 5628   4.674   1.988  14.207 -0.0239 -0.7828  0.1064
   44DOPE  H18T 5629   4.843   1.994  14.173 -0.1993 -0.6394  1.2428
   44DOPE   C33 5630   3.997   2.702  12.384  0.7005  0.3200 -0.2811
   44DOPE   H3X 5631   3.924   2.782  12.362 -2.0017 -2.0565 -0.6283
   44DOPE   H3Y 5632   4.099   2.742  12.370  0.7436  0.4985  0.4841
   44DOPE   C34 5633   3.975   2.648  12.523 -0.1875  0.0145 -0.1144
   44DOPE   H4X 5634   3.872   2.606  12.528  0.2881 -1.1102  0.4876
   44DOPE   H4Y 5635   4.050   2.569  12.543 -1.5664 -1.1469  0.6886
   44DOPE   C35 5636   3.999   2.749  12.632  0.4363 -0.0901  0.0175
   44DOPE   H5X 5637   3.921   2.825  12.612  0.9497  0.8180  1.3336
   44DOPE   H5Y 5638   4.098   2.795  12.611  0.2256  0.6872  0.6825
   44DOPE   C36 5639   3.990   2.706  12.778  0.7195 -0.5270  0.4514
   44DOPE   H6X 5640   4.066   2.627  12.798  0.3891 -1.7686 -2.5760
   44DOPE   H6Y 5641   3.906   2.633  12.785  1.3155 -1.1292  1.8204
   44DOPE   C37 5642   3.991   2.815  12.881  0.0164 -0.5598  0.0575
   44DOPE   H7X 5643   4.093   2.857  12.894 -0.4270  0.1815  1.2360
   44DOPE   H7Y 5644   3.928   2.901  12.849  1.6311  1.0828  1.1476
   44DOPE   C38 5645   3.951   2.765  13.025  0.3989 -0.1903 -0.7845
   44DOPE   H8X 5646   4.001   2.836  13.095 -1.2015  0.2894 -0.0756
   44DOPE   H8Y 5647   4.006   2.669  13.033  1.4057  0.4545  0.2974
   44DOPE   C39 5648   3.803   2.739  13.057 -0.0656 -0.7878  0.0296
   44DOPE   H9X 5649   3.740   2.757  12.968  0.2086  0.8171  0.1361
   44DOPE  C310 5650   3.749   2.703  13.173 -0.1552 -0.2803 -0.0071
   44DOPE  H10X 5651   3.640   2.705  13.183 -0.2039  2.1807 -0.3110
   44DOPE  C311 5652   3.829   2.662  13.302 -0.0216  0.6045 -0.5501
   44DOPE  H11X 5653   3.768   2.582  13.348  0.2525 -1.1849 -3.0600
   44DOPE  H11Y 5654   3.929   2.621  13.276 -0.5132 -0.0063 -1.5416
   44DOPE  C312 5655   3.841   2.774  13.409  0.0228 -0.5395  0.8267
   44DOPE  H12X 5656   3.882   2.866  13.362 -0.8853  0.4020  1.8119
   44DOPE  H12Y 5657   3.912   2.747  13.491  0.0573 -0.5175  0.8044
   44DOPE  C313 5658   3.705   2.805  13.467 -0.2522  0.5122 -0.3623
   44DOPE  H13X 5659   3.653   2.863  13.387 -0.8727  1.4830  0.7214
   44DOPE  H13Y 5660   3.647   2.711  13.478 -1.3598  1.3814  1.8119
   44DOPE  C314 5661   3.708   2.885  13.595  0.7154 -0.4260  0.3081
   44DOPE  H14X 5662   3.731   2.989  13.565 -0.0966 -1.0618 -3.0039
   44DOPE  H14Y 5663   3.785   2.834  13.656 -1.1640 -1.6147  1.8122
   44DOPE  C315 5664   3.583   2.881  13.683  0.3452 -0.2626 -0.0293
   44DOPE  H15X 5665   3.577   2.779  13.727 -1.6767 -0.0362  0.3132
   44DOPE  H15Y 5666   3.487   2.898  13.630  0.1803  0.5889  0.5334
   44DOPE  C316 5667   3.596   2.989  13.782 -0.3398 -0.2169  1.0705
   44DOPE  H16X 5668   3.593   3.088  13.732 -0.5705 -0.2069  1.1040
   44DOPE  H16Y 5669   3.692   2.991  13.838  0.7612  4.2359 -0.5670
   44DOPE  C317 5670   3.494   2.998  13.894  0.2076 -0.2105 -0.7968
   44DOPE  H17X 5671   3.396   3.013  13.844  0.3437  5.2708 -0.0168
   44DOPE  H17Y 5672   3.504   2.905  13.953  0.8419  0.7094  0.5940
   44DOPE  C318 5673   3.517   3.106  14.004 -0.5402  0.1453  0.8773
   44DOPE  H18X 5674   3.622   3.105  14.039  1.2765  0.4853 -3.7858
   44DOPE  H18Y 5675   3.512   3.206  13.955  1.5894  0.3644  1.0137
   44DOPE  H18Z 5676   3.438   3.093  14.081 -2.5200  1.0842 -0.8698
   45DOPE     N 5677   5.296   1.005  12.406 -0.0989 -0.5750  0.3897
   45DOPE   HN1 5678   5.279   1.101  12.370 -0.1888 -0.0141  1.8564
   45DOPE   HN2 5679   5.387   1.015  12.456  0.0510  0.7500 -0.1307
   45DOPE   HN3 5680   5.310   0.941  12.325  0.4003  0.5540 -0.4386
   45DOPE   C12 5681   5.183   0.976  12.509 -0.0404  0.1857  0.1123
   45DOPE  H12A 5682   5.205   0.882  12.563  2.3602  0.6899  0.0971
   45DOPE  H12B 5683   5.086   0.973  12.455  0.9567  1.6906 -1.9173
   45DOPE   C11 5684   5.182   1.107  12.592 -0.2178  0.4240  0.3143
   45DOPE  H11A 5685   5.264   1.109  12.667  0.6604 -0.0748 -0.6061
   45DOPE  H11B 5686   5.089   1.098  12.653 -1.3887 -2.2263 -1.6651
   45DOPE     P 5687   5.064   1.327  12.503  0.0672  0.0785  0.6343
   45DOPE   O13 5688   4.940   1.241  12.517 -0.5553  0.2753 -0.7713
   45DOPE   O14 5689   5.089   1.400  12.378  1.0741  0.2865 -0.4427
   45DOPE   O11 5690   5.079   1.420  12.633 -0.0900 -0.0923  0.2427
   45DOPE   O12 5691   5.181   1.222  12.510 -0.4713  0.7911 -0.0330
   45DOPE    C1 5692   5.200   1.471  12.689 -0.5299 -0.0144 -0.2557
   45DOPE    HA 5693   5.187   1.581  12.703  0.2055  0.4783 -2.8100
   45DOPE    HB 5694   5.290   1.464  12.624  0.2493 -0.2324  0.8196
   45DOPE    C2 5695   5.236   1.403  12.825 -0.4922  0.0123  0.6097
   45DOPE    HS 5696   5.275   1.307  12.785  1.2528  1.0799 -0.3870
   45DOPE   O21 5697   5.119   1.395  12.911  0.1002  0.1541  0.2670
   45DOPE   C21 5698   5.062   1.271  12.921 -0.3310  0.0049 -0.0804
   45DOPE   O22 5699   5.113   1.162  12.898  0.4355 -0.4475  0.4355
   45DOPE   C22 5700   4.927   1.288  12.990 -0.4279 -0.0485  0.0528
   45DOPE   H2R 5701   4.871   1.368  12.937 -2.4359 -1.4799 -0.0695
   45DOPE   H2S 5702   4.948   1.317  13.095 -0.4993 -0.4877  0.1884
   45DOPE    C3 5703   5.360   1.468  12.896  0.0661  0.3109 -0.1860
   45DOPE    HX 5704   5.341   1.577  12.913 -0.0195  0.8728 -3.2579
   45DOPE    HY 5705   5.452   1.480  12.834 -0.5196  1.4741 -0.8771
   45DOPE   O31 5706   5.385   1.412  13.024  0.5497 -0.1899 -0.2133
   45DOPE   C31 5707   5.440   1.295  13.025  0.1323  0.3611 -0.3888
   45DOPE   O32 5708   5.479   1.236  12.926 -0.0505 -0.3524  0.0752
   45DOPE   C32 5709   5.441   1.233  13.165  0.1764 -0.8884 -0.1332
   45DOPE   H2X 5710   5.540   1.186  13.183 -0.0627 -2.2709 -2.0891
   45DOPE   H2Y 5711   5.410   1.308  13.240  0.8350  1.9731 -2.5479
   45DOPE   C23 5712   4.855   1.160  12.981 -0.3526  0.4395  0.0986
   45DOPE   H3R 5713   4.902   1.077  13.038 -2.0102 -1.1726 -0.7403
   45DOPE   H3S 5714   4.852   1.114  12.880 -4.2709  0.6306 -0.0258
   45DOPE   C24 5715   4.714   1.169  13.029 -0.2114  0.0775  0.4882
   45DOPE   H4R 5716   4.660   1.077  12.999 -0.8356  0.2734  0.9729
   45DOPE   H4S 5717   4.648   1.248  12.986 -1.6551 -1.1929  0.2850
   45DOPE   C25 5718   4.700   1.152  13.185  0.1111 -0.0959 -0.2677
   45DOPE   H5R 5719   4.730   1.252  13.224  1.5799  0.5858 -2.9135
   45DOPE   H5S 5720   4.770   1.073  13.220 -0.3392  0.1408  1.2481
   45DOPE   C26 5721   4.559   1.140  13.234 -0.1689 -0.7161  0.0542
   45DOPE   H6R 5722   4.548   1.156  13.344  0.8318 -1.8958  0.3409
   45DOPE   H6S 5723   4.527   1.035  13.216  1.2255 -1.2175  0.4216
   45DOPE   C27 5724   4.459   1.239  13.166  0.4194  0.3083  0.3803
   45DOPE   H7R 5725   4.446   1.206  13.061  1.3998  0.5301  0.1742
   45DOPE   H7S 5726   4.497   1.343  13.160  0.7168  0.3489  2.3374
   45DOPE   C28 5727   4.331   1.243  13.245  0.2014  0.0306 -0.1711
   45DOPE   H8R 5728   4.358   1.281  13.347 -1.0903  1.1388 -0.2052
   45DOPE   H8S 5729   4.276   1.147  13.251 -0.5875  0.2231 -2.9724
   45DOPE   C29 5730   4.239   1.337  13.177 -0.3413 -0.8024  0.3633
   45DOPE   H9R 5731   4.252   1.337  13.067  0.8801 -1.3960  0.4881
   45DOPE  C210 5732   4.149   1.418  13.229  0.3485 -0.1254 -0.4127
   45DOPE  H10R 5733   4.104   1.483  13.152 -0.0112 -1.5898 -1.5067
   45DOPE  C211 5734   4.105   1.438  13.368 -0.0744  0.1328  0.0559
   45DOPE  H11R 5735   4.010   1.495  13.369 -0.2980 -0.2272  1.3666
   45DOPE  H11S 5736   4.183   1.493  13.426 -1.1959  1.7404  0.0940
   45DOPE  C212 5737   4.077   1.304  13.444  0.3932 -0.7755 -0.0090
   45DOPE  H12R 5738   4.173   1.255  13.473  1.1841  1.5058  1.4876
   45DOPE  H12S 5739   4.019   1.231  13.383 -3.1299 -0.0275  2.1730
   45DOPE  C213 5740   3.987   1.306  13.572  0.5067 -0.2217  0.5342
   45DOPE  H13R 5741   3.999   1.198  13.592  0.9329 -0.7233 -2.0307
   45DOPE  H13S 5742   3.882   1.336  13.552  0.6556 -1.1650 -2.1074
   45DOPE  C214 5743   4.069   1.371  13.685 -0.0075  0.1612 -0.4875
   45DOPE  H14R 5744   4.099   1.473  13.655  0.0040  0.6643  1.1404
   45DOPE  H14S 5745   4.153   1.299  13.698 -1.3663 -1.1754  1.5187
   45DOPE  C215 5746   4.000   1.374  13.823  0.4025 -0.1441  0.6279
   45DOPE  H15R 5747   3.909   1.436  13.811  0.7480  0.1958 -0.3339
   45DOPE  H15S 5748   4.063   1.420  13.902  2.4694 -2.3970  0.4193
   45DOPE  C216 5749   3.957   1.233  13.873 -0.4180  0.4875  0.2446
   45DOPE  H16R 5750   4.043   1.164  13.869 -0.5555  0.3578 -1.9787
   45DOPE  H16S 5751   3.884   1.209  13.793 -0.1007  0.3836 -0.0148
   45DOPE  C217 5752   3.892   1.221  14.012 -0.0225  0.2165  0.0335
   45DOPE  H17R 5753   3.805   1.289  14.008 -0.0488  0.1535 -3.5298
   45DOPE  H17S 5754   3.948   1.271  14.094  1.3863 -0.9668 -0.1558
   45DOPE  C218 5755   3.848   1.084  14.059  0.9074 -0.3667  0.2943
   45DOPE  H18R 5756   3.774   1.091  14.141 -0.1999  2.1061 -0.7920
   45DOPE  H18S 5757   3.935   1.028  14.099 -0.1401 -1.5232  1.0220
   45DOPE  H18T 5758   3.804   1.030  13.972 -4.3934  0.8404  1.8931
   45DOPE   C33 5759   5.331   1.114  13.160  0.9133  0.3656 -0.6866
   45DOPE   H3X 5760   5.346   1.065  13.062 -0.2176 -2.4993  0.4520
   45DOPE   H3Y 5761   5.227   1.153  13.162  0.8031  0.2670  3.1778
   45DOPE   C34 5762   5.361   1.013  13.271  0.3999 -0.1173  0.8397
   45DOPE   H4X 5763   5.466   0.980  13.256  0.7171  1.4436 -0.7707
   45DOPE   H4Y 5764   5.351   1.069  13.366  1.7099 -2.2586  2.3293
   45DOPE   C35 5765   5.273   0.885  13.280  0.9857  0.8693  0.4751
   45DOPE   H5X 5766   5.309   0.810  13.354 -0.9356  0.3202  0.9138
   45DOPE   H5Y 5767   5.276   0.835  13.180  0.0421  0.5569  0.5897
   45DOPE   C36 5768   5.129   0.919  13.321  0.0482 -0.3587 -0.1510
   45DOPE   H6X 5769   5.096   0.987  13.240  0.6842 -1.2431 -1.1873
   45DOPE   H6Y 5770   5.147   0.985  13.408  3.2881 -0.2502 -0.7470
   45DOPE   C37 5771   5.044   0.790  13.345  0.4884  0.4129 -0.2500
   45DOPE   H7X 5772   5.038   0.724  13.255  0.2234  0.2095 -0.0831
   45DOPE   H7Y 5773   5.097   0.733  13.424 -1.7500  2.0781  2.6269
   45DOPE   C38 5774   4.909   0.822  13.408  0.4602 -0.2480  0.1613
   45DOPE   H8X 5775   4.852   0.728  13.425 -1.3828  1.1145  2.1043
   45DOPE   H8Y 5776   4.844   0.859  13.325  0.4760  0.3444  0.4048
   45DOPE   C39 5777   4.883   0.925  13.513 -0.1850 -0.3348  0.5229
   45DOPE   H9X 5778   4.897   1.032  13.491 -1.2697 -0.3786 -0.4498
   45DOPE  C310 5779   4.852   0.884  13.637  0.5102 -0.3408 -0.1188
   45DOPE  H10X 5780   4.833   0.965  13.708 -2.4341 -1.0939  0.0671
   45DOPE  C311 5781   4.839   0.736  13.674 -0.3589  0.1040  0.0481
   45DOPE  H11X 5782   4.756   0.688  13.618 -0.2325  0.0802 -0.1201
   45DOPE  H11Y 5783   4.932   0.683  13.644  0.0678  0.5660  0.5179
   45DOPE  C312 5784   4.826   0.719  13.829 -0.1007  0.4063 -0.9105
   45DOPE  H12X 5785   4.808   0.616  13.866  2.5003  1.3203  3.7148
   45DOPE  H12Y 5786   4.737   0.779  13.860 -0.9299 -1.2413  0.0526
   45DOPE  C313 5787   4.954   0.767  13.899 -0.3858  0.5725 -0.2063
   45DOPE  H13X 5788   5.047   0.736  13.848 -1.0640  0.3633 -1.3505
   45DOPE  H13Y 5789   4.958   0.878  13.892  1.3645  0.7096  1.9044
   45DOPE  C314 5790   4.964   0.723  14.042  0.1791  0.2041 -0.7052
   45DOPE  H14X 5791   5.068   0.735  14.079 -0.0606  1.2115 -0.3373
   45DOPE  H14Y 5792   4.939   0.615  14.035  0.7704  0.1265 -1.9190
   45DOPE  C315 5793   4.865   0.801  14.128  0.7230 -0.7998  0.4486
   45DOPE  H15X 5794   4.884   0.777  14.235  0.9372  0.2633  0.6660
   45DOPE  H15Y 5795   4.761   0.765  14.112  0.3439  0.4396  0.0186
   45DOPE  C316 5796   4.863   0.957  14.115 -1.0297  0.2261  0.6478
   45DOPE  H16X 5797   4.848   0.986  14.009 -0.6796  1.4356  0.9129
   45DOPE  H16Y 5798   4.967   0.991  14.138  0.3122 -1.9547 -1.7625
   45DOPE  C317 5799   4.757   1.033  14.197 -0.0697  0.6741 -0.3638
   45DOPE  H17X 5800   4.662   0.991  14.159  0.2971 -0.9579  0.4636
   45DOPE  H17Y 5801   4.755   0.997  14.302 -0.1217 -2.2116 -1.2785
   45DOPE  C318 5802   4.757   1.183  14.176 -0.3457  0.0675  0.2079
   45DOPE  H18X 5803   4.662   1.232  14.207  0.4238  1.1247  0.9840
   45DOPE  H18Y 5804   4.844   1.235  14.221 -0.7441  0.8482  0.1095
   45DOPE  H18Z 5805   4.765   1.193  14.066 -0.2464 -0.1556  0.1942
   46DOPE     N 5806   5.250   7.276  12.084  0.7087 -0.1814 -0.0042
   46DOPE   HN1 5807   5.287   7.183  12.115  2.7455  0.9815  1.2665
   46DOPE   HN2 5808   5.212   7.324  12.168  0.3820  1.8434 -1.2556
   46DOPE   HN3 5809   5.169   7.261  12.019 -0.6101  4.3248  0.3228
   46DOPE   C12 5810   5.358   7.348  12.018  0.5158 -0.2739 -0.1624
   46DOPE  H12A 5811   5.312   7.447  11.997 -0.5520 -1.0615 -1.6967
   46DOPE  H12B 5812   5.384   7.306  11.919  0.1540  0.9476 -0.7926
   46DOPE   C11 5813   5.490   7.372  12.107  0.5456 -0.2469 -0.2447
   46DOPE  H11A 5814   5.577   7.408  12.048  1.9763 -2.2988  0.4826
   46DOPE  H11B 5815   5.521   7.274  12.151  0.8478 -1.1399 -2.3402
   46DOPE     P 5816   5.523   7.518  12.328 -0.1217  0.1730 -0.0793
   46DOPE   O13 5817   5.468   7.648  12.367 -0.1463 -0.1501 -0.3438
   46DOPE   O14 5818   5.666   7.504  12.301 -0.1848 -0.1484  0.0815
   46DOPE   O11 5819   5.492   7.417  12.444  0.2683  0.1579  0.0736
   46DOPE   O12 5820   5.441   7.466  12.204  0.4179 -0.3272  0.3025
   46DOPE    C1 5821   5.511   7.453  12.583  0.2516  0.0524 -0.0754
   46DOPE    HA 5822   5.496   7.562  12.591  2.7872  0.7962 -3.3767
   46DOPE    HB 5823   5.613   7.422  12.615 -0.2963 -0.0721  1.6259
   46DOPE    C2 5824   5.415   7.379  12.679 -0.3051  0.3631 -0.2142
   46DOPE    HS 5825   5.426   7.423  12.781 -1.9141  0.8257 -0.2072
   46DOPE   O21 5826   5.451   7.236  12.691 -0.1830 -0.5716 -0.5559
   46DOPE   C21 5827   5.554   7.205  12.754 -0.7319 -0.1388  0.0893
   46DOPE   O22 5828   5.631   7.285  12.809  0.1541  0.0884  0.2339
   46DOPE   C22 5829   5.585   7.055  12.735 -0.4926  0.3338  0.0599
   46DOPE   H2R 5830   5.689   7.041  12.700 -0.9658 -1.4729 -0.7381
   46DOPE   H2S 5831   5.516   7.027  12.652 -0.2710 -1.4934  0.4482
   46DOPE    C3 5832   5.271   7.400  12.628 -0.2199 -0.4596  0.0687
   46DOPE    HX 5833   5.262   7.382  12.519  1.2740 -3.7774  0.3814
   46DOPE    HY 5834   5.242   7.507  12.643 -2.2739 -0.9029 -0.3680
   46DOPE   O31 5835   5.171   7.333  12.704 -0.2161  1.1719 -0.0991
   46DOPE   C31 5836   5.125   7.215  12.661  0.3780  0.1666 -0.2317
   46DOPE   O32 5837   5.143   7.176  12.546  0.2401 -0.3562  0.6111
   46DOPE   C32 5838   5.063   7.140  12.779  0.7715  0.5644 -0.7344
   46DOPE   H2X 5839   5.068   7.197  12.875 -0.1737  0.1071 -0.4075
   46DOPE   H2Y 5840   4.955   7.115  12.770  1.2653 -1.8104 -0.7348
   46DOPE   C23 5841   5.561   6.965  12.859  0.4605  0.3440 -0.5491
   46DOPE   H3R 5842   5.510   6.870  12.833 -4.8777  2.4403  0.8696
   46DOPE   H3S 5843   5.495   7.019  12.931 -0.3500  2.5933 -2.8391
   46DOPE   C24 5844   5.688   6.933  12.940 -0.3814  0.3982 -0.2704
   46DOPE   H4R 5845   5.726   7.025  12.990  0.0115  0.2312 -0.2601
   46DOPE   H4S 5846   5.769   6.901  12.871  0.1724  0.9318  0.1225
   46DOPE   C25 5847   5.656   6.812  13.039  0.3089 -0.0520 -0.3164
   46DOPE   H5R 5848   5.637   6.721  12.978  0.4688  0.5833 -1.3474
   46DOPE   H5S 5849   5.566   6.831  13.101 -0.4274 -0.9700 -1.0640
   46DOPE   C26 5850   5.778   6.791  13.138 -0.5896 -0.3465  0.3835
   46DOPE   H6R 5851   5.786   6.880  13.203  1.3168  0.3211 -0.6833
   46DOPE   H6S 5852   5.876   6.785  13.085  0.2896 -1.4843  2.0591
   46DOPE   C27 5853   5.769   6.663  13.227 -0.3201  0.0564 -0.0445
   46DOPE   H7R 5854   5.711   6.580  13.181  0.3085 -0.8314  0.7298
   46DOPE   H7S 5855   5.720   6.703  13.318  1.4472 -0.1638  1.0557
   46DOPE   C28 5856   5.906   6.607  13.266  0.3931 -0.7817 -0.2788
   46DOPE   H8R 5857   5.954   6.573  13.171  1.3452  0.1784 -0.1599
   46DOPE   H8S 5858   5.900   6.522  13.338  3.3099  1.3363  2.7562
   46DOPE   C29 5859   6.006   6.712  13.319  0.3230  0.2368  0.0637
   46DOPE   H9R 5860   6.096   6.711  13.256  1.3794  2.3006  1.4148
   46DOPE  C210 5861   5.997   6.800  13.421  0.2551  0.5981 -0.7563
   46DOPE  H10R 5862   6.087   6.855  13.451  0.2523 -0.0851  0.5764
   46DOPE  C211 5863   5.893   6.802  13.523 -0.0358  0.4972 -0.9409
   46DOPE  H11R 5864   5.815   6.722  13.520 -0.1114  0.6091 -2.4022
   46DOPE  H11S 5865   5.828   6.890  13.508 -1.1754 -0.6064 -2.8434
   46DOPE  C212 5866   5.936   6.797  13.674 -0.5431 -0.1877  0.4413
   46DOPE  H12R 5867   5.853   6.819  13.744 -0.8772  0.9046 -0.2756
   46DOPE  H12S 5868   6.015   6.872  13.691 -2.1440  1.4148  1.1718
   46DOPE  C213 5869   5.978   6.657  13.715 -0.1563  0.4133  0.3229
   46DOPE  H13R 5870   6.047   6.624  13.635  0.6619 -0.3779  1.3255
   46DOPE  H13S 5871   5.890   6.589  13.717 -1.0742  1.4801 -1.2623
   46DOPE  C214 5872   6.068   6.643  13.847 -0.2852  0.1324  0.1652
   46DOPE  H14R 5873   6.138   6.729  13.849 -0.3706  0.1902  1.2910
   46DOPE  H14S 5874   6.132   6.551  13.846 -1.1888 -0.5094 -1.0698
   46DOPE  C215 5875   5.982   6.659  13.978 -0.6572  0.7374  0.6308
   46DOPE  H15R 5876   5.926   6.563  13.980 -1.7683  1.2322 -2.0746
   46DOPE  H15S 5877   5.900   6.733  13.964  0.9915  2.4071 -0.6471
   46DOPE  C216 5878   6.067   6.681  14.103 -0.4450 -0.0195 -0.2603
   46DOPE  H16R 5879   6.130   6.772  14.101 -0.2959 -0.1182 -2.2452
   46DOPE  H16S 5880   6.138   6.597  14.112  0.5484  0.5125 -2.4072
   46DOPE  C217 5881   5.986   6.692  14.238  0.0261 -0.0660 -0.0026
   46DOPE  H17R 5882   5.915   6.777  14.246  1.4941  1.1029  1.0245
   46DOPE  H17S 5883   6.054   6.703  14.326 -2.4520  1.3112  1.8643
   46DOPE  C218 5884   5.904   6.563  14.257  0.7319  0.2594 -0.0393
   46DOPE  H18R 5885   5.826   6.552  14.179  0.0348  1.8788  0.3931
   46DOPE  H18S 5886   5.856   6.552  14.357  0.7585 -0.4510 -0.0978
   46DOPE  H18T 5887   5.980   6.483  14.243 -1.3154 -1.7532 -0.3309
   46DOPE   C33 5888   5.138   7.006  12.806  0.6006  0.0846  0.4537
   46DOPE   H3X 5889   5.244   7.013  12.836  0.2239 -0.7141  2.0354
   46DOPE   H3Y 5890   5.132   6.943  12.715  0.1171 -1.3555  1.4565
   46DOPE   C34 5891   5.074   6.918  12.911  0.0633 -0.3213 -0.6744
   46DOPE   H4X 5892   4.975   6.882  12.876  0.7421 -1.5277 -1.4074
   46DOPE   H4Y 5893   5.129   6.822  12.925 -0.1335 -0.3221  0.1754
   46DOPE   C35 5894   5.041   6.993  13.038  1.2041  0.0334  0.3906
   46DOPE   H5X 5895   4.981   7.086  13.031  1.5781  0.1855 -1.1063
   46DOPE   H5Y 5896   5.127   7.034  13.094  0.4783 -0.1874  1.7272
   46DOPE   C36 5897   4.986   6.895  13.145 -0.6124 -0.3692 -1.0087
   46DOPE   H6X 5898   5.065   6.819  13.160 -0.5598 -0.0041  0.7064
   46DOPE   H6Y 5899   4.887   6.857  13.110 -0.4870  0.2416 -2.0918
   46DOPE   C37 5900   4.970   6.956  13.288  0.6170  0.4951  0.1480
   46DOPE   H7X 5901   5.070   6.982  13.328 -0.2058 -1.6907  4.1683
   46DOPE   H7Y 5902   4.919   7.055  13.291 -1.3601 -0.4828  1.3028
   46DOPE   C38 5903   4.893   6.860  13.392 -0.2859  0.2302 -0.2819
   46DOPE   H8X 5904   4.794   6.847  13.342  0.3429 -4.0630 -0.8411
   46DOPE   H8Y 5905   4.857   6.915  13.482 -0.2768  0.8149 -0.6340
   46DOPE   C39 5906   4.959   6.722  13.414 -1.0452  0.1378 -0.1909
   46DOPE   H9X 5907   4.976   6.659  13.326 -0.7112  0.0341 -0.0562
   46DOPE  C310 5908   5.004   6.674  13.536 -0.0967 -0.5453 -0.1371
   46DOPE  H10X 5909   5.060   6.579  13.543 -0.7968 -0.9066  1.0326
   46DOPE  C311 5910   4.985   6.731  13.667 -0.2682 -0.0501 -0.7284
   46DOPE  H11X 5911   4.934   6.829  13.660 -1.6263 -0.7595 -1.2867
   46DOPE  H11Y 5912   4.924   6.674  13.740  0.3617 -0.6741 -0.6765
   46DOPE  C312 5913   5.125   6.751  13.730 -0.0894 -0.5666 -0.2176
   46DOPE  H12X 5914   5.177   6.829  13.671 -0.5375 -0.7093 -0.8075
   46DOPE  H12Y 5915   5.192   6.662  13.722  0.1561 -0.3602 -0.4593
   46DOPE  C313 5916   5.120   6.796  13.882  0.0655 -0.5772  0.0785
   46DOPE  H13X 5917   5.211   6.855  13.905 -0.9092  1.3731 -0.9018
   46DOPE  H13Y 5918   5.035   6.866  13.894  0.3685 -0.0087 -0.9489
   46DOPE  C314 5919   5.115   6.667  13.965  0.1884 -0.3156 -0.2824
   46DOPE  H14X 5920   5.209   6.615  13.937  0.5225  0.3695 -0.4563
   46DOPE  H14Y 5921   5.032   6.603  13.931 -1.1404  1.6233 -0.8741
   46DOPE  C315 5922   5.132   6.699  14.117  0.4446  0.4116  0.0679
   46DOPE  H15X 5923   5.059   6.767  14.165 -0.2170 -2.1200  2.9854
   46DOPE  H15Y 5924   5.235   6.739  14.123  0.0542  1.3541  0.6876
   46DOPE  C316 5925   5.123   6.568  14.198 -0.0691 -0.1871 -0.2664
   46DOPE  H16X 5926   5.159   6.588  14.302  0.0384  1.3758 -0.5735
   46DOPE  H16Y 5927   5.196   6.495  14.156  0.9560 -1.1227  2.8330
   46DOPE  C317 5928   4.979   6.509  14.202 -0.4439 -0.3724  0.9558
   46DOPE  H17X 5929   4.914   6.584  14.151  0.1681 -0.1781  0.4507
   46DOPE  H17Y 5930   4.969   6.414  14.147  3.6099 -1.2305  1.3817
   46DOPE  C318 5931   4.929   6.485  14.348 -0.7089  0.7245  0.5770
   46DOPE  H18X 5932   4.818   6.481  14.352 -0.6619 -1.1777  1.1575
   46DOPE  H18Y 5933   4.967   6.390  14.392  0.2234  0.3790 -0.8882
   46DOPE  H18Z 5934   4.968   6.567  14.412 -1.7189  3.1358 -1.7487
   47DOPE     N 5935   0.829   7.267  12.427 -0.5471  0.0445  1.1456
   47DOPE   HN1 5936   0.753   7.211  12.384 -0.2268 -0.1256  0.7984
   47DOPE   HN2 5937   0.787   7.361  12.413 -0.7068 -0.2149 -0.1872
   47DOPE   HN3 5938   0.908   7.266  12.360 -0.3709 -0.5601  1.3521
   47DOPE   C12 5939   0.859   7.233  12.568  0.3627 -0.7242 -0.0487
   47DOPE  H12A 5940   0.908   7.133  12.574 -0.1463 -0.9069  1.3326
   47DOPE  H12B 5941   0.764   7.224  12.626  1.3044  0.8444  1.8886
   47DOPE   C11 5942   0.939   7.337  12.641 -0.5006 -0.1911  0.2733
   47DOPE  H11A 5943   0.954   7.316  12.749 -0.6296 -0.3428  0.2619
   47DOPE  H11B 5944   0.874   7.426  12.650 -0.0340  0.0951  0.9765
   47DOPE     P 5945   1.189   7.297  12.617 -0.0129 -0.2230  0.0257
   47DOPE   O13 5946   1.304   7.353  12.548 -0.5636  0.1963  0.1725
   47DOPE   O14 5947   1.168   7.151  12.596 -0.0164  0.4799 -0.2321
   47DOPE   O11 5948   1.202   7.333  12.769  0.1026 -0.4270 -0.2273
   47DOPE   O12 5949   1.059   7.366  12.575 -0.3897 -0.2609 -0.1011
   47DOPE    C1 5950   1.208   7.470  12.812 -0.1395  0.3443  0.7838
   47DOPE    HA 5951   1.125   7.491  12.883 -1.1604  0.6731 -0.4620
   47DOPE    HB 5952   1.193   7.540  12.726  2.2285  1.8322  1.4942
   47DOPE    C2 5953   1.344   7.499  12.873  0.0360  0.0923 -0.2285
   47DOPE    HS 5954   1.419   7.465  12.798  0.9930  0.6795  0.4422
   47DOPE   O21 5955   1.356   7.424  12.995 -0.3453  0.4381  0.3221
   47DOPE   C21 5956   1.482   7.416  13.041  0.0806 -0.1966  0.2771
   47DOPE   O22 5957   1.574   7.461  12.980 -0.1864 -0.0174  0.4681
   47DOPE   C22 5958   1.495   7.342  13.179 -0.4442  0.1737  0.7576
   47DOPE   H2R 5959   1.482   7.232  13.169 -0.6135 -0.6410  6.4038
   47DOPE   H2S 5960   1.413   7.381  13.244 -2.5210 -3.4396  0.5637
   47DOPE    C3 5961   1.351   7.652  12.904  0.0632 -0.0134  0.5535
   47DOPE    HX 5962   1.354   7.704  12.806  0.3844 -1.0385  0.0052
   47DOPE    HY 5963   1.441   7.678  12.964  0.5076 -0.2839  0.0208
   47DOPE   O31 5964   1.233   7.700  12.971  0.5214 -0.1292  0.0418
   47DOPE   C31 5965   1.234   7.700  13.104 -0.3403 -0.0092  0.4469
   47DOPE   O32 5966   1.322   7.652  13.174 -0.2825  0.0894 -0.2423
   47DOPE   C32 5967   1.120   7.780  13.155  0.3102 -0.0296 -0.5904
   47DOPE   H2X 5968   1.053   7.781  13.066  2.4725 -1.9362 -2.3812
   47DOPE   H2Y 5969   1.071   7.737  13.245 -2.7288  0.5332 -1.8789
   47DOPE   C23 5970   1.632   7.371  13.250  0.8105 -0.7085 -1.0133
   47DOPE   H3R 5971   1.623   7.317  13.346 -1.6689  0.2496 -0.6383
   47DOPE   H3S 5972   1.643   7.479  13.276 -1.0206 -0.2777 -1.8513
   47DOPE   C24 5973   1.763   7.317  13.184 -0.3799  0.7698 -0.0255
   47DOPE   H4R 5974   1.791   7.381  13.098 -0.3466  1.0331  0.1793
   47DOPE   H4S 5975   1.752   7.216  13.139  1.1559  1.0083 -0.9995
   47DOPE   C25 5976   1.893   7.316  13.266  0.0251 -0.0955 -0.1688
   47DOPE   H5R 5977   1.955   7.227  13.244  1.5541  0.1097  2.7360
   47DOPE   H5S 5978   1.883   7.317  13.377  2.4048 -0.7130  0.1195
   47DOPE   C26 5979   1.977   7.439  13.229  0.4290 -0.9015  1.2551
   47DOPE   H6R 5980   1.904   7.523  13.231  1.4201  0.0572 -0.4034
   47DOPE   H6S 5981   2.016   7.426  13.126 -1.2424 -2.1285  0.7221
   47DOPE   C27 5982   2.087   7.459  13.333  0.1071  0.3324 -0.0653
   47DOPE   H7R 5983   2.131   7.359  13.354 -1.1875 -0.7528 -2.1635
   47DOPE   H7S 5984   2.030   7.485  13.425  0.4884  0.3110  0.1806
   47DOPE   C28 5985   2.193   7.560  13.294 -0.0182 -0.4064 -0.7962
   47DOPE   H8R 5986   2.241   7.533  13.197  1.1271  0.2343 -0.4337
   47DOPE   H8S 5987   2.281   7.556  13.362  1.1415  1.2671 -2.1033
   47DOPE   C29 5988   2.153   7.706  13.291  0.0550  0.9341  0.0860
   47DOPE   H9R 5989   2.045   7.725  13.285 -0.2309 -0.6227  0.0765
   47DOPE  C210 5990   2.229   7.812  13.316  0.6055  0.5875 -0.3923
   47DOPE  H10R 5991   2.190   7.915  13.308  0.8993  0.7943  0.6205
   47DOPE  C211 5992   2.369   7.811  13.369  0.2745  0.2004  0.6996
   47DOPE  H11R 5993   2.418   7.899  13.321  3.2111 -1.6529  0.0157
   47DOPE  H11S 5994   2.414   7.713  13.341  3.3579  1.3700  1.1011
   47DOPE  C212 5995   2.363   7.831  13.521 -0.0705  0.2513 -0.8504
   47DOPE  H12R 5996   2.466   7.835  13.563 -0.0369 -0.6069 -0.8340
   47DOPE  H12S 5997   2.321   7.740  13.568  3.4533 -1.2476 -0.2327
   47DOPE  C213 5998   2.292   7.965  13.569  0.6083 -0.1077 -0.1699
   47DOPE  H13R 5999   2.182   7.956  13.572  0.6094 -0.4476 -1.0445
   47DOPE  H13S 6000   2.321   8.035  13.488 -2.4000  2.0093  0.4198
   47DOPE  C214 6001   2.353   8.016  13.701  0.0496 -0.4059 -0.2341
   47DOPE  H14R 6002   2.310   8.115  13.726  2.6809  0.8660 -0.4703
   47DOPE  H14S 6003   2.460   8.046  13.699 -0.8458  3.7743  2.2035
   47DOPE  C215 6004   2.326   7.914  13.815 -0.0310  0.1612  0.2440
   47DOPE  H15R 6005   2.424   7.868  13.841  0.7579  1.6740  0.1220
   47DOPE  H15S 6006   2.269   7.831  13.769 -0.4769  1.1880 -1.1358
   47DOPE  C216 6007   2.256   7.977  13.935 -0.3588 -0.4436 -0.4301
   47DOPE  H16R 6008   2.148   7.991  13.908 -0.4493  0.0405  0.1637
   47DOPE  H16S 6009   2.318   8.068  13.948  2.0101 -1.7340 -2.0295
   47DOPE  C217 6010   2.263   7.904  14.066  0.2089 -0.0062 -0.4620
   47DOPE  H17R 6011   2.200   7.813  14.053 -0.1044  0.1305  0.0198
   47DOPE  H17S 6012   2.204   7.964  14.139  0.8337 -0.3400  0.3296
   47DOPE  C218 6013   2.402   7.881  14.128  0.5286  0.3674  0.0279
   47DOPE  H18R 6014   2.469   7.825  14.060 -1.0495 -0.0839 -1.2012
   47DOPE  H18S 6015   2.375   7.821  14.218  1.2263 -0.3968 -0.2551
   47DOPE  H18T 6016   2.453   7.977  14.151  0.0106  1.0518 -1.6021
   47DOPE   C33 6017   1.168   7.933  13.169  0.0158  0.2164 -0.2050
   47DOPE   H3X 6018   1.079   7.993  13.199 -0.5902 -1.0393  0.5693
   47DOPE   H3Y 6019   1.197   7.969  13.068  0.5158  0.8984  0.1762
   47DOPE   C34 6020   1.279   7.946  13.266  0.0030 -0.6946  0.9572
   47DOPE   H4X 6021   1.258   7.882  13.354  2.4595 -0.0687  2.0773
   47DOPE   H4Y 6022   1.366   7.897  13.218 -0.6374 -0.9086 -0.0219
   47DOPE   C35 6023   1.323   8.094  13.297 -0.2400  1.1171 -0.0120
   47DOPE   H5X 6024   1.230   8.149  13.323 -2.2096 -1.3398 -1.4562
   47DOPE   H5Y 6025   1.354   8.148  13.206 -1.9009 -0.0118 -1.3059
   47DOPE   C36 6026   1.429   8.098  13.409 -0.8077  0.1338 -0.5135
   47DOPE   H6X 6027   1.511   8.030  13.379 -0.5516  0.1117  0.2121
   47DOPE   H6Y 6028   1.385   8.056  13.502 -0.1087  1.8155  0.6273
   47DOPE   C37 6029   1.477   8.247  13.421  0.0254  0.8149 -0.0235
   47DOPE   H7X 6030   1.522   8.283  13.326  0.0277  1.0141  0.0510
   47DOPE   H7Y 6031   1.389   8.313  13.435  0.0669  1.1133 -1.0588
   47DOPE   C38 6032   1.574   8.258  13.537 -0.0773  0.7005 -1.3434
   47DOPE   H8X 6033   1.651   8.180  13.520  1.0467  1.2643  0.8107
   47DOPE   H8Y 6034   1.510   8.222  13.620  1.0854  1.8412  0.0994
   47DOPE   C39 6035   1.630   8.398  13.564  0.1028 -0.4082  0.0425
   47DOPE   H9X 6036   1.668   8.458  13.480 -0.4818 -1.8495 -1.3187
   47DOPE  C310 6037   1.628   8.461  13.680 -0.7858 -0.3216  0.3220
   47DOPE  H10X 6038   1.636   8.570  13.669 -0.2405 -0.0412  2.7556
   47DOPE  C311 6039   1.584   8.425  13.823 -0.5356 -0.2095  0.6860
   47DOPE  H11X 6040   1.479   8.450  13.846 -0.3889  0.7216  0.3769
   47DOPE  H11Y 6041   1.608   8.317  13.837 -0.1179 -0.2264 -0.1091
   47DOPE  C312 6042   1.662   8.505  13.930 -0.4181 -0.4948  0.2140
   47DOPE  H12X 6043   1.770   8.496  13.904 -0.9845 -1.3423 -1.9875
   47DOPE  H12Y 6044   1.647   8.453  14.027  0.5619 -2.7105 -0.7551
   47DOPE  C313 6045   1.627   8.657  13.941 -0.0265 -0.5024 -0.3015
   47DOPE  H13X 6046   1.630   8.697  13.838  1.7883 -0.8422 -0.4209
   47DOPE  H13Y 6047   1.533   8.679  13.996  0.5762  2.5736 -0.3038
   47DOPE  C314 6048   1.729   8.732  14.025  0.0223 -0.5159 -0.5454
   47DOPE  H14X 6049   1.818   8.747  13.960  0.7916 -0.2086  0.5541
   47DOPE  H14Y 6050   1.752   8.671  14.115 -0.5793  0.9664  0.6544
   47DOPE  C315 6051   1.691   8.885  14.058  0.4547  1.0193 -0.5682
   47DOPE  H15X 6052   1.646   8.941  13.973  0.8298  0.3383 -1.2300
   47DOPE  H15Y 6053   1.782   8.937  14.095  0.9872 -2.5226  3.9492
   47DOPE  C316 6054   1.601   8.896  14.184  0.6300 -1.0014  0.8017
   47DOPE  H16X 6055   1.646   8.835  14.265  0.4385 -1.4090  0.6063
   47DOPE  H16Y 6056   1.497   8.868  14.155 -0.4355 -0.0494  3.4618
   47DOPE  C317 6057   1.583   9.043  14.221 -0.6139  0.3056  0.4879
   47DOPE  H17X 6058   1.684   9.082  14.245  0.2569 -1.6422  0.2085
   47DOPE  H17Y 6059   1.533   9.091  14.135 -0.0796  0.6722  0.3745
   47DOPE  C318 6060   1.497   9.046  14.357 -0.0615  0.0842  0.1847
   47DOPE  H18X 6061   1.496   9.143  14.411 -1.2865  0.6052 -0.7259
   47DOPE  H18Y 6062   1.396   9.035  14.313  0.1988  1.8739 -0.9631
   47DOPE  H18Z 6063   1.523   8.967  14.431  1.3204 -0.0944 -0.4562
   48DOPE     N 6064   6.353   3.536  12.203  0.1254  0.2199 -0.2052
   48DOPE   HN1 6065   6.451   3.564  12.179  0.4203 -0.0870  0.6126
   48DOPE   HN2 6066   6.291   3.505  12.126  0.0405 -0.0521 -0.0275
   48DOPE   HN3 6067   6.298   3.614  12.244  1.8932  1.7122 -0.5298
   48DOPE   C12 6068   6.359   3.425  12.299 -0.3998  0.3863  0.0890
   48DOPE  H12A 6069   6.386   3.331  12.246  1.6778  1.8230 -1.5759
   48DOPE  H12B 6070   6.255   3.415  12.336 -0.5385  0.9448 -0.1361
   48DOPE   C11 6071   6.464   3.437  12.409  0.7049  0.1960  0.0123
   48DOPE  H11A 6072   6.463   3.351  12.480  1.1468  0.6990  0.6336
   48DOPE  H11B 6073   6.437   3.525  12.471 -1.2260  0.9759 -1.8227
   48DOPE     P 6074   6.717   3.496  12.415 -0.1998  0.2256 -0.1080
   48DOPE   O13 6075   6.693   3.614  12.500 -0.5168  0.0491  0.1822
   48DOPE   O14 6076   6.824   3.505  12.310  0.6810 -0.9582 -0.1639
   48DOPE   O11 6077   6.768   3.383  12.506 -0.2627 -0.5308 -0.1728
   48DOPE   O12 6078   6.587   3.448  12.344 -0.1851  0.0057  0.2204
   48DOPE    C1 6079   6.698   3.313  12.608 -0.2895  0.3339 -0.2105
   48DOPE    HA 6080   6.643   3.229  12.561 -1.1795 -0.0803  1.4850
   48DOPE    HB 6081   6.630   3.393  12.645  0.6260  1.6587 -1.2545
   48DOPE    C2 6082   6.784   3.259  12.727  0.2004 -0.4722 -0.1676
   48DOPE    HS 6083   6.721   3.187  12.783  0.4567 -0.7024 -0.1747
   48DOPE   O21 6084   6.827   3.377  12.799 -0.5235  0.2967  0.0668
   48DOPE   C21 6085   6.841   3.352  12.934 -0.0879  0.2102  0.1476
   48DOPE   O22 6086   6.802   3.251  12.989 -0.1209 -0.3956 -0.2514
   48DOPE   C22 6087   6.900   3.464  13.012  0.3975  0.0103 -0.3552
   48DOPE   H2R 6088   6.862   3.563  12.981  1.2261  1.3950  2.6335
   48DOPE   H2S 6089   7.010   3.454  12.996  0.4304 -2.1860  0.8487
   48DOPE    C3 6090   6.910   3.165  12.689  0.0497 -0.1841  0.0619
   48DOPE    HX 6091   6.954   3.220  12.603 -0.3383 -1.5034 -1.0144
   48DOPE    HY 6092   6.869   3.065  12.662 -0.5971 -0.1364  0.8381
   48DOPE   O31 6093   7.015   3.169  12.789  0.2932  0.2089 -0.0470
   48DOPE   C31 6094   7.013   3.071  12.876 -0.1440  0.1147 -0.5058
   48DOPE   O32 6095   6.932   2.977  12.866 -0.5385  0.2075 -0.0727
   48DOPE   C32 6096   7.142   3.072  12.959 -0.1036  0.3154 -0.1210
   48DOPE   H2X 6097   7.211   3.011  12.897 -2.4087 -0.7856 -1.7305
   48DOPE   H2Y 6098   7.180   3.176  12.962 -1.3670  0.7970  3.1580
   48DOPE   C23 6099   6.881   3.459  13.166  0.3094 -0.3117 -0.1189
   48DOPE   H3R 6100   6.904   3.361  13.211  0.5719 -0.2977 -0.2168
   48DOPE   H3S 6101   6.776   3.481  13.193  0.4814  2.3020 -1.2416
   48DOPE   C24 6102   6.976   3.551  13.241 -0.3928 -0.2603  0.4282
   48DOPE   H4R 6103   6.973   3.654  13.202 -0.9684 -1.0905 -1.8668
   48DOPE   H4S 6104   7.076   3.504  13.229 -1.0216 -1.5135 -0.1044
   48DOPE   C25 6105   6.927   3.562  13.392  0.4609 -0.0301  0.5433
   48DOPE   H5R 6106   6.948   3.465  13.442  1.0134 -0.9562 -1.3939
   48DOPE   H5S 6107   6.820   3.589  13.396 -0.2049 -2.4173  0.3610
   48DOPE   C26 6108   6.997   3.676  13.460  0.6926  0.3813 -0.8277
   48DOPE   H6R 6109   6.994   3.773  13.406 -1.0819 -0.2738 -1.9919
   48DOPE   H6S 6110   7.104   3.647  13.460  0.7447  0.5523 -1.6271
   48DOPE   C27 6111   6.961   3.688  13.609 -0.2704  0.3329  0.4634
   48DOPE   H7R 6112   6.985   3.587  13.649 -1.4237 -0.0036  0.3255
   48DOPE   H7S 6113   6.859   3.727  13.626 -0.2014  0.6820  0.0849
   48DOPE   C28 6114   7.043   3.786  13.693  0.4910 -0.5694  0.1125
   48DOPE   H8R 6115   7.152   3.780  13.676  0.4230  2.1533 -1.8611
   48DOPE   H8S 6116   7.042   3.747  13.797  1.3346  2.0802  1.1824
   48DOPE   C29 6117   7.009   3.932  13.675  0.3221 -0.2173  0.8647
   48DOPE   H9R 6118   7.012   3.960  13.569  0.1953 -3.3063 -0.0654
   48DOPE  C210 6119   6.974   4.024  13.762  0.0171 -0.4683 -0.7507
   48DOPE  H10R 6120   6.958   4.127  13.725 -1.7475  0.1269  1.5062
   48DOPE  C211 6121   6.969   4.018  13.913 -0.2050  0.0358  0.3883
   48DOPE  H11R 6122   7.030   3.933  13.950 -0.9444 -0.8086 -0.2942
   48DOPE  H11S 6123   6.867   4.001  13.953 -0.4870  0.4421 -0.1456
   48DOPE  C212 6124   7.036   4.144  13.975 -0.0593 -0.2488 -0.2227
   48DOPE  H12R 6125   6.995   4.233  13.924 -1.0977 -1.6691 -1.9596
   48DOPE  H12S 6126   7.145   4.141  13.953 -0.1273  0.4141 -0.6842
   48DOPE  C213 6127   6.992   4.177  14.125 -0.5805 -0.0551  0.6108
   48DOPE  H13R 6128   7.021   4.086  14.182  0.3420 -0.1499  0.0098
   48DOPE  H13S 6129   6.881   4.189  14.129 -0.6775 -0.3762 -0.7894
   48DOPE  C214 6130   7.047   4.303  14.191 -0.0937 -0.1503 -0.6738
   48DOPE  H14R 6131   7.027   4.305  14.300 -1.1777  2.9125 -0.8385
   48DOPE  H14S 6132   6.982   4.386  14.157  0.7726  0.3574 -1.1256
   48DOPE  C215 6133   7.187   4.347  14.164 -0.1894 -0.4794 -0.0290
   48DOPE  H15R 6134   7.187   4.452  14.200 -1.6642 -0.4009 -0.1926
   48DOPE  H15S 6135   7.201   4.350  14.054 -0.4440 -1.6310 -0.1022
   48DOPE  C216 6136   7.305   4.270  14.222  0.0735  0.7817  0.5011
   48DOPE  H16R 6137   7.296   4.160  14.206 -0.5600  1.1571 -2.1770
   48DOPE  H16S 6138   7.298   4.288  14.331 -0.1803 -1.4110  0.8834
   48DOPE  C217 6139   7.440   4.310  14.149  0.1455 -0.1546 -0.2868
   48DOPE  H17R 6140   7.456   4.417  14.172  0.4593 -0.5228  1.3842
   48DOPE  H17S 6141   7.410   4.308  14.042 -1.6707  0.5904  0.1751
   48DOPE  C218 6142   7.565   4.215  14.180 -0.4907  0.5685  0.4826
   48DOPE  H18R 6143   7.607   4.245  14.279 -0.6771  2.3778  0.0441
   48DOPE  H18S 6144   7.653   4.204  14.113 -0.4132 -0.3440  0.7231
   48DOPE  H18T 6145   7.517   4.115  14.191 -1.5160  0.8712 -1.0258
   48DOPE   C33 6146   7.119   3.016  13.097 -0.2942 -0.6274  0.8538
   48DOPE   H3X 6147   7.213   2.989  13.150  1.1457 -0.6173 -1.5386
   48DOPE   H3Y 6148   7.074   2.917  13.078 -1.8749  0.1843  0.2093
   48DOPE   C34 6149   7.028   3.098  13.193 -0.3588 -0.2773  0.4962
   48DOPE   H4X 6150   7.057   3.205  13.185  0.4753 -0.6284 -1.7159
   48DOPE   H4Y 6151   6.924   3.091  13.154 -0.2175 -0.0566  0.0791
   48DOPE   C35 6152   7.053   3.058  13.340  0.0942  0.2662 -0.1574
   48DOPE   H5X 6153   7.157   3.087  13.367  0.3022 -0.8614  0.3058
   48DOPE   H5Y 6154   7.064   2.949  13.354  2.1058  0.5720  1.0961
   48DOPE   C36 6155   6.974   3.132  13.450  0.0688  0.8475  1.1308
   48DOPE   H6X 6156   6.990   3.242  13.442  1.1540  0.7294  1.5431
   48DOPE   H6Y 6157   7.002   3.100  13.552  1.4558 -1.0736  0.2125
   48DOPE   C37 6158   6.820   3.115  13.433  0.2576 -0.7328 -0.4096
   48DOPE   H7X 6159   6.789   3.171  13.343  0.4354  0.9049  0.5184
   48DOPE   H7Y 6160   6.802   3.006  13.415  1.0271 -1.1089  0.9400
   48DOPE   C38 6161   6.736   3.169  13.550  0.5763 -0.3089 -0.1872
   48DOPE   H8X 6162   6.629   3.146  13.531  0.6851 -1.3943  0.4406
   48DOPE   H8Y 6163   6.756   3.279  13.550  1.4398 -0.4422  0.8373
   48DOPE   C39 6164   6.765   3.106  13.685 -0.2675 -0.5032  0.6013
   48DOPE   H9X 6165   6.729   3.002  13.693 -0.0184 -0.7079 -0.7368
   48DOPE  C310 6166   6.820   3.169  13.791 -0.3518 -0.0381 -0.2507
   48DOPE  H10X 6167   6.837   3.117  13.887  1.1108  1.4392  0.3396
   48DOPE  C311 6168   6.863   3.316  13.806  0.2413  0.2552  0.4498
   48DOPE  H11X 6169   6.973   3.326  13.818  0.8930  0.6910 -4.0982
   48DOPE  H11Y 6170   6.843   3.375  13.713 -0.6242 -1.4034 -0.4514
   48DOPE  C312 6171   6.804   3.389  13.923 -1.8362 -0.1265  0.2626
   48DOPE  H12X 6172   6.857   3.358  14.016 -1.8471 -0.5362  0.1355
   48DOPE  H12Y 6173   6.696   3.371  13.940 -2.1639  0.4561 -1.0914
   48DOPE  C313 6174   6.832   3.537  13.915  0.8024  0.3233  0.1438
   48DOPE  H13X 6175   6.940   3.557  13.929  0.9390 -0.8330  0.8401
   48DOPE  H13Y 6176   6.787   3.585  13.825 -1.6385 -1.2656  0.4102
   48DOPE  C314 6177   6.762   3.607  14.042  0.2179  0.0827  0.1758
   48DOPE  H14X 6178   6.810   3.576  14.137 -1.2185  0.3186  0.9993
   48DOPE  H14Y 6179   6.655   3.580  14.057  0.7424 -0.6209  3.4280
   48DOPE  C315 6180   6.791   3.754  14.044  0.5209 -0.1884  0.0094
   48DOPE  H15X 6181   6.733   3.804  13.963 -0.5631 -1.0754  0.2087
   48DOPE  H15Y 6182   6.900   3.768  14.032  0.5679 -0.0357  0.5996
   48DOPE  C316 6183   6.757   3.821  14.180  0.2956 -0.5105 -0.4323
   48DOPE  H16X 6184   6.848   3.843  14.238  1.2428 -0.9773 -1.6873
   48DOPE  H16Y 6185   6.700   3.752  14.245  0.1676  0.5959  0.6669
   48DOPE  C317 6186   6.688   3.956  14.160 -0.3878  0.1040 -0.1692
   48DOPE  H17X 6187   6.764   4.024  14.116 -0.0046  0.3431  0.8352
   48DOPE  H17Y 6188   6.611   3.928  14.085  0.0136  0.1473 -0.5955
   48DOPE  C318 6189   6.619   4.028  14.276 -0.0292 -0.0215 -0.2060
   48DOPE  H18X 6190   6.538   4.090  14.233  1.0155  0.2456 -1.9027
   48DOPE  H18Y 6191   6.578   3.946  14.338  1.7742  0.3115  1.5445
   48DOPE  H18Z 6192   6.692   4.082  14.340  0.1849  0.3184 -0.7273
   49DOPE     N 6193   2.400   0.638  12.498  0.2167  0.0763  0.5638
   49DOPE   HN1 6194   2.460   0.582  12.561  1.3531  1.5545  0.8623
   49DOPE   HN2 6195   2.363   0.574  12.425 -0.7527  1.1878  0.0322
   49DOPE   HN3 6196   2.454   0.714  12.452  0.4752  0.2125  1.0887
   49DOPE   C12 6197   2.292   0.701  12.580 -0.3519 -0.2821 -0.1429
   49DOPE  H12A 6198   2.237   0.780  12.525 -1.9967 -1.0234  0.3729
   49DOPE  H12B 6199   2.346   0.749  12.664 -1.8877 -0.0037  0.7262
   49DOPE   C11 6200   2.196   0.606  12.654  0.4429  0.4105  0.5386
   49DOPE  H11A 6201   2.130   0.667  12.718  0.4612 -0.9574  1.9206
   49DOPE  H11B 6202   2.253   0.536  12.719  3.2592  2.6418  0.6552
   49DOPE     P 6203   2.108   0.383  12.538  0.0232  0.0845 -0.1496
   49DOPE   O13 6204   2.235   0.344  12.474 -0.1270 -0.0869 -0.2823
   49DOPE   O14 6205   1.979   0.343  12.474 -0.2668 -0.4469 -0.4495
   49DOPE   O11 6206   2.113   0.317  12.683 -0.2111 -0.2464  0.7433
   49DOPE   O12 6207   2.108   0.536  12.560  0.2235 -0.2227  0.3648
   49DOPE    C1 6208   1.999   0.272  12.753  0.5744  0.4478  0.6697
   49DOPE    HA 6209   1.981   0.166  12.724  1.1080  0.7695 -0.9387
   49DOPE    HB 6210   1.904   0.322  12.724 -0.3043 -0.1473  2.3701
   49DOPE    C2 6211   2.017   0.285  12.909 -0.9427  0.0321  0.6506
   49DOPE    HS 6212   2.095   0.220  12.953 -0.8199 -0.4301 -0.2355
   49DOPE   O21 6213   1.892   0.251  12.966  0.8547 -0.3104  0.1298
   49DOPE   C21 6214   1.847   0.130  12.955 -0.3486  0.7393 -0.4493
   49DOPE   O22 6215   1.905   0.035  12.904  0.3254  0.8740  0.1378
   49DOPE   C22 6216   1.705   0.121  13.008 -0.6859 -0.2775  0.2101
   49DOPE   H2R 6217   1.651   0.067  12.928 -1.7380  0.4269  0.4273
   49DOPE   H2S 6218   1.657   0.221  13.018 -0.6737 -0.1421 -0.9545
   49DOPE    C3 6219   2.049   0.432  12.950 -0.2952  0.2738  0.2875
   49DOPE    HX 6220   1.986   0.503  12.892  1.6415  0.0249 -2.2964
   49DOPE    HY 6221   2.152   0.466  12.923 -0.0388  0.9070  1.9517
   49DOPE   O31 6222   2.044   0.456  13.089 -0.2843  0.2364 -0.3783
   49DOPE   C31 6223   1.916   0.499  13.126 -0.6240 -0.6866  0.5892
   49DOPE   O32 6224   1.821   0.514  13.049 -0.4713 -0.1427  0.5096
   49DOPE   C32 6225   1.908   0.527  13.270 -0.0054 -0.0347 -0.0986
   49DOPE   H2X 6226   1.840   0.614  13.284 -0.0639 -0.2488  0.9764
   49DOPE   H2Y 6227   1.862   0.436  13.314 -0.2566 -0.9570 -2.1322
   49DOPE   C23 6228   1.691   0.046  13.137  0.3029  0.1826  0.1249
   49DOPE   H3R 6229   1.757  -0.043  13.125  2.2208  1.6443 -0.7060
   49DOPE   H3S 6230   1.584   0.018  13.152  0.8567 -1.1781  1.7977
   49DOPE   C24 6231   1.750   0.130  13.252  0.0296 -0.0356  0.3220
   49DOPE   H4R 6232   1.705   0.232  13.250 -2.7421 -1.0477  3.0838
   49DOPE   H4S 6233   1.858   0.143  13.230  0.3452 -1.3687  1.0004
   49DOPE   C25 6234   1.725   0.076  13.393  0.4098 -0.2872 -0.4984
   49DOPE   H5R 6235   1.739  -0.034  13.398 -1.4923 -0.6248 -1.7094
   49DOPE   H5S 6236   1.618   0.094  13.417  0.5653  0.5436 -0.4049
   49DOPE   C26 6237   1.818   0.159  13.483 -0.6529  0.6968 -0.2306
   49DOPE   H6R 6238   1.788   0.264  13.460 -0.7215  0.5582 -0.7803
   49DOPE   H6S 6239   1.924   0.142  13.455 -0.4398  1.4995  0.0673
   49DOPE   C27 6240   1.810   0.135  13.633  0.7950 -0.6060 -0.7578
   49DOPE   H7R 6241   1.809   0.026  13.652  2.0085 -0.5244 -0.0794
   49DOPE   H7S 6242   1.711   0.167  13.670  0.5019 -1.5231 -0.7241
   49DOPE   C28 6243   1.912   0.204  13.728 -0.6653 -0.4073 -0.3396
   49DOPE   H8R 6244   1.907   0.315  13.719  0.4109 -0.4376 -1.6960
   49DOPE   H8S 6245   2.013   0.176  13.692 -0.9145 -2.5445  0.4663
   49DOPE   C29 6246   1.897   0.159  13.872  0.0212  0.0672 -0.2364
   49DOPE   H9R 6247   1.977   0.096  13.914 -0.5640  0.2707  1.2352
   49DOPE  C210 6248   1.795   0.190  13.957 -1.1158 -0.0607  0.0902
   49DOPE  H10R 6249   1.788   0.147  14.058 -1.7495 -0.1563  0.0107
   49DOPE  C211 6250   1.675   0.276  13.930 -0.2414 -0.8226 -0.4078
   49DOPE  H11R 6251   1.685   0.345  13.843 -0.1051 -0.3775 -0.0401
   49DOPE  H11S 6252   1.665   0.337  14.022  3.2581 -1.8835  0.8497
   49DOPE  C212 6253   1.541   0.198  13.911  0.6629 -0.6113 -0.0688
   49DOPE  H12R 6254   1.556   0.091  13.888  0.9141 -0.8370  1.0887
   49DOPE  H12S 6255   1.494   0.246  13.823  1.4598  3.1669  1.3779
   49DOPE  C213 6256   1.436   0.210  14.028  0.4913  0.0477 -0.2489
   49DOPE  H13R 6257   1.505   0.201  14.115  2.1880 -2.1127 -1.6907
   49DOPE  H13S 6258   1.372   0.120  14.026 -0.4965  0.7442 -0.7566
   49DOPE  C214 6259   1.348   0.336  14.028 -0.9963 -0.1311 -0.6128
   49DOPE  H14R 6260   1.414   0.412  13.980 -0.8261 -0.4309 -0.8540
   49DOPE  H14S 6261   1.321   0.372  14.130 -0.8598  0.8788 -0.9198
   49DOPE  C215 6262   1.226   0.313  13.944 -0.0819  1.1555  0.1175
   49DOPE  H15R 6263   1.134   0.292  14.002  0.7241  1.0978  1.4072
   49DOPE  H15S 6264   1.240   0.228  13.873  0.2539  1.0698  0.2887
   49DOPE  C216 6265   1.197   0.428  13.847 -0.1112  0.7849 -0.2579
   49DOPE  H16R 6266   1.272   0.440  13.765 -0.5750 -0.2340 -0.8507
   49DOPE  H16S 6267   1.191   0.522  13.907 -1.3311 -0.7336  2.1052
   49DOPE  C217 6268   1.067   0.409  13.774  0.5185 -0.2727  0.2268
   49DOPE  H17R 6269   0.985   0.399  13.848  1.2692 -0.5886  1.0371
   49DOPE  H17S 6270   1.080   0.318  13.712 -0.6604 -1.3638  1.5362
   49DOPE  C218 6271   1.031   0.526  13.671  0.1111 -0.3007 -0.1419
   49DOPE  H18R 6272   1.119   0.548  13.607  0.2172  0.1459  0.1468
   49DOPE  H18S 6273   1.011   0.619  13.729  1.8091 -1.8388  3.1844
   49DOPE  H18T 6274   0.951   0.502  13.598 -0.2107  0.2909  0.0128
   49DOPE   C33 6275   2.051   0.547  13.339  0.1032  0.0630 -0.0376
   49DOPE   H3X 6276   2.105   0.633  13.293 -0.2395  0.3275  0.0545
   49DOPE   H3Y 6277   2.114   0.458  13.316  0.9260  0.3069  1.1403
   49DOPE   C34 6278   2.041   0.543  13.498  0.2569 -0.1530  0.2552
   49DOPE   H4X 6279   1.956   0.476  13.520  0.1439  0.4344  1.7018
   49DOPE   H4Y 6280   2.145   0.523  13.532 -0.0710  1.9700  2.9052
   49DOPE   C35 6281   1.990   0.680  13.568 -0.2682  0.5227  0.3073
   49DOPE   H5X 6282   1.880   0.686  13.559 -0.2214  1.7990  0.4067
   49DOPE   H5Y 6283   2.024   0.757  13.495 -3.5752  1.0254 -0.8426
   49DOPE   C36 6284   2.041   0.703  13.712 -0.0701  0.2109 -0.2268
   49DOPE   H6X 6285   2.010   0.805  13.743 -1.3360 -0.7449  1.8494
   49DOPE   H6Y 6286   2.151   0.693  13.712 -0.0787  0.0909 -0.5199
   49DOPE   C37 6287   1.997   0.588  13.807 -0.3970  0.2326  0.1934
   49DOPE   H7X 6288   1.887   0.586  13.790 -0.9733  3.3734  2.6677
   49DOPE   H7Y 6289   2.035   0.489  13.775 -1.3847  0.1248 -0.6907
   49DOPE   C38 6290   2.027   0.606  13.951 -1.0580 -0.6582 -0.1668
   49DOPE   H8X 6291   1.995   0.707  13.985  1.6387 -0.0418  0.7866
   49DOPE   H8Y 6292   2.138   0.604  13.954 -1.0215  1.0288  0.4363
   49DOPE   C39 6293   1.973   0.487  14.029  0.4884  0.1046  0.0768
   49DOPE   H9X 6294   1.972   0.389  13.979 -0.2152  0.8525 -1.4678
   49DOPE  C310 6295   1.920   0.484  14.155 -0.6418  0.2047  0.3162
   49DOPE  H10X 6296   1.884   0.393  14.204  1.1451 -0.3862  0.6094
   49DOPE  C311 6297   1.918   0.608  14.248  0.7617 -0.4390 -0.2790
   49DOPE  H11X 6298   1.982   0.590  14.337 -1.2057 -0.1005  1.2779
   49DOPE  H11Y 6299   1.960   0.702  14.205 -0.0466  1.3417  2.5292
   49DOPE  C312 6300   1.779   0.655  14.299  0.0655  0.1644 -0.9979
   49DOPE  H12X 6301   1.725   0.569  14.344 -4.5117  2.3254 -1.8465
   49DOPE  H12Y 6302   1.722   0.676  14.206 -1.9346  0.4700  0.2438
   49DOPE  C313 6303   1.780   0.767  14.410 -0.5772  0.1982  0.4922
   49DOPE  H13X 6304   1.842   0.736  14.497 -0.1744 -1.5615 -0.3743
   49DOPE  H13Y 6305   1.829   0.845  14.347  0.8838 -1.1229 -0.0793
   49DOPE  C314 6306   1.642   0.811  14.464  0.6616  0.2138  0.3220
   49DOPE  H14X 6307   1.646   0.905  14.524 -0.7789 -0.3341  1.3384
   49DOPE  H14Y 6308   1.598   0.739  14.536 -1.1307 -0.0224 -0.9494
   49DOPE  C315 6309   1.544   0.835  14.346 -0.0406  0.4956 -0.1260
   49DOPE  H15X 6310   1.525   0.745  14.284  1.0906  0.6738 -0.7488
   49DOPE  H15Y 6311   1.601   0.905  14.281 -1.1472  0.5899 -1.0300
   49DOPE  C316 6312   1.420   0.906  14.393  0.4462 -0.4023  0.8675
   49DOPE  H16X 6313   1.440   0.992  14.459 -2.0489  0.8299  0.1574
   49DOPE  H16Y 6314   1.368   0.823  14.446 -0.0803 -0.5992  0.0642
   49DOPE  C317 6315   1.336   0.937  14.267 -0.2645 -0.8590  0.2588
   49DOPE  H17X 6316   1.245   0.991  14.300 -1.0320 -2.4044  0.7540
   49DOPE  H17Y 6317   1.399   0.994  14.196  1.6903 -1.9876  0.9979
   49DOPE  C318 6318   1.278   0.822  14.175  0.6514 -0.4035 -0.0667
   49DOPE  H18X 6319   1.204   0.867  14.105 -0.6757  1.4623  2.3858
   49DOPE  H18Y 6320   1.362   0.784  14.113  3.0416  2.7105  0.9914
   49DOPE  H18Z 6321   1.220   0.750  14.235 -1.3420  1.2705  0.1079
   50DOPE     N 6322   6.950   5.778  12.572  0.1244  0.3928  0.2149
   50DOPE   HN1 6323   6.916   5.861  12.520 -4.7621 -2.2189 -1.3504
   50DOPE   HN2 6324   6.866   5.735  12.615 -0.0972  1.7604  1.2240
   50DOPE   HN3 6325   7.021   5.806  12.643  0.7649 -0.1526 -0.1961
   50DOPE   C12 6326   6.998   5.671  12.475 -0.3425  0.4931 -0.0263
   50DOPE  H12A 6327   7.102   5.700  12.450 -0.3549  0.9754  0.4638
   50DOPE  H12B 6328   6.929   5.677  12.387 -0.8323 -1.0602  0.2284
   50DOPE   C11 6329   7.005   5.531  12.537  0.0478 -0.9212  0.1820
   50DOPE  H11A 6330   7.091   5.516  12.606  1.6572 -3.5223 -2.1738
   50DOPE  H11B 6331   7.021   5.459  12.454  0.7055 -1.3891  0.7023
   50DOPE     P 6332   6.860   5.383  12.705 -0.1938  0.5578  0.1441
   50DOPE   O13 6333   6.980   5.296  12.696 -0.3312  0.0404  0.0049
   50DOPE   O14 6334   6.738   5.311  12.667 -0.4072  0.4223 -0.2518
   50DOPE   O11 6335   6.850   5.449  12.853  0.3058 -0.0590  0.1728
   50DOPE   O12 6336   6.880   5.511  12.611 -0.4367 -0.4052  0.6254
   50DOPE    C1 6337   6.957   5.529  12.913  0.0145  1.0217  0.4510
   50DOPE    HA 6338   6.923   5.633  12.932  0.9474  1.6477 -1.1037
   50DOPE    HB 6339   7.036   5.555  12.839 -2.0142  3.2486 -1.1011
   50DOPE    C2 6340   7.021   5.450  13.032  0.1695 -0.3092 -0.2415
   50DOPE    HS 6341   7.051   5.348  13.000  0.5901 -0.0748 -0.5939
   50DOPE   O21 6342   6.918   5.436  13.132 -0.5951  0.4761  0.1474
   50DOPE   C21 6343   6.922   5.322  13.202 -0.4825 -0.1875 -0.6435
   50DOPE   O22 6344   7.002   5.233  13.192  0.1534 -0.7160 -0.1863
   50DOPE   C22 6345   6.796   5.320  13.289 -0.7478 -0.5640 -0.3555
   50DOPE   H2R 6346   6.707   5.349  13.228 -1.6712 -0.6216  0.9227
   50DOPE   H2S 6347   6.822   5.406  13.353  1.2231 -0.0542 -1.7533
   50DOPE    C3 6348   7.138   5.523  13.083 -0.3703 -1.5184 -0.0353
   50DOPE    HX 6349   7.104   5.625  13.110  0.4803 -1.4303  0.7586
   50DOPE    HY 6350   7.222   5.521  13.009  1.2321 -2.3038  1.7282
   50DOPE   O31 6351   7.186   5.471  13.204 -0.5989  0.2683  0.4094
   50DOPE   C31 6352   7.269   5.364  13.197  0.1661  0.0988  0.2282
   50DOPE   O32 6353   7.311   5.315  13.095  0.2773 -0.5655  0.7381
   50DOPE   C32 6354   7.324   5.320  13.331 -0.1537 -0.3210  0.9203
   50DOPE   H2X 6355   7.317   5.401  13.407  2.5846 -1.0948  2.1200
   50DOPE   H2Y 6356   7.262   5.232  13.361 -0.4241 -1.2582 -2.0998
   50DOPE   C23 6357   6.753   5.189  13.357 -0.3850  0.3036  0.0511
   50DOPE   H3R 6358   6.779   5.098  13.298 -1.6600 -0.3338  0.4292
   50DOPE   H3S 6359   6.643   5.194  13.376 -0.4169 -1.0573  0.3097
   50DOPE   C24 6360   6.808   5.171  13.497 -0.5430  0.0039  0.0943
   50DOPE   H4R 6361   6.771   5.072  13.529 -0.4092 -0.0983 -0.0642
   50DOPE   H4S 6362   6.751   5.240  13.564 -1.0595 -1.8369  1.6276
   50DOPE   C25 6363   6.960   5.188  13.507  0.4811  0.8685  1.0189
   50DOPE   H5R 6364   6.989   5.290  13.473  1.2671  1.3540  2.9905
   50DOPE   H5S 6365   7.003   5.115  13.435 -1.0916  2.4579 -1.7302
   50DOPE   C26 6366   7.008   5.172  13.655 -0.2846  0.9674 -0.3848
   50DOPE   H6R 6367   7.114   5.139  13.652 -0.6261 -0.4168  1.0788
   50DOPE   H6S 6368   6.960   5.082  13.698  2.0006 -0.5061 -0.7137
   50DOPE   C27 6369   6.992   5.286  13.755  0.2479  0.2902  0.1282
   50DOPE   H7R 6370   6.884   5.308  13.765  0.1927 -0.4160  1.1819
   50DOPE   H7S 6371   7.039   5.382  13.722  0.5891  0.1766  0.2817
   50DOPE   C28 6372   7.039   5.251  13.894 -0.4249 -0.2272 -0.3348
   50DOPE   H8R 6373   7.143   5.213  13.880 -0.7621 -1.3877  0.1649
   50DOPE   H8S 6374   6.984   5.161  13.928 -0.5878 -0.1206 -0.3133
   50DOPE   C29 6375   7.035   5.366  13.989 -0.5049  0.0802 -1.0951
   50DOPE   H9R 6376   7.075   5.462  13.955 -2.2154  1.6175  1.0079
   50DOPE  C210 6377   7.000   5.354  14.116  0.0556 -0.2205 -0.3621
   50DOPE  H10R 6378   7.011   5.444  14.178  2.4776 -0.6657 -0.0321
   50DOPE  C211 6379   6.939   5.239  14.193 -1.0239  0.3559  0.0398
   50DOPE  H11R 6380   7.014   5.207  14.269 -0.8410  0.7415  0.0265
   50DOPE  H11S 6381   6.917   5.155  14.124  1.6752  0.2128 -0.7456
   50DOPE  C212 6382   6.805   5.267  14.264  0.0535 -0.4224 -0.7152
   50DOPE  H12R 6383   6.827   5.338  14.347  0.3907 -0.2750 -0.9279
   50DOPE  H12S 6384   6.766   5.175  14.312  1.8312 -0.4965  0.7138
   50DOPE  C213 6385   6.691   5.324  14.182  0.0042  0.5041  0.2411
   50DOPE  H13R 6386   6.657   5.238  14.120  1.5632  1.0580 -1.4790
   50DOPE  H13S 6387   6.721   5.409  14.118  1.3561  1.3030  1.8542
   50DOPE  C214 6388   6.573   5.376  14.274 -0.6711  0.1490  0.0504
   50DOPE  H14R 6389   6.615   5.432  14.359 -1.2694  1.0855 -0.2506
   50DOPE  H14S 6390   6.525   5.292  14.329 -0.3719  0.0682  0.1893
   50DOPE  C215 6391   6.458   5.437  14.198 -0.2905  0.2541  0.9106
   50DOPE  H15R 6392   6.416   5.375  14.117 -0.9592 -1.9423  2.8352
   50DOPE  H15S 6393   6.490   5.530  14.147 -0.9650  0.9239  1.6765
   50DOPE  C216 6394   6.350   5.475  14.299  0.6886 -0.2722  0.5214
   50DOPE  H16R 6395   6.380   5.529  14.390 -0.3456 -2.7673  2.4622
   50DOPE  H16S 6396   6.303   5.378  14.327 -2.8595  1.4779  1.2523
   50DOPE  C217 6397   6.217   5.542  14.242  0.2315  0.1954 -0.0855
   50DOPE  H17R 6398   6.193   5.497  14.144  1.2619 -3.4923  1.2097
   50DOPE  H17S 6399   6.244   5.648  14.223  0.0692  0.4794  1.1706
   50DOPE  C218 6400   6.088   5.527  14.329 -0.3424  0.3288  0.2053
   50DOPE  H18R 6401   6.085   5.606  14.407 -0.0339 -0.1586  0.7279
   50DOPE  H18S 6402   6.079   5.427  14.378 -1.9861  0.4172  0.1369
   50DOPE  H18T 6403   6.002   5.545  14.262 -1.8910  1.8083  2.4721
   50DOPE   C33 6404   7.471   5.268  13.327  0.6481  0.4649 -0.0327
   50DOPE   H3X 6405   7.459   5.172  13.273 -2.3019  1.1688 -0.7885
   50DOPE   H3Y 6406   7.509   5.242  13.428 -0.4971 -0.7883  0.0969
   50DOPE   C34 6407   7.574   5.370  13.271  0.0947 -0.0363  0.3701
   50DOPE   H4X 6408   7.542   5.398  13.169 -0.7340  0.0021  0.6297
   50DOPE   H4Y 6409   7.563   5.457  13.340  1.5073 -0.5416  1.2850
   50DOPE   C35 6410   7.718   5.323  13.277 -0.1538 -0.5472 -0.3038
   50DOPE   H5X 6411   7.784   5.353  13.193 -0.1887 -1.5133 -0.6877
   50DOPE   H5Y 6412   7.712   5.213  13.259  0.4102 -0.9928  1.8846
   50DOPE   C36 6413   7.784   5.349  13.412 -0.1102  0.8065  0.2260
   50DOPE   H6X 6414   7.727   5.316  13.501 -0.4769 -0.2596 -0.3919
   50DOPE   H6Y 6415   7.803   5.459  13.416  1.9947  0.4718  0.9625
   50DOPE   C37 6416   7.919   5.281  13.436 -0.1178  0.7898 -0.1198
   50DOPE   H7X 6417   7.899   5.171  13.438 -2.6536  1.1789  2.6109
   50DOPE   H7Y 6418   7.987   5.314  13.355  0.1654 -1.7506 -1.0042
   50DOPE   C38 6419   7.995   5.329  13.558  0.3955 -0.3223  0.6499
   50DOPE   H8X 6420   7.940   5.303  13.651  2.5763 -0.1793  2.0696
   50DOPE   H8Y 6421   7.991   5.440  13.562  0.8718 -0.3371  2.1832
   50DOPE   C39 6422   8.135   5.268  13.563 -0.2047  0.3088 -0.0263
   50DOPE   H9X 6423   8.147   5.167  13.604  4.6796  1.0655  0.9967
   50DOPE  C310 6424   8.249   5.326  13.532 -0.4919  0.1364  0.4284
   50DOPE  H10X 6425   8.345   5.275  13.551 -0.5408 -0.1938 -0.1737
   50DOPE  C311 6426   8.263   5.463  13.467  0.2400 -0.3706  0.4854
   50DOPE  H11X 6427   8.259   5.449  13.357 -0.3095  0.7984  0.3404
   50DOPE  H11Y 6428   8.177   5.534  13.475 -1.4280 -2.0332 -1.3908
   50DOPE  C312 6429   8.394   5.535  13.495 -0.3651 -0.0826 -0.8862
   50DOPE  H12X 6430   8.484   5.493  13.446 -0.9189 -1.0316 -1.1140
   50DOPE  H12Y 6431   8.412   5.528  13.604 -0.4318  1.0845 -0.7892
   50DOPE  C313 6432   8.381   5.677  13.451  0.7575  0.6110 -0.0765
   50DOPE  H13X 6433   8.365   5.672  13.341  0.0097  0.1024  0.0477
   50DOPE  H13Y 6434   8.289   5.718  13.496  1.9098  0.0526  3.0365
   50DOPE  C314 6435   8.502   5.764  13.495 -1.0601 -0.5746 -0.0433
   50DOPE  H14X 6436   8.504   5.852  13.427 -2.3802  1.5176  2.4165
   50DOPE  H14Y 6437   8.587   5.694  13.484 -1.6953 -1.1043 -1.9483
   50DOPE  C315 6438   8.493   5.823  13.635 -0.0219  0.0444 -0.1481
   50DOPE  H15X 6439   8.508   5.752  13.719 -3.2137 -2.9957 -1.9244
   50DOPE  H15Y 6440   8.390   5.859  13.656  0.6799  1.4708  1.0811
   50DOPE  C316 6441   8.574   5.957  13.634  0.1059  0.2212  0.1176
   50DOPE  H16X 6442   8.589   5.995  13.531 -2.8544  0.2510 -0.3843
   50DOPE  H16Y 6443   8.670   5.922  13.677 -1.1653 -1.8086  1.4775
   50DOPE  C317 6444   8.504   6.068  13.717  0.5114 -0.1929 -0.2211
   50DOPE  H17X 6445   8.582   6.148  13.716  1.0296 -0.6859 -1.1787
   50DOPE  H17Y 6446   8.407   6.106  13.680 -1.5993 -3.3843  1.5880
   50DOPE  C318 6447   8.492   6.025  13.859 -0.5334 -0.5122  0.6553
   50DOPE  H18X 6448   8.468   6.113  13.923  1.0811  0.6690 -0.2922
   50DOPE  H18Y 6449   8.419   5.942  13.872  0.7684 -2.3076 -2.4453
   50DOPE  H18Z 6450   8.587   5.988  13.902  0.7458  2.3425  0.4926
   51DOPE     N 6451   4.681   6.951  12.100  0.3972  0.3419  0.2984
   51DOPE   HN1 6452   4.585   6.992  12.098 -0.1705 -0.8175  2.0198
   51DOPE   HN2 6453   4.744   7.016  12.047 -1.2000  0.1383 -2.0114
   51DOPE   HN3 6454   4.673   6.862  12.046 -0.1659  0.0338  0.8846
   51DOPE   C12 6455   4.710   6.958  12.245 -0.1577  0.0753 -0.0304
   51DOPE  H12A 6456   4.804   6.902  12.265 -1.2572 -2.2525 -0.9447
   51DOPE  H12B 6457   4.629   6.900  12.294  0.0732 -1.4280 -1.3385
   51DOPE   C11 6458   4.707   7.094  12.314  0.4506  0.6065  0.2591
   51DOPE  H11A 6459   4.757   7.070  12.410  2.9176  1.7889 -0.6441
   51DOPE  H11B 6460   4.600   7.121  12.328 -0.7085 -2.8665 -0.8406
   51DOPE     P 6461   4.750   7.339  12.219  0.2199 -0.1792  0.2661
   51DOPE   O13 6462   4.693   7.343  12.080 -0.3933 -0.3481 -0.6278
   51DOPE   O14 6463   4.858   7.435  12.251  0.5899 -0.4739  0.3577
   51DOPE   O11 6464   4.628   7.370  12.318  0.0589  0.0463  0.2774
   51DOPE   O12 6465   4.790   7.192  12.247  0.2605  0.5356  0.2955
   51DOPE    C1 6466   4.576   7.500  12.344 -0.3298  0.5683 -0.8322
   51DOPE    HA 6467   4.539   7.546  12.250 -3.6147  0.3507  0.1889
   51DOPE    HB 6468   4.653   7.571  12.382  1.3143 -1.5945  0.0758
   51DOPE    C2 6469   4.463   7.487  12.452  0.0290 -0.0089 -0.0047
   51DOPE    HS 6470   4.393   7.573  12.445  3.0586  2.5012 -1.7917
   51DOPE   O21 6471   4.529   7.489  12.582 -0.7087  0.0362  0.5658
   51DOPE   C21 6472   4.567   7.599  12.644 -0.8655 -0.1249 -0.4172
   51DOPE   O22 6473   4.559   7.719  12.600 -0.5457 -0.0718 -0.3899
   51DOPE   C22 6474   4.614   7.573  12.785  0.6705  0.4866 -0.3117
   51DOPE   H2R 6475   4.724   7.588  12.793  0.4885  1.0681  1.5218
   51DOPE   H2S 6476   4.587   7.467  12.802  0.9726  0.0365 -2.4327
   51DOPE    C3 6477   4.393   7.351  12.450  0.4258 -0.7599  1.0267
   51DOPE    HX 6478   4.459   7.267  12.482 -0.1353 -1.0647  1.4021
   51DOPE    HY 6479   4.359   7.331  12.346  0.6157  0.0394  0.8095
   51DOPE   O31 6480   4.289   7.349  12.548  0.1694 -0.0824 -1.1440
   51DOPE   C31 6481   4.182   7.422  12.525  0.2041  0.0325  0.4308
   51DOPE   O32 6482   4.168   7.493  12.423  0.1569 -0.2277 -0.0222
   51DOPE   C32 6483   4.082   7.411  12.638 -0.5785 -0.0974 -0.0822
   51DOPE   H2X 6484   3.981   7.406  12.593 -1.4912  0.5358  1.8048
   51DOPE   H2Y 6485   4.093   7.311  12.686 -0.8615 -0.4126 -0.6585
   51DOPE   C23 6486   4.536   7.654  12.890 -0.4492  0.1998  0.3966
   51DOPE   H3R 6487   4.428   7.640  12.872 -0.1083 -2.5370 -0.0141
   51DOPE   H3S 6488   4.566   7.760  12.876  1.2969 -0.2110  0.7037
   51DOPE   C24 6489   4.558   7.606  13.035 -0.5414 -0.1259  0.6255
   51DOPE   H4R 6490   4.667   7.590  13.050 -0.2580  0.1302 -0.9811
   51DOPE   H4S 6491   4.521   7.502  13.046 -1.6502 -0.2255 -2.8378
   51DOPE   C25 6492   4.519   7.700  13.149  0.1573 -0.3559 -0.4761
   51DOPE   H5R 6493   4.409   7.715  13.152  0.3351  1.3856 -1.5095
   51DOPE   H5S 6494   4.572   7.796  13.135 -2.4096  1.6478  2.3174
   51DOPE   C26 6495   4.561   7.640  13.285 -0.0147 -0.6503 -0.6889
   51DOPE   H6R 6496   4.670   7.627  13.268  0.6202  1.5743  1.1832
   51DOPE   H6S 6497   4.520   7.538  13.294 -0.0869 -0.8310 -2.6927
   51DOPE   C27 6498   4.535   7.739  13.407  0.0409 -0.3416  0.4197
   51DOPE   H7R 6499   4.427   7.764  13.417  0.2471  0.5246  0.5202
   51DOPE   H7S 6500   4.588   7.835  13.395 -0.7388  0.4425  2.6100
   51DOPE   C28 6501   4.588   7.663  13.537 -0.1303 -0.9832  0.2765
   51DOPE   H8R 6502   4.696   7.649  13.516  0.2780  2.2593 -0.2937
   51DOPE   H8S 6503   4.547   7.560  13.537  1.1151 -1.4922  0.8927
   51DOPE   C29 6504   4.562   7.750  13.653  0.1968  0.3353 -0.8048
   51DOPE   H9R 6505   4.526   7.849  13.622 -2.1283 -0.8898 -2.2911
   51DOPE  C210 6506   4.554   7.709  13.782 -0.1943 -0.0954  0.4043
   51DOPE  H10R 6507   4.535   7.779  13.865  0.7984  0.6140  0.0630
   51DOPE  C211 6508   4.589   7.566  13.828  1.0584 -0.3602 -0.3200
   51DOPE  H11R 6509   4.690   7.576  13.872  0.1774  0.8839  1.5590
   51DOPE  H11S 6510   4.596   7.496  13.742 -1.0896  0.4277 -1.2107
   51DOPE  C212 6511   4.491   7.494  13.925  0.1468 -0.2049 -0.6321
   51DOPE  H12R 6512   4.509   7.384  13.924 -1.4340 -0.5103  0.2055
   51DOPE  H12S 6513   4.387   7.505  13.888  0.5646 -1.3915 -2.2630
   51DOPE  C213 6514   4.498   7.549  14.065  0.0318  0.2900 -0.4846
   51DOPE  H13R 6515   4.436   7.640  14.082 -1.0989 -0.6886  0.8876
   51DOPE  H13S 6516   4.603   7.580  14.087  0.5479 -0.6187 -1.5469
   51DOPE  C214 6517   4.463   7.440  14.171 -0.1778 -0.4914  0.1137
   51DOPE  H14R 6518   4.525   7.349  14.158 -0.7150 -0.5874 -2.2958
   51DOPE  H14S 6519   4.359   7.416  14.138  0.7253 -0.3814 -3.1993
   51DOPE  C215 6520   4.461   7.496  14.313 -0.0062 -0.2829  0.3014
   51DOPE  H15R 6521   4.391   7.582  14.318 -1.5572 -1.5253  0.9118
   51DOPE  H15S 6522   4.560   7.543  14.330  0.2960 -0.4565 -0.9222
   51DOPE  C216 6523   4.424   7.398  14.424 -0.1857 -0.0035 -0.0328
   51DOPE  H16R 6524   4.315   7.388  14.404 -0.3333  0.6243  0.4019
   51DOPE  H16S 6525   4.431   7.448  14.523 -0.2047 -1.2632  0.6213
   51DOPE  C217 6526   4.493   7.265  14.420 -0.2753 -0.5913 -0.2419
   51DOPE  H17R 6527   4.600   7.297  14.421 -0.4813  0.5841 -3.2016
   51DOPE  H17S 6528   4.470   7.212  14.324  1.1290  0.0691 -0.9787
   51DOPE  C218 6529   4.456   7.164  14.533 -0.0079 -0.3175 -0.1147
   51DOPE  H18R 6530   4.516   7.074  14.507  1.1707  0.4175  0.0060
   51DOPE  H18S 6531   4.348   7.144  14.521  0.3373 -1.4426 -1.8105
   51DOPE  H18T 6532   4.491   7.195  14.634 -0.0907 -1.4474  0.2764
   51DOPE   C33 6533   4.103   7.530  12.741  0.0512 -0.0246 -0.1605
   51DOPE   H3X 6534   4.078   7.616  12.675 -0.1761 -0.8212 -1.1332
   51DOPE   H3Y 6535   4.210   7.553  12.762 -0.3716  2.2467 -0.2241
   51DOPE   C34 6536   4.013   7.537  12.864 -0.3915  0.2535  0.1100
   51DOPE   H4X 6537   3.923   7.597  12.839  1.1642  3.5526  1.7195
   51DOPE   H4Y 6538   3.984   7.437  12.905  0.6540 -1.0651 -2.1945
   51DOPE   C35 6539   4.092   7.617  12.969  0.0152  0.1758  0.2386
   51DOPE   H5X 6540   4.196   7.578  12.970 -0.1003 -0.1544 -0.3960
   51DOPE   H5Y 6541   4.043   7.604  13.067 -0.3763 -1.6874 -0.1732
   51DOPE   C36 6542   4.094   7.768  12.934  0.3138 -0.1163  0.2806
   51DOPE   H6X 6543   3.986   7.794  12.927 -0.0067 -0.3762  3.1350
   51DOPE   H6Y 6544   4.132   7.779  12.830 -1.8932  1.1286 -0.4797
   51DOPE   C37 6545   4.163   7.867  13.025 -0.0108  0.0569 -0.1439
   51DOPE   H7X 6546   4.123   7.859  13.128 -1.0246 -2.4917 -0.6706
   51DOPE   H7Y 6547   4.273   7.852  13.029 -0.0991 -0.4532  3.1151
   51DOPE   C38 6548   4.151   8.006  12.964  0.9295 -0.1856  1.2737
   51DOPE   H8X 6549   4.044   8.037  12.966  0.3638 -1.5663 -1.7632
   51DOPE   H8Y 6550   4.172   8.012  12.856  0.8340  2.2887  1.3422
   51DOPE   C39 6551   4.238   8.105  13.035 -0.3384 -0.4917  1.0272
   51DOPE   H9X 6552   4.305   8.153  12.962 -1.1324 -1.3475 -0.3054
   51DOPE  C310 6553   4.248   8.146  13.165  0.1896 -0.2756  0.3924
   51DOPE  H10X 6554   4.334   8.207  13.197  0.4668 -0.2802 -0.3356
   51DOPE  C311 6555   4.160   8.098  13.283 -0.6256  0.0066 -0.2174
   51DOPE  H11X 6556   4.121   8.186  13.338  1.2253 -0.5287  2.1345
   51DOPE  H11Y 6557   4.060   8.061  13.251 -2.5301  2.0233  2.8762
   51DOPE  C312 6558   4.223   7.997  13.371 -0.0102  0.2233  0.4418
   51DOPE  H12X 6559   4.332   8.012  13.387  0.1802 -1.3037  0.7830
   51DOPE  H12Y 6560   4.220   7.902  13.313 -0.3182  0.1507  0.5718
   51DOPE  C313 6561   4.146   7.986  13.504 -0.9172 -0.6516  0.0997
   51DOPE  H13X 6562   4.155   8.086  13.552 -1.5879  0.2820 -1.6158
   51DOPE  H13Y 6563   4.044   7.963  13.466 -1.9441  3.8390 -0.4563
   51DOPE  C314 6564   4.212   7.879  13.600  0.1651  0.3494  0.4678
   51DOPE  H14X 6565   4.316   7.914  13.617  0.8966  0.4662 -3.4005
   51DOPE  H14Y 6566   4.214   7.782  13.546 -0.2643  0.3551  0.4355
   51DOPE  C315 6567   4.138   7.862  13.732 -0.1274  0.5047  0.2111
   51DOPE  H15X 6568   4.168   7.935  13.810  0.7868  1.7088 -1.2407
   51DOPE  H15Y 6569   4.165   7.762  13.774 -0.1495  0.0030 -0.9475
   51DOPE  C316 6570   3.989   7.871  13.720  0.2905  0.0986 -0.1336
   51DOPE  H16X 6571   3.950   7.785  13.662  1.1607 -0.7873  0.5629
   51DOPE  H16Y 6572   3.976   7.965  13.662  3.4886  0.2351 -0.8067
   51DOPE  C317 6573   3.913   7.890  13.849 -0.5287  0.1382 -0.5227
   51DOPE  H17X 6574   3.934   7.799  13.909  1.8440  0.9256 -0.0466
   51DOPE  H17Y 6575   3.950   7.974  13.911  3.6288 -0.9541 -1.2045
   51DOPE  C318 6576   3.763   7.895  13.830 -0.4964 -0.0209  0.1164
   51DOPE  H18X 6577   3.726   7.802  13.781  0.3168  0.2938 -1.1599
   51DOPE  H18Y 6578   3.713   7.913  13.928  0.6683 -1.7040  1.0647
   51DOPE  H18Z 6579   3.741   7.985  13.769 -1.2047  0.8837  1.6465
   52DOPE     N 6580   6.574   4.906  12.320 -0.3233  0.4563 -0.2388
   52DOPE   HN1 6581   6.619   4.993  12.356 -0.9463  0.1046  1.4551
   52DOPE   HN2 6582   6.611   4.824  12.371 -1.4988 -0.3570 -0.6466
   52DOPE   HN3 6583   6.584   4.896  12.217  0.1536 -0.2457 -0.1271
   52DOPE   C12 6584   6.433   4.895  12.358  0.4242 -0.0827  0.0790
   52DOPE  H12A 6585   6.367   4.971  12.311 -1.0212 -1.0703  0.4197
   52DOPE  H12B 6586   6.428   4.905  12.469 -1.5842  0.2480 -0.0066
   52DOPE   C11 6587   6.369   4.752  12.326 -0.3756 -0.2559  0.5291
   52DOPE  H11A 6588   6.354   4.730  12.218 -2.7892 -1.1590  0.9842
   52DOPE  H11B 6589   6.269   4.759  12.373 -0.4411 -0.4793  0.4268
   52DOPE     P 6590   6.465   4.619  12.535  0.2835 -0.4874 -0.1572
   52DOPE   O13 6591   6.561   4.716  12.601  0.2324  0.9316  0.0800
   52DOPE   O14 6592   6.489   4.474  12.561 -0.4089 -0.2900  0.1847
   52DOPE   O11 6593   6.321   4.656  12.577 -0.2203  0.6338 -0.2214
   52DOPE   O12 6594   6.451   4.650  12.383  0.0902  0.5813 -0.2233
   52DOPE    C1 6595   6.210   4.561  12.581  0.5741  0.1999 -0.5057
   52DOPE    HA 6596   6.238   4.461  12.542 -0.3149  0.1968 -1.1474
   52DOPE    HB 6597   6.130   4.596  12.513 -1.8056 -0.6415  1.7003
   52DOPE    C2 6598   6.156   4.538  12.724  0.5529 -0.8426 -0.4280
   52DOPE    HS 6599   6.093   4.447  12.723 -0.0644 -0.4429  0.7024
   52DOPE   O21 6600   6.089   4.655  12.775  0.5005 -0.3324  0.9669
   52DOPE   C21 6601   5.974   4.685  12.714  0.3635  0.2434  0.9485
   52DOPE   O22 6602   5.916   4.618  12.628  0.2088 -0.5442 -0.3740
   52DOPE   C22 6603   5.913   4.812  12.767  0.0031 -0.3466 -0.7113
   52DOPE   H2R 6604   5.861   4.871  12.687  0.2580  1.7235  0.5643
   52DOPE   H2S 6605   5.991   4.877  12.811 -0.8331 -0.1453  0.5212
   52DOPE    C3 6606   6.272   4.498  12.825  0.1140 -0.1882  0.8481
   52DOPE    HX 6607   6.339   4.586  12.830 -1.2984  1.0225 -0.5067
   52DOPE    HY 6608   6.329   4.416  12.777  0.5846  0.3880  0.4095
   52DOPE   O31 6609   6.223   4.451  12.943  0.3219 -0.1459  0.8470
   52DOPE   C31 6610   6.219   4.539  13.040  0.0731  0.3355 -0.3135
   52DOPE   O32 6611   6.255   4.656  13.041  0.1863 -0.1585 -0.0880
   52DOPE   C32 6612   6.159   4.457  13.158  0.3305  0.3030  0.1560
   52DOPE   H2X 6613   6.067   4.416  13.113  0.4909 -1.9739  1.7021
   52DOPE   H2Y 6614   6.218   4.363  13.173 -2.3204 -1.5271 -0.2542
   52DOPE   C23 6615   5.800   4.788  12.871 -0.3292 -0.4665  0.1296
   52DOPE   H3R 6616   5.809   4.682  12.902 -0.2671  0.1369  2.3115
   52DOPE   H3S 6617   5.705   4.803  12.815 -0.0316 -1.1860 -0.5964
   52DOPE   C24 6618   5.816   4.875  12.994  0.4817  1.1460 -0.0027
   52DOPE   H4R 6619   5.726   4.853  13.056 -0.6740  1.4467 -1.4981
   52DOPE   H4S 6620   5.793   4.982  12.974 -0.9649  0.7487 -0.6089
   52DOPE   C25 6621   5.942   4.834  13.089  1.1245 -1.1319  0.2106
   52DOPE   H5R 6622   6.030   4.841  13.021 -0.1119 -0.2397 -1.3969
   52DOPE   H5S 6623   5.914   4.732  13.121 -2.8530 -0.4747 -0.6044
   52DOPE   C26 6624   5.959   4.923  13.215  0.8306  0.1201  0.4452
   52DOPE   H6R 6625   5.868   4.918  13.278 -1.2444 -1.3896 -2.4426
   52DOPE   H6S 6626   5.972   5.028  13.181 -1.2426  0.8438  1.7475
   52DOPE   C27 6627   6.084   4.880  13.294  0.3718 -0.2327  0.5682
   52DOPE   H7R 6628   6.147   4.812  13.233  0.2786 -0.2971  0.5433
   52DOPE   H7S 6629   6.051   4.824  13.383  1.3277  0.5505  1.4393
   52DOPE   C28 6630   6.181   4.995  13.337  0.1723 -0.1215 -1.3372
   52DOPE   H8R 6631   6.235   5.028  13.246  0.4640 -0.8968 -1.4550
   52DOPE   H8S 6632   6.256   4.957  13.410 -1.3715  0.9207  0.9346
   52DOPE   C29 6633   6.107   5.100  13.409 -0.7475 -0.9317  0.0830
   52DOPE   H9R 6634   6.037   5.045  13.474  0.1912 -2.1061  0.1519
   52DOPE  C210 6635   6.127   5.236  13.401  0.8260  1.1197  0.6755
   52DOPE  H10R 6636   6.063   5.303  13.459 -0.4075  1.0267 -0.5177
   52DOPE  C211 6637   6.245   5.291  13.324 -0.5447 -0.1290  0.0746
   52DOPE  H11R 6638   6.217   5.301  13.217  0.1831 -0.0036 -0.1070
   52DOPE  H11S 6639   6.330   5.219  13.323 -1.7077 -1.6079  1.4487
   52DOPE  C212 6640   6.302   5.414  13.384  0.5333 -0.4599 -0.7984
   52DOPE  H12R 6641   6.220   5.489  13.379  0.6290 -0.3997 -1.6067
   52DOPE  H12S 6642   6.390   5.443  13.324  0.6122  2.9030  0.6799
   52DOPE  C213 6643   6.358   5.394  13.526  0.1775  0.5445 -0.7683
   52DOPE  H13R 6644   6.411   5.297  13.530 -1.0700 -0.1769 -1.2661
   52DOPE  H13S 6645   6.286   5.384  13.610  0.8453 -1.1678 -0.3669
   52DOPE  C214 6646   6.454   5.513  13.556  0.6258  0.9275 -0.7494
   52DOPE  H14R 6647   6.402   5.611  13.545 -1.3764  0.6136  3.7801
   52DOPE  H14S 6648   6.534   5.503  13.480 -0.8452 -0.9485 -2.1555
   52DOPE  C215 6649   6.521   5.490  13.690  0.0755  0.6566  0.4956
   52DOPE  H15R 6650   6.557   5.386  13.702 -0.1781  0.5744  0.5565
   52DOPE  H15S 6651   6.447   5.496  13.773  0.3770 -0.7911  0.8889
   52DOPE  C216 6652   6.640   5.584  13.712 -0.4813  1.0283  0.6703
   52DOPE  H16R 6653   6.602   5.689  13.705 -3.3229  0.0423 -0.0679
   52DOPE  H16S 6654   6.714   5.573  13.629 -0.3292 -1.1438  1.0532
   52DOPE  C217 6655   6.728   5.559  13.841  0.0997 -0.0209 -0.4183
   52DOPE  H17R 6656   6.768   5.456  13.830  2.2098  0.5263  1.4133
   52DOPE  H17S 6657   6.666   5.587  13.929 -0.3971 -1.1465 -0.3837
   52DOPE  C218 6658   6.856   5.643  13.830 -0.0053  0.1064  0.1506
   52DOPE  H18R 6659   6.876   5.643  13.721  0.1271 -0.0861  0.1753
   52DOPE  H18S 6660   6.841   5.748  13.863  0.3681 -0.0126  0.7085
   52DOPE  H18T 6661   6.951   5.612  13.878  0.0521  1.0722  0.6811
   52DOPE   C33 6662   6.118   4.534  13.284  0.4088 -0.1276 -0.0525
   52DOPE   H3X 6663   6.039   4.606  13.252  0.7041  0.9090  1.4235
   52DOPE   H3Y 6664   6.195   4.606  13.319 -1.7467  2.1678  0.3026
   52DOPE   C34 6665   6.055   4.452  13.399 -0.9010 -0.4581  0.5479
   52DOPE   H4X 6666   5.978   4.381  13.363 -1.2871  0.0670  0.3123
   52DOPE   H4Y 6667   6.138   4.392  13.441  0.0980 -0.5526 -1.4429
   52DOPE   C35 6668   5.994   4.545  13.509 -0.2461 -0.5602  0.7480
   52DOPE   H5X 6669   5.937   4.482  13.581  0.4181 -2.4542 -0.3100
   52DOPE   H5Y 6670   5.933   4.613  13.445 -0.8340 -0.4282  1.4469
   52DOPE   C36 6671   6.094   4.634  13.578 -0.5374 -0.0376  0.6829
   52DOPE   H6X 6672   6.162   4.694  13.514 -1.9407  2.4735  1.4156
   52DOPE   H6Y 6673   6.155   4.562  13.636 -2.6113 -1.5631  1.1041
   52DOPE   C37 6674   6.024   4.736  13.672 -0.8252  0.0476  0.0589
   52DOPE   H7X 6675   5.962   4.801  13.606  1.4185  2.1318 -0.1378
   52DOPE   H7Y 6676   5.946   4.683  13.731 -0.1971 -1.5737 -0.5164
   52DOPE   C38 6677   6.110   4.814  13.776 -0.0660 -0.0538  0.0108
   52DOPE   H8X 6678   6.043   4.889  13.821 -0.7663 -1.2480  1.0017
   52DOPE   H8Y 6679   6.179   4.866  13.706 -1.0542 -0.0078 -0.9557
   52DOPE   C39 6680   6.184   4.719  13.871 -0.5816 -0.5090  0.6094
   52DOPE   H9X 6681   6.214   4.623  13.825  0.1135  0.4631 -1.0418
   52DOPE  C310 6682   6.212   4.722  14.001 -0.1700  0.1064  0.2550
   52DOPE  H10X 6683   6.285   4.650  14.040 -1.1152 -0.2324  1.4593
   52DOPE  C311 6684   6.169   4.825  14.105 -0.6508  0.0257  0.3929
   52DOPE  H11X 6685   6.119   4.913  14.058 -0.0009  1.3798  2.1152
   52DOPE  H11Y 6686   6.088   4.777  14.165 -1.1736  0.8699  0.3908
   52DOPE  C312 6687   6.286   4.877  14.200 -0.4195 -0.1953 -0.4303
   52DOPE  H12X 6688   6.366   4.904  14.128  0.9142 -2.0353  0.2841
   52DOPE  H12Y 6689   6.318   4.783  14.250 -1.1725 -0.0687  0.2954
   52DOPE  C313 6690   6.242   4.980  14.297 -0.2414  0.2467  0.1340
   52DOPE  H13X 6691   6.209   5.072  14.244 -0.4258 -0.2545 -0.6260
   52DOPE  H13Y 6692   6.158   4.941  14.358  1.4353 -2.7146  0.7453
   52DOPE  C314 6693   6.353   5.010  14.401 -0.1471  0.0042 -0.4535
   52DOPE  H14X 6694   6.433   5.056  14.341 -0.9846  1.9389 -0.1583
   52DOPE  H14Y 6695   6.392   4.922  14.457 -0.9485 -1.2513 -1.7956
   52DOPE  C315 6696   6.326   5.115  14.517  0.0813 -0.5603  0.6925
   52DOPE  H15X 6697   6.237   5.077  14.570  0.5096 -1.4821  0.7589
   52DOPE  H15Y 6698   6.313   5.213  14.466 -0.5180 -0.9588  0.0723
   52DOPE  C316 6699   6.448   5.132  14.611  0.6564  0.4330 -0.2057
   52DOPE  H16X 6700   6.542   5.145  14.553  1.3485  0.7495  0.9601
   52DOPE  H16Y 6701   6.453   5.049  14.685 -0.7508  2.2873  2.0741
   52DOPE  C317 6702   6.434   5.262  14.698 -0.1059 -0.5536  0.4365
   52DOPE  H17X 6703   6.407   5.343  14.628 -1.2585 -1.4565 -0.1913
   52DOPE  H17Y 6704   6.347   5.257  14.766  0.4468  2.3512  1.5269
   52DOPE  C318 6705   6.559   5.298  14.780 -0.5267  0.5376  0.2733
   52DOPE  H18X 6706   6.586   5.216  14.850 -1.0554  0.7611  0.7379
   52DOPE  H18Y 6707   6.646   5.308  14.712 -0.2221 -1.1147  0.3638
   52DOPE  H18Z 6708   6.541   5.387  14.844  1.8022  2.2053 -1.2115
   53DOPE     N 6709   6.032   6.622  12.696  0.7198  0.2556 -0.1899
   53DOPE   HN1 6710   5.965   6.595  12.621 -1.6869  1.9382  1.2115
   53DOPE   HN2 6711   6.025   6.725  12.701 -0.6296  0.1409  2.1411
   53DOPE   HN3 6712   6.129   6.593  12.672  0.0392 -1.2661 -1.3413
   53DOPE   C12 6713   5.989   6.573  12.824 -0.3126 -0.1075  0.4633
   53DOPE  H12A 6714   6.039   6.643  12.895 -2.3142  0.6221  1.2197
   53DOPE  H12B 6715   6.030   6.474  12.852  0.9728  0.9329  2.5725
   53DOPE   C11 6716   5.842   6.568  12.855 -0.9185  0.2462  0.3662
   53DOPE  H11A 6717   5.790   6.664  12.832 -1.4070  0.5654  2.5662
   53DOPE  H11B 6718   5.838   6.574  12.966 -2.2832  1.0405  0.3017
   53DOPE     P 6719   5.735   6.440  12.656 -0.4332  0.3515  0.0227
   53DOPE   O13 6720   5.653   6.320  12.638  0.5511  0.3900  0.0747
   53DOPE   O14 6721   5.850   6.463  12.568 -0.3505 -0.3103  0.4157
   53DOPE   O11 6722   5.642   6.567  12.645 -0.1078 -0.5510  0.1025
   53DOPE   O12 6723   5.787   6.446  12.803 -0.1108 -0.6195 -0.3148
   53DOPE    C1 6724   5.519   6.592  12.715 -0.7489  0.0314  0.7033
   53DOPE    HA 6725   5.498   6.700  12.703  2.0487  0.4762 -1.2042
   53DOPE    HB 6726   5.535   6.580  12.824 -0.1966 -0.3364  0.5892
   53DOPE    C2 6727   5.388   6.522  12.659 -0.6945 -0.3891 -0.3193
   53DOPE    HS 6728   5.412   6.458  12.572 -1.6789 -1.6142  0.2610
   53DOPE   O21 6729   5.294   6.628  12.633  0.1178 -0.0945  0.3470
   53DOPE   C21 6730   5.193   6.593  12.553 -0.3386  0.0524  0.9799
   53DOPE   O22 6731   5.201   6.496  12.477  0.6044 -0.2246  0.5547
   53DOPE   C22 6732   5.064   6.685  12.561  0.5663 -0.7355 -0.3896
   53DOPE   H2R 6733   5.067   6.748  12.469  0.3157  0.0124  0.1050
   53DOPE   H2S 6734   5.068   6.752  12.650 -0.3265  1.0552 -1.6422
   53DOPE    C3 6735   5.329   6.431  12.768  0.1807  0.3601  0.5287
   53DOPE    HX 6736   5.396   6.344  12.775 -0.0882  0.0135 -0.9137
   53DOPE    HY 6737   5.229   6.389  12.743  1.4463 -1.5274 -1.7486
   53DOPE   O31 6738   5.326   6.494  12.902  0.3092 -0.3436  0.0732
   53DOPE   C31 6739   5.258   6.413  12.995 -0.0407  0.6613  0.3416
   53DOPE   O32 6740   5.215   6.304  12.977 -0.3424 -0.2256  0.3191
   53DOPE   C32 6741   5.254   6.478  13.132  0.3535  0.3232  0.1032
   53DOPE   H2X 6742   5.323   6.565  13.140  0.8497 -0.2079  1.9075
   53DOPE   H2Y 6743   5.158   6.523  13.165  0.1176 -0.6349  0.7620
   53DOPE   C23 6744   4.929   6.612  12.562  0.6646 -0.0754 -1.0140
   53DOPE   H3R 6745   4.920   6.548  12.472  0.0900 -2.0024  0.3315
   53DOPE   H3S 6746   4.845   6.684  12.561  0.3879 -0.3912 -2.3909
   53DOPE   C24 6747   4.908   6.511  12.681 -0.8776  0.0466 -0.1807
   53DOPE   H4R 6748   4.967   6.419  12.664  1.1761  1.0840  0.9024
   53DOPE   H4S 6749   4.805   6.471  12.689 -0.4536 -1.6526 -2.3855
   53DOPE   C25 6750   4.934   6.583  12.823  0.3567  0.0101  0.0360
   53DOPE   H5R 6751   4.869   6.672  12.809  0.8036  0.3536  0.1457
   53DOPE   H5S 6752   5.041   6.613  12.827  0.6323 -0.7836 -1.0144
   53DOPE   C26 6753   4.901   6.487  12.935 -0.3205 -0.3135 -0.9416
   53DOPE   H6R 6754   4.966   6.398  12.928 -1.0285 -1.1368  1.7247
   53DOPE   H6S 6755   4.801   6.446  12.909 -0.7191  0.0799 -0.0664
   53DOPE   C27 6756   4.891   6.552  13.072  0.4303  0.3490  0.3700
   53DOPE   H7R 6757   4.806   6.624  13.069  0.9324  1.1791 -5.4300
   53DOPE   H7S 6758   4.981   6.614  13.089 -0.4963  1.8009  0.1927
   53DOPE   C28 6759   4.892   6.440  13.173  0.1845  0.4217 -0.4562
   53DOPE   H8R 6760   4.903   6.482  13.275 -1.8335  1.2679 -0.5285
   53DOPE   H8S 6761   4.977   6.371  13.156  0.2338  0.9682 -2.7664
   53DOPE   C29 6762   4.774   6.341  13.176  0.6459 -0.1791  0.0185
   53DOPE   H9R 6763   4.754   6.269  13.095 -0.2738 -1.2956  1.1985
   53DOPE  C210 6764   4.687   6.327  13.284 -1.2413 -0.4250  0.0717
   53DOPE  H10R 6765   4.601   6.261  13.264 -1.1797 -0.2614 -0.7764
   53DOPE  C211 6766   4.702   6.394  13.419  0.5628  0.4631 -0.2409
   53DOPE  H11R 6767   4.605   6.418  13.467  0.2865 -1.1062  0.0365
   53DOPE  H11S 6768   4.765   6.486  13.410 -0.2210  1.0819  0.4515
   53DOPE  C212 6769   4.786   6.309  13.517 -0.4294  0.3355  0.1583
   53DOPE  H12R 6770   4.882   6.291  13.464 -1.5002 -0.9036 -1.4603
   53DOPE  H12S 6771   4.727   6.216  13.529  1.5539 -0.9423  0.5764
   53DOPE  C213 6772   4.799   6.380  13.642  0.2247 -0.1757  0.3602
   53DOPE  H13R 6773   4.700   6.409  13.683  0.3854  1.6673 -0.4717
   53DOPE  H13S 6774   4.855   6.471  13.614  1.0215 -0.4169  1.1029
   53DOPE  C214 6775   4.877   6.311  13.757  0.4178 -0.2528 -0.1543
   53DOPE  H14R 6776   4.826   6.214  13.775 -0.0298 -0.2613 -1.3852
   53DOPE  H14S 6777   4.871   6.372  13.850  0.4039  0.6586 -0.7305
   53DOPE  C215 6778   5.025   6.274  13.736 -0.0164 -0.4443 -0.0546
   53DOPE  H15R 6779   5.085   6.363  13.710  1.4875 -0.7359  2.1314
   53DOPE  H15S 6780   5.046   6.198  13.657  0.6045 -0.3083 -0.0186
   53DOPE  C216 6781   5.084   6.218  13.865  0.0746  0.0320  0.4381
   53DOPE  H16R 6782   5.020   6.144  13.917  0.5234  1.4474  3.2583
   53DOPE  H16S 6783   5.080   6.303  13.937 -1.4910  1.6725 -1.4718
   53DOPE  C217 6784   5.234   6.177  13.844  0.3066  0.9610  0.0253
   53DOPE  H17R 6785   5.291   6.266  13.810  3.4086 -1.1018 -0.5700
   53DOPE  H17S 6786   5.251   6.093  13.774 -0.3013 -0.0034  1.0108
   53DOPE  C218 6787   5.305   6.124  13.967 -0.2133 -0.8455 -0.2278
   53DOPE  H18R 6788   5.269   6.194  14.045 -0.8222  1.2520 -2.2603
   53DOPE  H18S 6789   5.416   6.127  13.964 -0.1726  0.6826  1.0155
   53DOPE  H18T 6790   5.284   6.017  13.987 -0.3813 -0.5074  1.5769
   53DOPE   C33 6791   5.282   6.362  13.234 -0.4918 -0.5094 -0.2051
   53DOPE   H3X 6792   5.380   6.317  13.206 -0.4576 -0.2730 -0.4633
   53DOPE   H3Y 6793   5.208   6.280  13.225  1.1705 -2.0799 -0.3424
   53DOPE   C34 6794   5.289   6.405  13.386  0.4611  0.5643  0.6041
   53DOPE   H4X 6795   5.224   6.490  13.415 -1.4948 -1.2653  1.8733
   53DOPE   H4Y 6796   5.269   6.314  13.447 -2.0904 -0.7670 -1.9382
   53DOPE   C35 6797   5.423   6.471  13.411  0.3312  0.4705 -0.3378
   53DOPE   H5X 6798   5.452   6.522  13.316 -0.0824  0.7367 -0.3193
   53DOPE   H5Y 6799   5.497   6.389  13.420  0.8997  0.9874 -0.2154
   53DOPE   C36 6800   5.434   6.570  13.522  0.7320 -0.7370 -0.3646
   53DOPE   H6X 6801   5.358   6.649  13.504  1.5443  0.1092 -0.1678
   53DOPE   H6Y 6802   5.531   6.625  13.521 -0.7881  2.2034  0.5276
   53DOPE   C37 6803   5.439   6.496  13.658  0.0548  0.4567 -0.0072
   53DOPE   H7X 6804   5.339   6.492  13.706 -0.0614 -0.8032 -0.3283
   53DOPE   H7Y 6805   5.475   6.391  13.644  0.1979 -0.0936  3.6009
   53DOPE   C38 6806   5.555   6.555  13.749 -1.0371  0.6371  0.0967
   53DOPE   H8X 6807   5.530   6.663  13.761 -2.9520  0.3507 -0.9935
   53DOPE   H8Y 6808   5.649   6.564  13.691  0.5172 -0.6582  2.2452
   53DOPE   C39 6809   5.571   6.478  13.876 -0.0537 -0.4550  0.0862
   53DOPE   H9X 6810   5.617   6.378  13.874 -0.6940 -0.7576 -0.2773
   53DOPE  C310 6811   5.536   6.523  13.993  0.9004 -0.0845 -0.5203
   53DOPE  H10X 6812   5.561   6.461  14.080  0.7915  2.7005  1.6246
   53DOPE  C311 6813   5.485   6.657  14.043 -0.7966 -0.3346  0.2786
   53DOPE  H11X 6814   5.405   6.689  13.974  0.3711 -2.3548 -2.2022
   53DOPE  H11Y 6815   5.451   6.644  14.148  0.9163 -2.3828  0.6643
   53DOPE  C312 6816   5.596   6.767  14.044  0.5792  0.0945 -0.5580
   53DOPE  H12X 6817   5.640   6.795  13.946  3.4977 -3.4459 -0.4692
   53DOPE  H12Y 6818   5.686   6.731  14.098  1.4852  2.2591 -0.5199
   53DOPE  C313 6819   5.552   6.897  14.119 -0.2599 -0.3771 -0.0375
   53DOPE  H13X 6820   5.448   6.921  14.089  0.4590  1.1019 -1.4937
   53DOPE  H13Y 6821   5.549   6.874  14.228 -0.5940  1.4784  0.3821
   53DOPE  C314 6822   5.646   7.018  14.098  0.2202  0.0260  0.4508
   53DOPE  H14X 6823   5.638   7.064  13.997  1.0562 -2.1395 -0.6634
   53DOPE  H14Y 6824   5.754   6.995  14.113  0.1077 -0.4520  0.5245
   53DOPE  C315 6825   5.625   7.137  14.195  0.8007 -0.3338  0.4518
   53DOPE  H15X 6826   5.647   7.106  14.300  1.1241 -0.6310  0.3006
   53DOPE  H15Y 6827   5.525   7.183  14.183  0.2533 -1.9225 -1.5603
   53DOPE  C316 6828   5.714   7.260  14.165 -0.4874  0.2864 -0.2235
   53DOPE  H16X 6829   5.713   7.255  14.054  1.2275  1.2673 -0.3257
   53DOPE  H16Y 6830   5.814   7.234  14.207 -0.4355  0.8663  0.0284
   53DOPE  C317 6831   5.664   7.391  14.220 -0.1034 -0.2014 -0.1423
   53DOPE  H17X 6832   5.563   7.410  14.179  0.7264  1.6024 -1.5035
   53DOPE  H17Y 6833   5.660   7.367  14.328  2.5074 -2.9996 -0.5241
   53DOPE  C318 6834   5.755   7.506  14.177  0.5412 -0.0960 -0.1467
   53DOPE  H18X 6835   5.861   7.494  14.208  0.7739 -0.2782 -0.9747
   53DOPE  H18Y 6836   5.748   7.514  14.066 -0.1733 -1.7842 -0.2553
   53DOPE  H18Z 6837   5.724   7.608  14.207  2.0573  0.2651  0.2711
   54DOPE     N 6838   7.233   5.220  12.687  0.6387 -0.2380  0.1766
   54DOPE   HN1 6839   7.261   5.144  12.753  1.1854  1.2377  1.7144
   54DOPE   HN2 6840   7.293   5.304  12.700  0.2853 -0.0968  0.9953
   54DOPE   HN3 6841   7.134   5.245  12.705 -0.1203 -2.2168 -0.9158
   54DOPE   C12 6842   7.246   5.178  12.546 -0.1754 -0.0869 -0.0722
   54DOPE  H12A 6843   7.346   5.133  12.527 -1.6734 -3.4400 -0.6859
   54DOPE  H12B 6844   7.235   5.271  12.487 -2.1562  0.5430  1.1887
   54DOPE   C11 6845   7.157   5.059  12.498 -0.3530  0.1464 -0.6290
   54DOPE  H11A 6846   7.196   5.039  12.395  0.0377 -0.5739 -0.3457
   54DOPE  H11B 6847   7.052   5.095  12.495  0.0026  1.3194  0.3068
   54DOPE     P 6848   7.081   4.820  12.579  0.2530 -0.5172  0.1100
   54DOPE   O13 6849   7.127   4.726  12.685 -0.4480 -0.3704 -0.2001
   54DOPE   O14 6850   7.065   4.772  12.442 -0.7247  0.4169  0.6965
   54DOPE   O11 6851   6.942   4.883  12.614 -0.0498 -0.3473  0.2563
   54DOPE   O12 6852   7.178   4.940  12.572 -0.2643 -0.1738 -0.1053
   54DOPE    C1 6853   6.929   4.966  12.725  0.0591 -0.1787 -0.3293
   54DOPE    HA 6854   6.837   5.023  12.699 -0.5323 -1.0139 -0.1087
   54DOPE    HB 6855   7.013   5.035  12.750 -0.0512  0.7074 -2.2429
   54DOPE    C2 6856   6.914   4.895  12.855  0.5340  0.6467  0.2451
   54DOPE    HS 6857   7.012   4.851  12.883  0.1888 -0.2847  0.0534
   54DOPE   O21 6858   6.801   4.796  12.847 -0.0609 -0.2438  0.2302
   54DOPE   C21 6859   6.813   4.684  12.920  0.0718  0.1307  0.4615
   54DOPE   O22 6860   6.918   4.651  12.981  0.1381  0.2466  0.1006
   54DOPE   C22 6861   6.693   4.604  12.927 -0.2216 -0.2724  0.5711
   54DOPE   H2R 6862   6.724   4.508  12.880 -0.1253  0.1745 -0.3069
   54DOPE   H2S 6863   6.612   4.640  12.859 -0.7120 -0.6964  0.9260
   54DOPE    C3 6864   6.886   5.001  12.971  0.1315 -0.1493  0.2309
   54DOPE    HX 6865   6.787   5.050  12.954  0.2602 -0.1337 -0.5021
   54DOPE    HY 6866   6.953   5.089  12.967 -3.5607  2.8990 -2.0616
   54DOPE   O31 6867   6.885   4.940  13.099 -0.2966  0.4550  0.0513
   54DOPE   C31 6868   7.002   4.915  13.156  0.5199  0.2280  0.5292
   54DOPE   O32 6869   7.106   4.941  13.098  0.1071 -0.0298 -0.4846
   54DOPE   C32 6870   6.980   4.851  13.298 -0.2518  0.0833  0.0894
   54DOPE   H2X 6871   6.978   4.938  13.367 -2.0347  0.5844 -0.5712
   54DOPE   H2Y 6872   6.886   4.793  13.305  1.0248 -1.9324  2.3638
   54DOPE   C23 6873   6.648   4.575  13.072 -0.6820  0.2080  0.0583
   54DOPE   H3R 6874   6.735   4.523  13.116 -0.9383  0.9650  1.4991
   54DOPE   H3S 6875   6.558   4.510  13.065  0.0715 -0.9681  0.8216
   54DOPE   C24 6876   6.605   4.696  13.150 -0.3107  0.3723  0.2007
   54DOPE   H4R 6877   6.507   4.725  13.104 -0.9624  1.4300  2.1270
   54DOPE   H4S 6878   6.678   4.776  13.127  0.9141 -0.7095  0.2647
   54DOPE   C25 6879   6.572   4.664  13.295  0.1167 -0.2628 -0.3660
   54DOPE   H5R 6880   6.663   4.634  13.351 -1.6193 -1.4314  2.0576
   54DOPE   H5S 6881   6.494   4.584  13.302  1.2354 -1.3002  0.9646
   54DOPE   C26 6882   6.519   4.782  13.371  0.4889 -0.3853 -0.6203
   54DOPE   H6R 6883   6.416   4.813  13.346  0.0175  0.1510  1.7170
   54DOPE   H6S 6884   6.579   4.875  13.367 -0.1144  0.1214  1.0653
   54DOPE   C27 6885   6.496   4.756  13.521  0.3534 -0.2444 -0.8174
   54DOPE   H7R 6886   6.439   4.661  13.532  0.6207 -0.2234  1.0462
   54DOPE   H7S 6887   6.433   4.822  13.585 -0.8484 -1.4430 -0.7036
   54DOPE   C28 6888   6.624   4.733  13.597  0.2311 -0.6725  0.1992
   54DOPE   H8R 6889   6.693   4.818  13.578  0.0826 -0.5870  0.0487
   54DOPE   H8S 6890   6.677   4.642  13.561 -0.0263 -1.3998  1.5596
   54DOPE   C29 6891   6.593   4.719  13.750 -0.2037 -0.3609  1.1454
   54DOPE   H9R 6892   6.537   4.631  13.785 -1.8490  0.3673  0.4931
   54DOPE  C210 6893   6.632   4.810  13.842  0.5427  0.4987 -0.3680
   54DOPE  H10R 6894   6.604   4.797  13.948  0.5662  0.8004 -0.3241
   54DOPE  C211 6895   6.698   4.944  13.831 -0.6496 -0.3300  0.4442
   54DOPE  H11R 6896   6.702   4.961  13.721  0.5699  1.5026  0.7236
   54DOPE  H11S 6897   6.804   4.937  13.863  1.1017  1.2261 -4.2089
   54DOPE  C212 6898   6.626   5.067  13.883  0.6077 -0.7655 -0.0630
   54DOPE  H12R 6899   6.688   5.157  13.861  0.6736 -1.4992 -3.5041
   54DOPE  H12S 6900   6.612   5.050  13.992 -1.4455 -1.5469 -0.3924
   54DOPE  C213 6901   6.486   5.083  13.827  0.2584 -0.5826  0.4587
   54DOPE  H13R 6902   6.428   4.988  13.827 -1.7056  0.5709  0.0570
   54DOPE  H13S 6903   6.490   5.114  13.720 -0.8539 -0.5088  0.4261
   54DOPE  C214 6904   6.407   5.184  13.905  0.6161  0.0555  0.5209
   54DOPE  H14R 6905   6.454   5.285  13.899 -0.6013  0.6428  0.5146
   54DOPE  H14S 6906   6.418   5.151  14.010  0.4827 -0.7393  0.2929
   54DOPE  C215 6907   6.258   5.190  13.868 -0.0835 -0.2971  0.2703
   54DOPE  H15R 6908   6.221   5.088  13.845 -1.5075  0.7038 -2.2349
   54DOPE  H15S 6909   6.236   5.240  13.772 -3.2024 -1.1266  0.4414
   54DOPE  C216 6910   6.178   5.245  13.984  1.2515 -0.2129 -0.1055
   54DOPE  H16R 6911   6.195   5.355  13.994 -1.5746  0.3145 -0.3301
   54DOPE  H16S 6912   6.207   5.192  14.077 -4.0315 -3.6426 -0.0063
   54DOPE  C217 6913   6.028   5.227  13.991 -0.4700  0.1968 -0.0301
   54DOPE  H17R 6914   6.008   5.120  14.011  0.6382  0.1857  1.1431
   54DOPE  H17S 6915   5.979   5.247  13.893  2.0722 -0.0223 -1.4453
   54DOPE  C218 6916   5.966   5.295  14.112 -0.5061  0.3771 -0.2889
   54DOPE  H18R 6917   5.865   5.251  14.128  0.3270 -1.4741  0.2329
   54DOPE  H18S 6918   5.964   5.404  14.091 -0.1897  0.4645  0.1317
   54DOPE  H18T 6919   6.020   5.284  14.208 -0.0557  2.3554 -0.2784
   54DOPE   C33 6920   7.097   4.751  13.325 -0.2604 -0.3844  0.7002
   54DOPE   H3X 6921   7.107   4.688  13.234  0.8504 -2.2143  2.0100
   54DOPE   H3Y 6922   7.062   4.688  13.411  2.2831  0.1049  2.2061
   54DOPE   C34 6923   7.225   4.829  13.364  0.0874  0.0933  0.1199
   54DOPE   H4X 6924   7.310   4.774  13.318  0.5254  0.4067  0.5408
   54DOPE   H4Y 6925   7.223   4.934  13.326 -0.6543  0.5562  1.3772
   54DOPE   C35 6926   7.257   4.839  13.519 -0.2663 -0.5701  0.2176
   54DOPE   H5X 6927   7.323   4.754  13.548  0.8789  0.5123  0.8598
   54DOPE   H5Y 6928   7.162   4.828  13.576 -0.4062  1.2734  0.4022
   54DOPE   C36 6929   7.328   4.973  13.548  0.5586  0.4103  0.1644
   54DOPE   H6X 6930   7.266   5.060  13.517  2.1855  1.1817 -1.0779
   54DOPE   H6Y 6931   7.410   4.966  13.474 -0.5928  0.0280 -1.1275
   54DOPE   C37 6932   7.373   4.987  13.694  0.8887 -0.0844 -0.4711
   54DOPE   H7X 6933   7.278   4.986  13.753  1.3714  3.2027  0.6008
   54DOPE   H7Y 6934   7.432   4.897  13.721 -0.5519 -1.7070 -2.3840
   54DOPE   C38 6935   7.428   5.125  13.724  0.1658  0.8371 -0.1871
   54DOPE   H8X 6936   7.352   5.199  13.690 -2.5627 -2.4944 -1.9124
   54DOPE   H8Y 6937   7.520   5.147  13.666 -0.1940 -1.0027 -1.5516
   54DOPE   C39 6938   7.449   5.133  13.879 -0.4353 -0.2849  0.1001
   54DOPE   H9X 6939   7.368   5.182  13.935 -0.2000  0.6074 -0.3207
   54DOPE  C310 6940   7.562   5.105  13.950 -0.2310 -0.3779 -0.3150
   54DOPE  H10X 6941   7.557   5.109  14.060  2.3746 -2.6475 -0.0104
   54DOPE  C311 6942   7.700   5.067  13.900 -0.5412 -0.8352 -0.5383
   54DOPE  H11X 6943   7.688   4.976  13.836  0.2197 -0.4632 -1.2315
   54DOPE  H11Y 6944   7.734   5.145  13.829 -2.6651 -1.8957 -2.9178
   54DOPE  C312 6945   7.808   5.044  14.004 -0.3270  0.1466  0.4437
   54DOPE  H12X 6946   7.892   4.998  13.947 -1.4221  0.5054 -1.5414
   54DOPE  H12Y 6947   7.775   4.964  14.074  0.0425 -1.4876 -1.1609
   54DOPE  C313 6948   7.858   5.168  14.085 -0.8136  0.2217 -0.1138
   54DOPE  H13X 6949   7.780   5.215  14.148  1.9037  1.6464  2.4153
   54DOPE  H13Y 6950   7.931   5.130  14.159 -1.9984  0.0772  1.0198
   54DOPE  C314 6951   7.925   5.268  13.988  0.3836  0.1603  0.4535
   54DOPE  H14X 6952   7.854   5.318  13.918 -0.1352 -0.5382  0.4683
   54DOPE  H14Y 6953   8.006   5.212  13.937  2.6203  2.9962  0.6548
   54DOPE  C315 6954   7.993   5.388  14.073  0.3859  0.6591 -0.4335
   54DOPE  H15X 6955   8.064   5.350  14.150 -1.8940 -1.8304  0.6248
   54DOPE  H15Y 6956   7.918   5.408  14.153 -1.1812 -2.7026 -0.8683
   54DOPE  C316 6957   8.034   5.517  13.999  0.8407  0.4917  0.0031
   54DOPE  H16X 6958   8.081   5.581  14.077 -1.0152 -0.4473  2.0040
   54DOPE  H16Y 6959   7.942   5.571  13.966  0.8217 -0.6776 -2.0318
   54DOPE  C317 6960   8.130   5.505  13.881 -0.1150  0.4802 -0.2834
   54DOPE  H17X 6961   8.209   5.432  13.909 -0.9619 -0.7748 -1.0487
   54DOPE  H17Y 6962   8.079   5.451  13.798 -0.1899  1.7630 -1.1025
   54DOPE  C318 6963   8.197   5.636  13.850 -0.2279 -0.3774  0.4553
   54DOPE  H18X 6964   8.293   5.624  13.795 -1.1209  1.1700 -1.5714
   54DOPE  H18Y 6965   8.134   5.687  13.774  0.2836 -0.1415  0.1834
   54DOPE  H18Z 6966   8.231   5.696  13.938 -0.9537  2.0604 -0.8186
   55DOPE     N 6967   0.680   0.125  12.379  0.0469  0.2526 -0.0073
   55DOPE   HN1 6968   0.733   0.055  12.324 -1.4924 -0.6899 -0.3567
   55DOPE   HN2 6969   0.585   0.086  12.396 -0.6585  1.6459 -0.5964
   55DOPE   HN3 6970   0.665   0.200  12.309 -0.9872 -2.0292 -2.4314
   55DOPE   C12 6971   0.728   0.163  12.515  0.6547 -0.0049  0.2340
   55DOPE  H12A 6972   0.676   0.256  12.545  0.1190  0.2786 -1.4717
   55DOPE  H12B 6973   0.835   0.193  12.517  0.3686  1.2162 -0.8996
   55DOPE   C11 6974   0.695   0.058  12.619 -0.3310  0.0750 -0.0625
   55DOPE  H11A 6975   0.698   0.107  12.719 -1.5247  1.1466 -0.5233
   55DOPE  H11B 6976   0.785  -0.006  12.607  0.8190  1.7429 -0.6577
   55DOPE     P 6977   0.571  -0.161  12.624 -0.2488 -0.6186  0.0451
   55DOPE   O13 6978   0.625  -0.225  12.502 -0.5397 -0.1597  0.1846
   55DOPE   O14 6979   0.434  -0.196  12.666  0.5079  0.0849 -0.0148
   55DOPE   O11 6980   0.668  -0.198  12.740 -0.2723  0.0760 -0.2037
   55DOPE   O12 6981   0.576  -0.007  12.593 -0.0842  0.0073  0.1154
   55DOPE    C1 6982   0.617  -0.244  12.867 -0.0128 -0.1411 -0.7883
   55DOPE    HA 6983   0.616  -0.355  12.868  0.0603 -0.1719  1.4937
   55DOPE    HB 6984   0.507  -0.243  12.881 -0.0637 -3.8671  0.0868
   55DOPE    C2 6985   0.695  -0.185  12.984  0.2077 -0.3954  0.4940
   55DOPE    HS 6986   0.658  -0.231  13.078 -0.9532 -2.4570 -0.8979
   55DOPE   O21 6987   0.677  -0.039  12.989 -0.0358  0.5697  0.2555
   55DOPE   C21 6988   0.562  -0.002  13.036  0.0293 -0.5047  0.8390
   55DOPE   O22 6989   0.469  -0.075  13.069 -0.4033 -0.7235 -0.1372
   55DOPE   C22 6990   0.546   0.146  13.029 -0.2758  0.5525 -0.4487
   55DOPE   H2R 6991   0.444   0.174  13.063  0.2442  2.3150 -0.2318
   55DOPE   H2S 6992   0.542   0.168  12.920  1.3627  2.2014 -0.2180
   55DOPE    C3 6993   0.841  -0.222  12.975  0.4824  0.6778  0.5074
   55DOPE    HX 6994   0.899  -0.165  12.899  1.6255 -1.4411 -0.2853
   55DOPE    HY 6995   0.848  -0.324  12.931 -1.6354  0.0427  1.4866
   55DOPE   O31 6996   0.903  -0.211  13.103  0.0864 -0.3927 -0.4344
   55DOPE   C31 6997   0.904  -0.313  13.177 -0.2635  0.3090  0.3880
   55DOPE   O32 6998   0.840  -0.419  13.169  0.3443  0.1252 -0.6191
   55DOPE   C32 6999   1.013  -0.294  13.286  0.4297 -0.4292 -0.0531
   55DOPE   H2X 7000   1.098  -0.257  13.225 -2.0093  0.4626 -3.1998
   55DOPE   H2Y 7001   0.975  -0.207  13.343  0.3429 -0.4059 -0.1443
   55DOPE   C23 7002   0.662   0.232  13.078 -0.2473 -0.0265 -0.1236
   55DOPE   H3R 7003   0.646   0.333  13.033 -1.1089 -0.4957 -0.8948
   55DOPE   H3S 7004   0.762   0.197  13.047 -0.3417 -0.6470  0.2583
   55DOPE   C24 7005   0.677   0.243  13.228  0.0493  0.7441 -0.4570
   55DOPE   H4R 7006   0.572   0.257  13.261 -0.2948 -0.3685 -1.0139
   55DOPE   H4S 7007   0.740   0.332  13.252  1.8130 -0.8787  1.2369
   55DOPE   C25 7008   0.748   0.115  13.284  0.1420  0.3003  0.2024
   55DOPE   H5R 7009   0.835   0.092  13.219  0.4376 -1.2914  1.1153
   55DOPE   H5S 7010   0.671   0.035  13.282  0.3683  0.0582  1.0518
   55DOPE   C26 7011   0.807   0.133  13.423 -0.0082 -0.3016 -0.0991
   55DOPE   H6R 7012   0.728   0.157  13.497 -0.6350 -0.5453 -0.6714
   55DOPE   H6S 7013   0.884   0.213  13.415 -0.2002 -0.3143 -4.7409
   55DOPE   C27 7014   0.880   0.010  13.475  0.3546  0.2553 -1.1857
   55DOPE   H7R 7015   0.940  -0.024  13.388 -0.8816  2.8582 -3.2036
   55DOPE   H7S 7016   0.800  -0.067  13.484  0.6903 -0.0579 -0.8119
   55DOPE   C28 7017   0.964   0.031  13.605  0.0056  0.1378  0.3687
   55DOPE   H8R 7018   0.895   0.058  13.688  0.5943 -2.1097  1.6504
   55DOPE   H8S 7019   1.024   0.123  13.585  2.4384 -1.5432 -0.4583
   55DOPE   C29 7020   1.043  -0.086  13.660  0.1781  0.3424  0.0072
   55DOPE   H9R 7021   0.984  -0.177  13.679 -2.0600  1.9818  1.3649
   55DOPE  C210 7022   1.178  -0.087  13.678  1.0557  0.0443  0.1071
   55DOPE  H10R 7023   1.224  -0.179  13.719 -0.0373 -1.4926 -1.9292
   55DOPE  C211 7024   1.278   0.017  13.645  0.6088 -0.3420  0.2393
   55DOPE  H11R 7025   1.338   0.030  13.738  1.8126 -2.8519 -0.1064
   55DOPE  H11S 7026   1.235   0.116  13.620  1.9815 -0.0399 -1.0552
   55DOPE  C212 7027   1.378  -0.018  13.531 -0.0038  0.8851  0.1507
   55DOPE  H12R 7028   1.421   0.080  13.500 -0.1451  1.7991  2.6238
   55DOPE  H12S 7029   1.310  -0.049  13.449 -0.1235  0.7587  0.2965
   55DOPE  C213 7030   1.469  -0.140  13.564  0.0716  0.4803  0.2800
   55DOPE  H13R 7031   1.519  -0.154  13.466 -0.4066 -1.5649  0.2805
   55DOPE  H13S 7032   1.411  -0.235  13.570 -1.2605  1.2626  0.1934
   55DOPE  C214 7033   1.561  -0.125  13.677 -0.0142 -0.1820  0.4043
   55DOPE  H14R 7034   1.573  -0.016  13.694  0.4835 -0.3495  1.1807
   55DOPE  H14S 7035   1.657  -0.172  13.645 -0.3451 -1.4097  1.1495
   55DOPE  C215 7036   1.530  -0.195  13.809  0.5223 -0.2080  0.2875
   55DOPE  H15R 7037   1.435  -0.146  13.840 -0.3880 -0.4388 -1.9165
   55DOPE  H15S 7038   1.609  -0.183  13.886  0.5203 -1.2478  0.4687
   55DOPE  C216 7039   1.494  -0.348  13.808  0.2790  0.2744  0.8618
   55DOPE  H16R 7040   1.569  -0.405  13.750 -0.0079  0.0423  0.7141
   55DOPE  H16S 7041   1.399  -0.363  13.752  2.1866 -0.9609 -2.2610
   55DOPE  C217 7042   1.509  -0.418  13.937 -0.2534 -0.0228 -0.9693
   55DOPE  H17R 7043   1.616  -0.415  13.966 -0.6731  1.7822  0.6315
   55DOPE  H17S 7044   1.473  -0.523  13.936  3.5021 -1.5388  1.1686
   55DOPE  C218 7045   1.427  -0.350  14.046 -0.7648  0.4244 -0.4643
   55DOPE  H18R 7046   1.463  -0.246  14.057 -0.9869  0.6236 -1.4683
   55DOPE  H18S 7047   1.433  -0.399  14.145  0.8851  2.6775  0.6231
   55DOPE  H18T 7048   1.321  -0.341  14.014 -0.5865  2.6892 -0.6028
   55DOPE   C33 7049   1.049  -0.421  13.367 -0.1756 -0.2787 -0.1522
   55DOPE   H3X 7050   1.044  -0.511  13.302  1.4276 -1.9290  1.8512
   55DOPE   H3Y 7051   0.974  -0.427  13.448  0.7594  1.1312  0.8549
   55DOPE   C34 7052   1.192  -0.407  13.414  0.1478 -0.4576  0.0232
   55DOPE   H4X 7053   1.258  -0.382  13.328  2.4442 -1.4284  1.4270
   55DOPE   H4Y 7054   1.193  -0.315  13.476 -1.1059  0.0599 -0.6746
   55DOPE   C35 7055   1.250  -0.519  13.497 -0.2682  0.2371  0.5371
   55DOPE   H5X 7056   1.359  -0.497  13.493 -0.2476  0.0318 -0.2514
   55DOPE   H5Y 7057   1.243  -0.616  13.444  0.4280  1.6685 -2.4257
   55DOPE   C36 7058   1.188  -0.539  13.645  0.1270  0.0010 -0.4593
   55DOPE   H6X 7059   1.078  -0.557  13.642  0.2276 -0.6935 -0.1694
   55DOPE   H6Y 7060   1.196  -0.442  13.700  0.0704 -0.5168  0.4943
   55DOPE   C37 7061   1.257  -0.641  13.738  0.7550  0.4811  0.0031
   55DOPE   H7X 7062   1.367  -0.635  13.751  0.5291  0.7523  2.2516
   55DOPE   H7Y 7063   1.224  -0.613  13.841  2.4971 -2.0531  1.3654
   55DOPE   C38 7064   1.215  -0.793  13.713  0.0118 -0.2041 -0.2303
   55DOPE   H8X 7065   1.115  -0.800  13.664  0.1965 -1.9504 -0.4106
   55DOPE   H8Y 7066   1.199  -0.841  13.812 -0.5401  1.0656  0.3193
   55DOPE   C39 7067   1.320  -0.870  13.635  0.1885  0.1307  0.2136
   55DOPE   H9X 7068   1.316  -0.861  13.525 -0.4086  1.1016  0.3031
   55DOPE  C310 7069   1.419  -0.937  13.688 -0.4366 -0.2806  0.3052
   55DOPE  H10X 7070   1.481  -0.992  13.615  1.7313  1.6688  0.5572
   55DOPE  C311 7071   1.466  -0.946  13.827  0.2376 -0.2804  0.4122
   55DOPE  H11X 7072   1.395  -0.899  13.898 -0.8485 -0.7633 -0.3340
   55DOPE  H11Y 7073   1.492  -1.050  13.857  0.5671 -0.0896  0.8051
   55DOPE  C312 7074   1.595  -0.862  13.848 -0.2052  0.0320  0.1040
   55DOPE  H12X 7075   1.559  -0.759  13.830  0.3641  0.1836 -0.1875
   55DOPE  H12Y 7076   1.677  -0.889  13.778 -0.5788 -0.3436 -0.1917
   55DOPE  C313 7077   1.640  -0.873  13.994  0.2982  0.2669  0.3052
   55DOPE  H13X 7078   1.546  -0.843  14.047 -0.9140 -2.7560  0.0424
   55DOPE  H13Y 7079   1.673  -0.975  14.022  0.2171  0.3357  0.6593
   55DOPE  C314 7080   1.754  -0.782  14.022 -0.7442  0.4868 -1.0342
   55DOPE  H14X 7081   1.723  -0.683  13.981 -1.7094  1.0107  0.8638
   55DOPE  H14Y 7082   1.845  -0.815  13.967  1.3424  0.0149  2.3605
   55DOPE  C315 7083   1.812  -0.779  14.166 -0.5883  0.3149  0.5223
   55DOPE  H15X 7084   1.843  -0.883  14.189  0.2741  0.6682  1.0115
   55DOPE  H15Y 7085   1.727  -0.752  14.232 -1.1886 -0.9943  0.3017
   55DOPE  C316 7086   1.933  -0.680  14.194 -0.1163 -0.0009 -0.4562
   55DOPE  H16X 7087   1.958  -0.688  14.302 -1.0501 -0.5836 -0.2675
   55DOPE  H16Y 7088   1.902  -0.574  14.181  1.9929  1.0959  2.4147
   55DOPE  C317 7089   2.051  -0.719  14.115 -0.7899  0.5443 -0.1525
   55DOPE  H17X 7090   2.069  -0.826  14.138 -2.8473 -1.0042 -4.5580
   55DOPE  H17Y 7091   2.028  -0.715  14.006 -2.1589 -0.0573  0.0896
   55DOPE  C318 7092   2.169  -0.625  14.134 -1.0249 -0.4523  0.4416
   55DOPE  H18X 7093   2.141  -0.518  14.139  2.1168  0.4010  4.3694
   55DOPE  H18Y 7094   2.220  -0.640  14.231  0.6129 -0.6777 -0.4201
   55DOPE  H18Z 7095   2.247  -0.644  14.057 -1.2047  0.1449  0.1126
   56DOPE     N 7096   1.121   1.222  12.602  0.3052 -0.1924  0.9699
   56DOPE   HN1 7097   1.033   1.274  12.623  1.1553  2.0502 -0.6500
   56DOPE   HN2 7098   1.185   1.293  12.560  1.5512 -2.1108 -0.5616
   56DOPE   HN3 7099   1.109   1.162  12.517 -0.6945  1.6924 -0.2982
   56DOPE   C12 7100   1.174   1.140  12.721 -0.5264 -0.4211  0.1598
   56DOPE  H12A 7101   1.208   1.211  12.799  0.7517  0.8433 -1.4608
   56DOPE  H12B 7102   1.260   1.079  12.686 -1.3600 -1.4839 -0.0851
   56DOPE   C11 7103   1.059   1.044  12.771  0.3811  0.5441 -0.4466
   56DOPE  H11A 7104   0.967   1.105  12.791  1.1132  1.5377  0.0234
   56DOPE  H11B 7105   1.089   1.001  12.869  1.0389  2.3097  0.1661
   56DOPE     P 7106   1.099   0.823  12.639  0.0290 -0.5200 -0.1458
   56DOPE   O13 7107   1.147   0.840  12.500 -0.3953  0.1645 -0.2940
   56DOPE   O14 7108   1.002   0.713  12.669 -0.6503 -0.1657  0.1693
   56DOPE   O11 7109   1.220   0.808  12.738  0.1360 -0.4931 -0.2601
   56DOPE   O12 7110   1.026   0.953  12.672  0.3373  0.1674  0.0720
   56DOPE    C1 7111   1.239   0.689  12.815 -0.2298  0.4172  0.3144
   56DOPE    HA 7112   1.335   0.642  12.785 -0.6809 -1.1566  1.2342
   56DOPE    HB 7113   1.170   0.606  12.791  1.1901 -0.0942 -2.2791
   56DOPE    C2 7114   1.257   0.707  12.970 -0.6013  0.4679 -0.2624
   56DOPE    HS 7115   1.272   0.610  13.023  0.7320  1.0459  0.4892
   56DOPE   O21 7116   1.141   0.780  13.018 -0.0519 -0.7860  1.0721
   56DOPE   C21 7117   1.025   0.713  13.012  0.7079  0.2469  0.1843
   56DOPE   O22 7118   1.017   0.590  12.996  0.1177  0.1192  0.5120
   56DOPE   C22 7119   0.908   0.817  13.008  0.0665 -0.0529  0.7182
   56DOPE   H2R 7120   0.888   0.840  12.901  1.4676  3.2597  1.0411
   56DOPE   H2S 7121   0.932   0.913  13.059  0.1432  0.2672  0.0900
   56DOPE    C3 7122   1.381   0.791  12.985 -0.3333 -0.3420 -0.8396
   56DOPE    HX 7123   1.367   0.886  12.930 -1.6987 -0.3305 -0.5015
   56DOPE    HY 7124   1.460   0.728  12.939 -2.0078 -1.9060 -1.7221
   56DOPE   O31 7125   1.423   0.823  13.120 -0.1459 -0.1936 -0.3635
   56DOPE   C31 7126   1.414   0.948  13.161  0.5988 -0.3137  0.0632
   56DOPE   O32 7127   1.371   1.038  13.083 -0.1414  0.8229  0.1084
   56DOPE   C32 7128   1.437   0.969  13.311 -0.0221 -0.3881 -0.7077
   56DOPE   H2X 7129   1.514   0.899  13.349 -1.4534  0.2509  3.9318
   56DOPE   H2Y 7130   1.474   1.073  13.321 -1.2214 -0.0509  0.5854
   56DOPE   C23 7131   0.784   0.747  13.078  0.5092  0.2169 -0.4732
   56DOPE   H3R 7132   0.762   0.651  13.029  0.8682 -0.8857  1.4174
   56DOPE   H3S 7133   0.696   0.815  13.074  0.3032 -0.0255 -0.1207
   56DOPE   C24 7134   0.802   0.716  13.226 -0.2160  0.3555 -0.1618
   56DOPE   H4R 7135   0.825   0.808  13.283  1.1635 -0.3968  0.5508
   56DOPE   H4S 7136   0.884   0.643  13.244  0.2705  0.2871 -2.3927
   56DOPE   C25 7137   0.665   0.670  13.277  0.0304 -0.5808  0.2414
   56DOPE   H5R 7138   0.609   0.589  13.225 -1.1381 -0.3461  1.0938
   56DOPE   H5S 7139   0.606   0.763  13.268  0.2936 -0.3956  0.4302
   56DOPE   C26 7140   0.672   0.627  13.428  0.3198 -0.3533 -0.5889
   56DOPE   H6R 7141   0.684   0.722  13.484  0.4817 -2.1652  2.7496
   56DOPE   H6S 7142   0.759   0.559  13.444 -0.6407 -1.1945  1.4488
   56DOPE   C27 7143   0.544   0.563  13.483  0.0731  0.0300 -0.0749
   56DOPE   H7R 7144   0.500   0.508  13.397 -2.6695 -1.9856  2.4102
   56DOPE   H7S 7145   0.475   0.649  13.492 -1.0910 -0.6125 -2.2373
   56DOPE   C28 7146   0.566   0.457  13.590 -0.6242 -0.6964  0.1351
   56DOPE   H8R 7147   0.636   0.491  13.669  0.9122 -0.5692 -1.2237
   56DOPE   H8S 7148   0.594   0.362  13.539 -0.5241  0.4294 -2.0230
   56DOPE   C29 7149   0.438   0.448  13.664 -0.2342 -0.0576 -0.4636
   56DOPE   H9R 7150   0.430   0.509  13.755 -0.3713 -0.8463  0.0609
   56DOPE  C210 7151   0.343   0.357  13.634 -0.1956 -0.0821  0.6267
   56DOPE  H10R 7152   0.250   0.358  13.692 -1.0303  2.0200 -0.6238
   56DOPE  C211 7153   0.341   0.258  13.528 -0.1417  0.2809 -0.0605
   56DOPE  H11R 7154   0.409   0.293  13.447  1.6520  0.0570  1.2823
   56DOPE  H11S 7155   0.244   0.251  13.474  0.4461  0.0204 -1.1288
   56DOPE  C212 7156   0.390   0.125  13.586  0.7093 -0.0800 -0.4083
   56DOPE  H12R 7157   0.343   0.102  13.684 -1.0504 -0.9342 -1.4014
   56DOPE  H12S 7158   0.496   0.128  13.616  1.0889 -1.0961 -1.5844
   56DOPE  C213 7159   0.374   0.003  13.500  0.0077 -0.2720 -0.3021
   56DOPE  H13R 7160   0.369  -0.084  13.569 -0.3977  0.4271  0.5688
   56DOPE  H13S 7161   0.459  -0.004  13.429  0.0993 -0.3401 -0.1876
   56DOPE  C214 7162   0.242   0.013  13.426  0.9321  0.5600  0.4061
   56DOPE  H14R 7163   0.246   0.082  13.340 -3.0170  1.8625  1.0227
   56DOPE  H14S 7164   0.159   0.053  13.488 -1.4543  0.5052 -2.5499
   56DOPE  C215 7165   0.201  -0.131  13.381 -0.0391  0.1093 -0.2278
   56DOPE  H15R 7166   0.198  -0.208  13.462 -0.4956 -1.5277 -1.7210
   56DOPE  H15S 7167   0.264  -0.180  13.303 -1.0957 -1.4131 -0.1819
   56DOPE  C216 7168   0.069  -0.132  13.306  0.1428 -0.5678  0.1340
   56DOPE  H16R 7169   0.071  -0.062  13.220  1.3194 -1.0266 -0.2253
   56DOPE  H16S 7170  -0.002  -0.109  13.389 -0.4097 -2.0221  0.0899
   56DOPE  C217 7171   0.028  -0.267  13.255  0.4509  0.1609 -0.2963
   56DOPE  H17R 7172   0.040  -0.344  13.334 -1.0121  0.3496  0.1466
   56DOPE  H17S 7173   0.095  -0.294  13.171  0.1480 -1.0651 -0.1647
   56DOPE  C218 7174  -0.117  -0.292  13.221  0.3479  0.1630  1.7859
   56DOPE  H18R 7175  -0.181  -0.278  13.310  0.9383 -1.4058  2.4980
   56DOPE  H18S 7176  -0.135  -0.397  13.189  1.1257  0.5879 -0.2171
   56DOPE  H18T 7177  -0.160  -0.224  13.144  0.6786 -0.8746  0.6554
   56DOPE   C33 7178   1.305   0.947  13.392  0.4193  0.1943 -0.3921
   56DOPE   H3X 7179   1.283   0.841  13.368 -1.1385  0.5352 -0.5894
   56DOPE   H3Y 7180   1.224   1.019  13.369 -0.0252 -0.2469 -0.2073
   56DOPE   C34 7181   1.336   0.956  13.548  0.9334  0.0590  0.4658
   56DOPE   H4X 7182   1.420   0.886  13.567 -0.2606 -1.7143 -0.4195
   56DOPE   H4Y 7183   1.368   1.059  13.574  1.2910 -0.1210  0.7390
   56DOPE   C35 7184   1.224   0.908  13.637 -0.1877 -0.2559 -0.4332
   56DOPE   H5X 7185   1.235   0.798  13.649 -0.7147 -0.2414  0.2718
   56DOPE   H5Y 7186   1.128   0.924  13.585  0.1116  1.0987 -0.5913
   56DOPE   C36 7187   1.224   0.977  13.768  1.0401  0.0446 -0.0319
   56DOPE   H6X 7188   1.317   0.959  13.827  0.3252  0.2903  1.2156
   56DOPE   H6Y 7189   1.134   0.936  13.819  1.2044 -1.8032 -1.1359
   56DOPE   C37 7190   1.179   1.125  13.771  0.3200  0.0216 -0.4690
   56DOPE   H7X 7191   1.264   1.184  13.729  0.9621 -0.4920  0.0868
   56DOPE   H7Y 7192   1.090   1.142  13.707  0.5293  3.4244 -0.0525
   56DOPE   C38 7193   1.140   1.168  13.915 -0.2412 -0.3366 -0.4326
   56DOPE   H8X 7194   1.234   1.167  13.973  0.4822  2.7428 -1.3637
   56DOPE   H8Y 7195   1.085   1.087  13.968  0.9915 -0.6135  0.4523
   56DOPE   C39 7196   1.070   1.296  13.940  0.5534  0.1108 -0.1706
   56DOPE   H9X 7197   1.065   1.359  13.850 -3.1572  2.7322  1.6199
   56DOPE  C310 7198   0.994   1.338  14.048  0.4067 -0.4349  0.0522
   56DOPE  H10X 7199   0.973   1.446  14.044  0.3991 -0.4774 -2.3024
   56DOPE  C311 7200   0.982   1.270  14.182  0.5055  0.0667 -0.0053
   56DOPE  H11X 7201   1.083   1.233  14.212  0.3487  0.4303  0.9897
   56DOPE  H11Y 7202   0.943   1.338  14.260  3.3216 -0.2218  1.8276
   56DOPE  C312 7203   0.890   1.142  14.184  0.2550  0.1291  0.1142
   56DOPE  H12X 7204   0.884   1.102  14.287 -1.9219  2.7082  1.1207
   56DOPE  H12Y 7205   0.923   1.059  14.118 -0.6899 -0.1000 -0.0961
   56DOPE  C313 7206   0.741   1.170  14.151 -0.1302 -1.2663  0.0372
   56DOPE  H13X 7207   0.717   1.272  14.187 -0.0772 -1.0753 -0.4607
   56DOPE  H13Y 7208   0.733   1.184  14.041 -0.3183 -2.5291 -0.1208
   56DOPE  C314 7209   0.639   1.068  14.198  0.6845  0.6203  0.7507
   56DOPE  H14X 7210   0.676   0.972  14.156  0.2959  1.4946 -1.7037
   56DOPE  H14Y 7211   0.536   1.094  14.165  0.6022  0.6439  1.0206
   56DOPE  C315 7212   0.637   1.053  14.350  0.1990  0.1353  0.0176
   56DOPE  H15X 7213   0.617   1.157  14.382  0.9772  0.7328 -1.3525
   56DOPE  H15Y 7214   0.736   1.031  14.395 -0.7951 -0.3984  2.0685
   56DOPE  C316 7215   0.519   0.973  14.406 -0.6295  0.1609  0.9623
   56DOPE  H16X 7216   0.557   0.868  14.399  1.4318  0.9524 -1.1712
   56DOPE  H16Y 7217   0.433   0.989  14.337 -1.7230 -5.1545  0.5983
   56DOPE  C317 7218   0.470   1.000  14.548 -0.1545  0.0711  1.0677
   56DOPE  H17X 7219   0.459   1.109  14.565 -0.3277  0.3442 -0.5823
   56DOPE  H17Y 7220   0.376   0.942  14.552 -1.1561  0.7497 -4.4410
   56DOPE  C318 7221   0.577   0.951  14.641  0.0017  0.1867  0.1364
   56DOPE  H18X 7222   0.602   0.843  14.629  0.5106  0.3879 -0.6944
   56DOPE  H18Y 7223   0.667   1.013  14.619  0.7581 -0.2511  1.8158
   56DOPE  H18Z 7224   0.543   0.982  14.742  0.8580  0.9666  0.1973
   57DOPE     N 7225   0.105   4.305  12.638  0.0639 -0.3392 -0.0296
   57DOPE   HN1 7226   0.010   4.263  12.638 -0.1955  0.2285  0.5428
   57DOPE   HN2 7227   0.101   4.406  12.612  1.0253 -0.4645 -0.7153
   57DOPE   HN3 7228   0.166   4.258  12.568  0.6609  0.4965 -0.0866
   57DOPE   C12 7229   0.180   4.297  12.767 -0.2802 -0.2375  0.4910
   57DOPE  H12A 7230   0.114   4.337  12.847  0.9951  0.9790  0.9591
   57DOPE  H12B 7231   0.273   4.356  12.759 -0.9414  0.7553 -0.0127
   57DOPE   C11 7232   0.207   4.149  12.798  0.5419  0.2387  0.3053
   57DOPE  H11A 7233   0.273   4.144  12.887  1.0200  1.3507  0.0276
   57DOPE  H11B 7234   0.270   4.107  12.717 -1.3166  0.5596 -1.3617
   57DOPE     P 7235   0.041   3.956  12.722 -0.0396  0.3066  0.0787
   57DOPE   O13 7236   0.072   3.987  12.585  0.1596 -0.0933  0.2047
   57DOPE   O14 7237  -0.100   3.910  12.749 -0.5136  0.4635  0.1187
   57DOPE   O11 7238   0.129   3.838  12.776 -0.0702 -0.0420  0.0814
   57DOPE   O12 7239   0.079   4.080  12.813  0.2858  0.3162  0.8147
   57DOPE    C1 7240   0.119   3.707  12.719 -0.7439  0.4464 -0.1280
   57DOPE    HA 7241   0.131   3.715  12.609  1.6269 -0.3226  0.0108
   57DOPE    HB 7242   0.021   3.659  12.741  0.0020 -1.6607 -1.1135
   57DOPE    C2 7243   0.225   3.612  12.785 -0.6900  0.3186 -0.3746
   57DOPE    HS 7244   0.232   3.515  12.731  0.2328 -1.1508  2.2212
   57DOPE   O21 7245   0.183   3.592  12.922 -0.8225 -0.5844 -0.2797
   57DOPE   C21 7246   0.081   3.509  12.936  0.3184  0.1669  0.8807
   57DOPE   O22 7247   0.044   3.431  12.850  0.8834  0.1707  0.3748
   57DOPE   C22 7248   0.022   3.532  13.074 -0.2332  1.2074 -0.0205
   57DOPE   H2R 7249  -0.033   3.627  13.059 -0.5514  0.9863 -0.2777
   57DOPE   H2S 7250   0.101   3.557  13.148  1.2174 -0.4119 -0.9499
   57DOPE    C3 7251   0.364   3.673  12.774  0.5395 -0.4031 -0.2073
   57DOPE    HX 7252   0.381   3.743  12.859  1.1449  0.3918 -0.9625
   57DOPE    HY 7253   0.362   3.729  12.678  1.1555  0.3552  0.2059
   57DOPE   O31 7254   0.465   3.577  12.776 -0.0384  0.5471 -0.0972
   57DOPE   C31 7255   0.586   3.626  12.747 -1.3274  0.5486 -0.4300
   57DOPE   O32 7256   0.605   3.746  12.727 -0.1406 -0.0123 -0.0506
   57DOPE   C32 7257   0.702   3.528  12.771  0.3650 -0.5811  1.1631
   57DOPE   H2X 7258   0.679   3.485  12.871  2.9198 -2.3561  1.0690
   57DOPE   H2Y 7259   0.692   3.450  12.693 -1.1108 -1.4283  2.1434
   57DOPE   C23 7260  -0.058   3.408  13.118 -0.2199  0.0914  0.1065
   57DOPE   H3R 7261   0.005   3.317  13.119 -1.0130 -0.4713  0.6931
   57DOPE   H3S 7262  -0.139   3.372  13.051 -0.8200 -0.1125  0.9164
   57DOPE   C24 7263  -0.126   3.422  13.255  0.9279 -0.4091 -1.2178
   57DOPE   H4R 7264  -0.044   3.432  13.330  1.8842 -0.8638 -2.1680
   57DOPE   H4S 7265  -0.186   3.335  13.285 -1.1283  0.6193 -2.1645
   57DOPE   C25 7266  -0.224   3.541  13.252 -0.2310  0.0122  0.0633
   57DOPE   H5R 7267  -0.278   3.546  13.156 -1.7881 -1.1689  0.8248
   57DOPE   H5S 7268  -0.160   3.631  13.263 -0.9744  0.4519  0.8747
   57DOPE   C26 7269  -0.325   3.542  13.364  0.1743  0.1695 -0.7547
   57DOPE   H6R 7270  -0.394   3.455  13.369 -0.3286  0.6314  0.7780
   57DOPE   H6S 7271  -0.374   3.641  13.359  1.0111  0.7815  1.9218
   57DOPE   C27 7272  -0.250   3.539  13.495  0.5134  0.2243 -0.0177
   57DOPE   H7R 7273  -0.182   3.627  13.497 -1.5161  1.8809  1.7971
   57DOPE   H7S 7274  -0.188   3.448  13.512  0.7331  0.7393  2.3020
   57DOPE   C28 7275  -0.335   3.551  13.624  0.3350 -0.7954 -0.5155
   57DOPE   H8R 7276  -0.400   3.642  13.616 -0.3295 -1.2945 -0.9746
   57DOPE   H8S 7277  -0.263   3.573  13.705  1.1726 -2.0381 -0.8910
   57DOPE   C29 7278  -0.418   3.430  13.651  0.3321  0.6162  0.0278
   57DOPE   H9R 7279  -0.466   3.380  13.566  2.6400  1.3651 -1.7895
   57DOPE  C210 7280  -0.416   3.363  13.763 -0.4540 -0.7236  0.3334
   57DOPE  H10R 7281  -0.473   3.269  13.770 -1.2806 -0.4548 -2.0525
   57DOPE  C211 7282  -0.326   3.383  13.886 -0.0168 -0.0236  0.0030
   57DOPE  H11R 7283  -0.232   3.440  13.871  1.2938 -1.9639  0.4289
   57DOPE  H11S 7284  -0.287   3.285  13.921  1.3523  0.5265  0.0832
   57DOPE  C212 7285  -0.405   3.460  13.998  0.3578  0.8243  0.0033
   57DOPE  H12R 7286  -0.364   3.446  14.100  0.9955 -0.9499 -0.4565
   57DOPE  H12S 7287  -0.508   3.421  14.007  1.4697 -2.2103  0.7803
   57DOPE  C213 7288  -0.415   3.614  13.974  0.7575 -0.0706 -0.1447
   57DOPE  H13R 7289  -0.507   3.647  14.026  0.9440  1.9262 -0.9963
   57DOPE  H13S 7290  -0.426   3.628  13.864 -0.8026 -3.4383 -0.5372
   57DOPE  C214 7291  -0.285   3.685  14.031  0.1298  0.5838 -0.2268
   57DOPE  H14R 7292  -0.202   3.641  13.974 -0.8178 -0.7500 -0.6319
   57DOPE  H14S 7293  -0.271   3.653  14.137  0.7110 -0.4722 -0.6126
   57DOPE  C215 7294  -0.274   3.839  14.023  0.2188 -0.8015 -0.4969
   57DOPE  H15R 7295  -0.175   3.870  14.064 -0.9299  0.8700  1.1266
   57DOPE  H15S 7296  -0.348   3.880  14.094 -0.0134  0.4371 -1.4119
   57DOPE  C216 7297  -0.298   3.892  13.883  0.8863  0.3345  0.6835
   57DOPE  H16R 7298  -0.406   3.891  13.856  1.0430 -0.4451  0.0168
   57DOPE  H16S 7299  -0.241   3.838  13.804 -1.1739  0.1512 -0.7607
   57DOPE  C217 7300  -0.263   4.045  13.887  0.1801 -0.3664 -0.3004
   57DOPE  H17R 7301  -0.153   4.041  13.907 -0.0311 -1.3281  0.7978
   57DOPE  H17S 7302  -0.318   4.093  13.971 -1.1337 -0.1552 -1.2548
   57DOPE  C218 7303  -0.273   4.133  13.760 -0.2935 -0.0040 -0.1808
   57DOPE  H18R 7304  -0.379   4.155  13.738 -0.5032 -0.9357 -0.1365
   57DOPE  H18S 7305  -0.223   4.092  13.669  1.4534 -0.6458  1.0075
   57DOPE  H18T 7306  -0.215   4.225  13.783  1.2826 -1.1017  0.4566
   57DOPE   C33 7307   0.837   3.599  12.759 -0.1100  0.1797 -0.2153
   57DOPE   H3X 7308   0.834   3.672  12.675  1.1262 -1.0808 -1.4013
   57DOPE   H3Y 7309   0.906   3.523  12.717  0.1617  0.8496 -0.9954
   57DOPE   C34 7310   0.879   3.657  12.890 -0.0550 -0.1027 -0.5326
   57DOPE   H4X 7311   0.813   3.742  12.918  1.3880  1.3629 -1.4227
   57DOPE   H4Y 7312   0.873   3.586  12.975  0.8404 -0.6433 -0.9076
   57DOPE   C35 7313   1.019   3.699  12.882  0.1435  0.2532 -0.2764
   57DOPE   H5X 7314   1.039   3.770  12.799 -0.8773  4.7550  2.9456
   57DOPE   H5Y 7315   1.077   3.605  12.875  2.1863  1.3150  1.1712
   57DOPE   C36 7316   1.079   3.773  13.007  0.1388  0.7988 -0.3174
   57DOPE   H6X 7317   1.050   3.718  13.098  2.7340  1.2097  0.8507
   57DOPE   H6Y 7318   1.025   3.870  13.011 -1.3505  0.0693 -1.5637
   57DOPE   C37 7319   1.227   3.787  12.990  0.3497  0.0501  0.2033
   57DOPE   H7X 7320   1.268   3.685  13.002 -0.8471 -0.6983 -1.6856
   57DOPE   H7Y 7321   1.253   3.822  12.887  0.4620 -0.8335 -0.0789
   57DOPE   C38 7322   1.275   3.878  13.110  0.2597 -0.4725  0.0866
   57DOPE   H8X 7323   1.227   3.832  13.199 -0.8309 -1.8818 -1.1692
   57DOPE   H8Y 7324   1.219   3.974  13.102 -1.1725 -1.3231 -0.5190
   57DOPE   C39 7325   1.423   3.912  13.132  0.3610 -0.6534 -0.2874
   57DOPE   H9X 7326   1.462   4.001  13.081 -0.4519 -0.4537 -0.5846
   57DOPE  C310 7327   1.504   3.864  13.228 -0.0441  0.4226  0.0357
   57DOPE  H10X 7328   1.612   3.885  13.224  0.4420 -1.7392  0.5914
   57DOPE  C311 7329   1.481   3.745  13.322 -0.0294  0.2598  0.0009
   57DOPE  H11X 7330   1.377   3.705  13.323  0.7897 -2.0313 -0.3713
   57DOPE  H11Y 7331   1.555   3.663  13.306  0.3568  0.6666 -0.3359
   57DOPE  C312 7332   1.484   3.821  13.461 -0.6837  0.3107 -0.3452
   57DOPE  H12X 7333   1.388   3.874  13.476 -1.0170 -0.4361  0.2511
   57DOPE  H12Y 7334   1.565   3.897  13.461 -0.6259  0.2736  1.0550
   57DOPE  C313 7335   1.510   3.720  13.579 -0.5098 -0.3878  0.0855
   57DOPE  H13X 7336   1.433   3.641  13.579  0.3483 -1.2497 -0.4665
   57DOPE  H13Y 7337   1.611   3.678  13.558 -0.9251 -0.7463 -1.2274
   57DOPE  C314 7338   1.513   3.792  13.716  0.0862  0.0115  0.2537
   57DOPE  H14X 7339   1.431   3.866  13.705 -0.4342 -0.4348  1.0282
   57DOPE  H14Y 7340   1.600   3.860  13.725 -0.9235  1.4938 -0.8188
   57DOPE  C315 7341   1.491   3.701  13.830 -0.5427  0.4286 -0.1797
   57DOPE  H15X 7342   1.567   3.622  13.812 -0.3089  0.7611 -0.6931
   57DOPE  H15Y 7343   1.385   3.667  13.833 -0.9319  1.5886  0.0084
   57DOPE  C316 7344   1.514   3.783  13.959  0.1045  0.2289 -0.0931
   57DOPE  H16X 7345   1.455   3.876  13.976 -0.6015 -0.6459  2.8445
   57DOPE  H16Y 7346   1.620   3.811  13.977 -0.1356  0.8890  0.3602
   57DOPE  C317 7347   1.476   3.691  14.080  0.2889  0.2330  0.5796
   57DOPE  H17X 7348   1.366   3.688  14.072  0.4268 -1.5254 -1.3422
   57DOPE  H17Y 7349   1.518   3.590  14.060  0.1452 -0.4479  3.3278
   57DOPE  C318 7350   1.526   3.758  14.207 -0.0430  0.2831 -0.1918
   57DOPE  H18X 7351   1.513   3.868  14.216 -2.0805 -0.0052  0.9295
   57DOPE  H18Y 7352   1.472   3.712  14.292 -1.3962 -1.6191 -1.9831
   57DOPE  H18Z 7353   1.632   3.737  14.235 -0.6176  1.4782  3.4322
   58DOPE     N 7354   7.149   6.887  12.175 -0.3583 -0.0606 -0.4391
   58DOPE   HN1 7355   7.115   6.978  12.139  0.6132 -0.6393 -3.0388
   58DOPE   HN2 7356   7.249   6.870  12.149 -0.5084 -1.5639 -0.1482
   58DOPE   HN3 7357   7.099   6.804  12.136 -1.2513 -1.0491  2.5603
   58DOPE   C12 7358   7.141   6.906  12.323 -0.3722  0.4929 -0.3318
   58DOPE  H12A 7359   7.206   6.838  12.383  0.1806  0.4973 -0.9170
   58DOPE  H12B 7360   7.035   6.882  12.347  0.4227 -1.2971  1.8095
   58DOPE   C11 7361   7.159   7.054  12.362 -0.1805 -0.2976  0.3269
   58DOPE  H11A 7362   7.263   7.091  12.364 -0.5148  0.6658  0.4035
   58DOPE  H11B 7363   7.123   7.054  12.468  0.6380  0.4697  0.6178
   58DOPE     P 7364   6.984   7.247  12.344 -0.5019 -0.0135  0.2369
   58DOPE   O13 7365   6.869   7.165  12.388  0.0114 -0.4866 -0.0959
   58DOPE   O14 7366   6.954   7.361  12.251  0.4025 -0.2267 -0.9948
   58DOPE   O11 7367   7.058   7.298  12.474 -0.8403 -0.1944  0.2779
   58DOPE   O12 7368   7.086   7.145  12.276  0.2229 -0.5936 -0.2533
   58DOPE    C1 7369   7.161   7.393  12.486 -0.5577 -0.2062 -0.1548
   58DOPE    HA 7370   7.125   7.495  12.510  2.8214  0.7193  1.6888
   58DOPE    HB 7371   7.212   7.385  12.387  0.7327 -4.2315  0.6496
   58DOPE    C2 7372   7.267   7.339  12.591 -0.0150  0.1763 -0.3154
   58DOPE    HS 7373   7.306   7.244  12.550 -1.1099 -0.4000 -0.0644
   58DOPE   O21 7374   7.212   7.323  12.731 -0.0866  0.1954 -0.2466
   58DOPE   C21 7375   7.203   7.197  12.777 -0.8999  0.8829  0.0035
   58DOPE   O22 7376   7.241   7.099  12.711  0.2188  0.7262 -0.1223
   58DOPE   C22 7377   7.161   7.193  12.920  0.3252 -0.3187  0.4032
   58DOPE   H2R 7378   7.088   7.111  12.936 -0.4867  0.4829  0.9789
   58DOPE   H2S 7379   7.100   7.284  12.937 -0.0613  0.3926 -3.6788
   58DOPE    C3 7380   7.398   7.433  12.588  0.2307  0.0566 -0.1708
   58DOPE    HX 7381   7.359   7.537  12.587  0.2802  0.1409  2.0743
   58DOPE    HY 7382   7.457   7.421  12.495  2.8265 -0.9734  1.4804
   58DOPE   O31 7383   7.493   7.409  12.701  0.3807 -0.0910  0.3832
   58DOPE   C31 7384   7.583   7.317  12.679 -0.3370  0.0576 -0.5340
   58DOPE   O32 7385   7.600   7.253  12.574  0.3498 -0.1252 -0.9535
   58DOPE   C32 7386   7.667   7.293  12.807 -0.2650  0.2410  0.6255
   58DOPE   H2X 7387   7.748   7.369  12.809 -1.5513  1.6620  1.0593
   58DOPE   H2Y 7388   7.613   7.317  12.901 -0.6286 -0.0619  0.4953
   58DOPE   C23 7389   7.275   7.184  13.024 -0.2334  0.5456  0.4049
   58DOPE   H3R 7390   7.362   7.230  12.973 -0.4061  1.0326  0.5455
   58DOPE   H3S 7391   7.291   7.075  13.043  2.1671  0.6750 -0.5744
   58DOPE   C24 7392   7.261   7.258  13.156 -0.4906 -0.6570 -0.0771
   58DOPE   H4R 7393   7.282   7.366  13.139 -0.5218 -0.5345  0.6248
   58DOPE   H4S 7394   7.347   7.220  13.214 -0.1480  1.0958  0.6378
   58DOPE   C25 7395   7.128   7.254  13.237 -0.4063  0.5260  0.0499
   58DOPE   H5R 7396   7.125   7.149  13.274  1.5404 -0.5355 -2.4714
   58DOPE   H5S 7397   7.036   7.274  13.177  0.7258 -0.8338 -2.2772
   58DOPE   C26 7398   7.133   7.353  13.362  0.2868 -0.6813  0.6827
   58DOPE   H6R 7399   7.151   7.460  13.341 -1.1427 -0.3978  0.7987
   58DOPE   H6S 7400   7.216   7.311  13.423  0.2309 -0.5558  0.8457
   58DOPE   C27 7401   6.998   7.364  13.427  0.4225 -0.1084 -0.1488
   58DOPE   H7R 7402   6.915   7.389  13.357 -0.3725 -3.6125 -0.6730
   58DOPE   H7S 7403   7.012   7.452  13.494  1.7569  2.0301 -2.9947
   58DOPE   C28 7404   6.969   7.245  13.520 -0.3338  0.4297 -0.0734
   58DOPE   H8R 7405   6.958   7.153  13.458 -0.2642  0.2514  0.1759
   58DOPE   H8S 7406   6.864   7.263  13.552 -0.0105 -0.5129  1.6234
   58DOPE   C29 7407   7.070   7.216  13.630  0.0149 -0.1862 -0.1866
   58DOPE   H9R 7408   7.162   7.158  13.612  1.2470  1.7338 -0.4223
   58DOPE  C210 7409   7.034   7.250  13.753  0.5163  0.0286  0.1225
   58DOPE  H10R 7410   7.100   7.232  13.839  1.2839  0.1494 -0.4387
   58DOPE  C211 7411   6.924   7.343  13.787  0.2111 -0.0072 -0.3967
   58DOPE  H11R 7412   6.902   7.417  13.708 -0.0013 -0.2413 -0.5609
   58DOPE  H11S 7413   6.959   7.407  13.871 -1.8323 -0.3982  0.8223
   58DOPE  C212 7414   6.790   7.276  13.829  0.4771  0.4096 -0.6625
   58DOPE  H12R 7415   6.807   7.203  13.911 -2.7482 -1.5731 -1.5797
   58DOPE  H12S 7416   6.743   7.224  13.743  2.9409 -1.0247 -1.2114
   58DOPE  C213 7417   6.683   7.379  13.877 -0.5227  0.4863  0.0658
   58DOPE  H13R 7418   6.733   7.474  13.905 -0.6388  0.3267  0.8409
   58DOPE  H13S 7419   6.642   7.341  13.974  0.6201 -0.1015  0.3372
   58DOPE  C214 7420   6.563   7.394  13.787  0.1517 -0.0254 -0.1824
   58DOPE  H14R 7421   6.522   7.292  13.770 -0.4456 -0.3025  2.5355
   58DOPE  H14S 7422   6.599   7.449  13.698  2.8316 -2.8038 -1.0019
   58DOPE  C215 7423   6.452   7.481  13.853  0.7975  0.2067 -1.0055
   58DOPE  H15R 7424   6.464   7.591  13.856  0.0614  0.2719  0.1669
   58DOPE  H15S 7425   6.422   7.442  13.953  2.6188  1.2868  0.0097
   58DOPE  C216 7426   6.322   7.453  13.774 -0.0369 -0.0368 -0.3027
   58DOPE  H16R 7427   6.296   7.346  13.789  1.5804 -0.4831 -0.4552
   58DOPE  H16S 7428   6.334   7.469  13.665 -0.9502 -0.2597 -0.4442
   58DOPE  C217 7429   6.210   7.557  13.801  0.2221  0.2457 -0.0540
   58DOPE  H17R 7430   6.199   7.570  13.911 -1.3480 -0.3367 -0.1057
   58DOPE  H17S 7431   6.115   7.515  13.760 -0.6361  1.9973  0.0439
   58DOPE  C218 7432   6.235   7.698  13.734 -0.2581  0.1429  0.4093
   58DOPE  H18R 7433   6.328   7.745  13.773 -1.4057  2.3866  0.6146
   58DOPE  H18S 7434   6.156   7.773  13.758  2.0291  2.2157  2.1140
   58DOPE  H18T 7435   6.235   7.687  13.624  0.9421 -1.3333  0.5256
   58DOPE   C33 7436   7.707   7.146  12.831 -0.2383  0.3994  0.7032
   58DOPE   H3X 7437   7.760   7.109  12.741 -0.3414 -0.2150  0.8900
   58DOPE   H3Y 7438   7.617   7.080  12.828 -0.6529  0.9419  1.0665
   58DOPE   C34 7439   7.782   7.111  12.960 -0.2577 -1.1131 -0.1504
   58DOPE   H4X 7440   7.730   7.151  13.050 -1.0229 -1.2032 -0.5445
   58DOPE   H4Y 7441   7.787   7.001  12.973  0.4605 -1.1486 -0.6685
   58DOPE   C35 7442   7.922   7.168  12.964  0.4359 -0.1578 -0.0037
   58DOPE   H5X 7443   7.927   7.278  12.945 -0.8470  0.3185  2.0587
   58DOPE   H5Y 7444   7.982   7.114  12.888 -0.3475  0.2964 -0.9577
   58DOPE   C36 7445   7.977   7.148  13.113  0.6693  0.0844 -0.6746
   58DOPE   H6X 7446   7.972   7.039  13.129 -0.7168  0.1353 -0.6059
   58DOPE   H6Y 7447   7.907   7.192  13.188 -1.3496 -1.8410 -1.3374
   58DOPE   C37 7448   8.120   7.209  13.134 -0.4012  0.5257  0.8124
   58DOPE   H7X 7449   8.180   7.168  13.050  0.2633  0.4738  1.3157
   58DOPE   H7Y 7450   8.126   7.319  13.127  0.4042  0.4387 -0.0263
   58DOPE   C38 7451   8.189   7.169  13.267 -0.1815 -0.2927  0.0900
   58DOPE   H8X 7452   8.298   7.179  13.251  0.6660 -3.1235  3.0742
   58DOPE   H8Y 7453   8.180   7.059  13.279 -1.4690 -0.3406 -0.9773
   58DOPE   C39 7454   8.139   7.246  13.381  0.2305  0.1728  0.4051
   58DOPE   H9X 7455   8.034   7.238  13.413  0.3236 -0.0705  0.6492
   58DOPE  C310 7456   8.199   7.341  13.459 -0.2544  0.0010  0.1734
   58DOPE  H10X 7457   8.141   7.375  13.546 -0.9608 -1.1575  0.1686
   58DOPE  C311 7458   8.345   7.373  13.449 -0.7223  0.1182 -0.4390
   58DOPE  H11X 7459   8.393   7.319  13.364 -0.9607 -0.6667 -0.0792
   58DOPE  H11Y 7460   8.366   7.481  13.431 -0.6015  0.4319  1.4099
   58DOPE  C312 7461   8.420   7.335  13.583  0.1156 -0.5503  0.3709
   58DOPE  H12X 7462   8.359   7.393  13.655 -1.6143 -2.2731  0.3955
   58DOPE  H12Y 7463   8.521   7.380  13.592 -0.0293  0.2840 -1.7065
   58DOPE  C313 7464   8.408   7.191  13.625 -0.0738 -0.7701 -0.2147
   58DOPE  H13X 7465   8.308   7.151  13.599 -0.1617 -0.8447  0.2333
   58DOPE  H13Y 7466   8.491   7.124  13.594  1.7037  0.8342  0.8695
   58DOPE  C314 7467   8.419   7.179  13.783  0.4648  0.7622 -0.3885
   58DOPE  H14X 7468   8.397   7.075  13.815  1.2094  0.3358 -1.2191
   58DOPE  H14Y 7469   8.335   7.235  13.829 -0.1967  0.1161 -0.8020
   58DOPE  C315 7470   8.549   7.233  13.844  0.2639 -0.5944 -0.0036
   58DOPE  H15X 7471   8.598   7.318  13.790 -1.8078 -0.1757 -1.3226
   58DOPE  H15Y 7472   8.621   7.149  13.854  0.3003 -0.4496  1.1033
   58DOPE  C316 7473   8.520   7.268  13.992  0.3027 -0.4267  0.2723
   58DOPE  H16X 7474   8.479   7.181  14.047 -0.9700 -0.5833 -0.8654
   58DOPE  H16Y 7475   8.446   7.350  14.004  0.4171 -0.4345  1.0940
   58DOPE  C317 7476   8.654   7.303  14.050  0.3011 -0.0494  0.3585
   58DOPE  H17X 7477   8.725   7.345  13.976  0.5887  0.1169  0.7197
   58DOPE  H17Y 7478   8.644   7.383  14.127 -1.7149 -1.8033  2.0591
   58DOPE  C318 7479   8.731   7.190  14.114  0.1305 -0.9691  0.1636
   58DOPE  H18X 7480   8.763   7.114  14.040 -0.2897  0.0474 -1.0841
   58DOPE  H18Y 7481   8.826   7.228  14.157  0.3527 -0.4934 -0.7291
   58DOPE  H18Z 7482   8.684   7.144  14.204  1.0000 -0.5744  0.8379
   59DOPE     N 7483   7.311   1.660  11.979  0.1361  0.3934  0.0132
   59DOPE   HN1 7484   7.377   1.580  11.987  1.1109  1.0194 -1.3775
   59DOPE   HN2 7485   7.214   1.626  11.993  0.0138  0.3545 -0.8904
   59DOPE   HN3 7486   7.311   1.688  11.879  0.3227 -0.8802 -0.3735
   59DOPE   C12 7487   7.356   1.771  12.077 -0.7081  0.9713  0.2611
   59DOPE  H12A 7488   7.267   1.836  12.092 -1.0798  0.8445 -1.1967
   59DOPE  H12B 7489   7.444   1.825  12.036 -1.1930  2.0470  0.6047
   59DOPE   C11 7490   7.409   1.719  12.217  0.2256  0.2558  0.3181
   59DOPE  H11A 7491   7.320   1.679  12.271 -0.0946  0.9628  0.3301
   59DOPE  H11B 7492   7.435   1.804  12.284 -0.5366 -0.8647  2.1118
   59DOPE     P 7493   7.557   1.503  12.284  0.1297 -0.0342  0.2301
   59DOPE   O13 7494   7.690   1.446  12.249 -0.0927  0.4823  0.0572
   59DOPE   O14 7495   7.437   1.417  12.273 -0.4854  0.2961 -0.1209
   59DOPE   O11 7496   7.563   1.564  12.425 -0.0947 -0.0365 -0.0950
   59DOPE   O12 7497   7.523   1.637  12.197 -1.1511  0.7851 -0.0818
   59DOPE    C1 7498   7.547   1.485  12.549 -0.0642 -0.1057  0.4071
   59DOPE    HA 7499   7.612   1.525  12.629 -0.6089 -0.3240  0.9724
   59DOPE    HB 7500   7.579   1.382  12.522 -0.5176  0.0560 -0.8280
   59DOPE    C2 7501   7.400   1.489  12.602  0.1788  0.0458  0.1787
   59DOPE    HS 7502   7.326   1.446  12.532 -1.8827  0.7015  1.8397
   59DOPE   O21 7503   7.379   1.620  12.621  0.6931 -0.7329 -0.0914
   59DOPE   C21 7504   7.259   1.670  12.601  0.2658  0.2143 -0.5105
   59DOPE   O22 7505   7.162   1.607  12.556 -0.3555 -0.1252  0.8997
   59DOPE   C22 7506   7.263   1.819  12.643  0.2007 -0.0480  0.1926
   59DOPE   H2R 7507   7.212   1.875  12.562 -2.5042 -0.0265  1.7860
   59DOPE   H2S 7508   7.369   1.846  12.666  0.7276 -1.6823 -0.2164
   59DOPE    C3 7509   7.386   1.412  12.737 -0.4434 -0.0317  0.5652
   59DOPE    HX 7510   7.464   1.457  12.803  0.8179 -0.8018 -0.3661
   59DOPE    HY 7511   7.416   1.305  12.729  3.8696  1.0661 -0.6744
   59DOPE   O31 7512   7.254   1.427  12.793  0.3259 -0.4358  0.4665
   59DOPE   C31 7513   7.165   1.346  12.742 -0.4811  0.1086 -0.1513
   59DOPE   O32 7514   7.186   1.272  12.646  0.1844 -0.2736  0.7941
   59DOPE   C32 7515   7.037   1.340  12.828 -0.9856  0.3659  0.0691
   59DOPE   H2X 7516   6.950   1.316  12.763 -0.1613 -1.7687 -0.3226
   59DOPE   H2Y 7517   7.055   1.253  12.894  3.0141 -1.5050 -3.0043
   59DOPE   C23 7518   7.174   1.835  12.770 -0.5506  0.1823 -0.3970
   59DOPE   H3R 7519   7.219   1.776  12.853 -0.8170 -0.1927 -0.5178
   59DOPE   H3S 7520   7.074   1.790  12.753 -1.9114  3.1900 -1.0742
   59DOPE   C24 7521   7.151   1.983  12.801  0.6291 -0.3929  0.5624
   59DOPE   H4R 7522   7.082   2.017  12.721  0.3074  0.1096  1.0412
   59DOPE   H4S 7523   7.239   2.049  12.789 -0.2945  1.0306  1.3114
   59DOPE   C25 7524   7.088   2.013  12.938 -0.0480 -0.2235  0.0860
   59DOPE   H5R 7525   7.162   1.999  13.019 -0.3116 -0.1886  0.3361
   59DOPE   H5S 7526   7.007   1.940  12.960 -1.1959  0.8683 -0.3680
   59DOPE   C26 7527   7.021   2.153  12.944 -0.2798  0.2085 -0.1588
   59DOPE   H6R 7528   6.996   2.162  13.052  0.3613 -0.4652  0.0555
   59DOPE   H6S 7529   6.927   2.149  12.885 -0.1901 -1.9859 -0.2036
   59DOPE   C27 7530   7.109   2.276  12.891 -0.0773  0.0508 -0.6160
   59DOPE   H7R 7531   7.038   2.361  12.888  1.2773  1.1911 -2.1047
   59DOPE   H7S 7532   7.130   2.267  12.783 -2.4236 -2.1634 -0.9615
   59DOPE   C28 7533   7.225   2.303  12.986  0.6232  0.2662 -0.5288
   59DOPE   H8R 7534   7.290   2.212  12.988 -0.0904 -0.2516  0.7569
   59DOPE   H8S 7535   7.196   2.324  13.091 -0.0137  1.8229 -0.9972
   59DOPE   C29 7536   7.291   2.434  12.944 -0.2164 -0.0972 -0.1632
   59DOPE   H9R 7537   7.355   2.432  12.855  2.7798 -0.8194  1.8728
   59DOPE  C210 7538   7.284   2.548  13.018 -0.6705  0.1867  0.0467
   59DOPE  H10R 7539   7.320   2.638  12.965 -1.7444  0.2632 -0.5925
   59DOPE  C211 7540   7.214   2.573  13.152 -0.4624 -0.0829 -0.0492
   59DOPE  H11R 7541   7.120   2.515  13.162 -0.8333  0.8331  2.5330
   59DOPE  H11S 7542   7.179   2.678  13.157 -0.8943 -0.1734 -1.1336
   59DOPE  C212 7543   7.301   2.567  13.284 -0.1651  0.1725 -0.6224
   59DOPE  H12R 7544   7.371   2.653  13.291 -0.6007  0.4524  0.3234
   59DOPE  H12S 7545   7.351   2.468  13.268 -1.1830 -0.4776  0.1674
   59DOPE  C213 7546   7.207   2.566  13.407 -0.1332 -0.1474  0.4957
   59DOPE  H13R 7547   7.151   2.472  13.389  0.1475  0.2236 -3.1681
   59DOPE  H13S 7548   7.134   2.650  13.406  1.3857  1.2226 -0.5493
   59DOPE  C214 7549   7.279   2.564  13.540 -0.9182  0.5079  0.1811
   59DOPE  H14R 7550   7.371   2.501  13.531 -1.2833 -0.6204  3.1930
   59DOPE  H14S 7551   7.222   2.507  13.617 -0.1587  0.3062  0.6138
   59DOPE  C215 7552   7.322   2.699  13.609 -0.5024 -0.5034  0.1506
   59DOPE  H15R 7553   7.363   2.761  13.526 -1.4576  0.4979  0.4008
   59DOPE  H15S 7554   7.395   2.674  13.688  0.7264 -2.0165 -1.3851
   59DOPE  C216 7555   7.209   2.770  13.676  0.1758 -0.2229  0.2227
   59DOPE  H16R 7556   7.187   2.713  13.768  0.9073  1.5219  1.5484
   59DOPE  H16S 7557   7.121   2.768  13.608  0.6332 -0.7962 -0.3670
   59DOPE  C217 7558   7.250   2.904  13.726  0.6852 -0.2859 -0.4408
   59DOPE  H17R 7559   7.293   2.955  13.636  0.8619 -0.7087 -0.5967
   59DOPE  H17S 7560   7.338   2.897  13.794 -0.2917 -0.9447  0.7796
   59DOPE  C218 7561   7.146   2.991  13.799  0.0437 -0.0364 -0.3003
   59DOPE  H18R 7562   7.068   3.034  13.732 -0.4716 -0.0796  0.2640
   59DOPE  H18S 7563   7.203   3.077  13.839 -0.8766 -0.3093  1.7106
   59DOPE  H18T 7564   7.096   2.942  13.885  0.8085  0.2645  0.3251
   59DOPE   C33 7565   7.019   1.481  12.901 -0.3542  0.8212  0.7703
   59DOPE   H3X 7566   7.008   1.560  12.824  1.2432 -0.6116 -1.0239
   59DOPE   H3Y 7567   7.113   1.506  12.954  0.7619  1.6023 -1.4594
   59DOPE   C34 7568   6.892   1.484  12.981  0.2387  0.0381  0.2770
   59DOPE   H4X 7569   6.802   1.507  12.920 -2.1485  0.0462  3.5323
   59DOPE   H4Y 7570   6.869   1.388  13.032  1.1228 -0.1938  0.2585
   59DOPE   C35 7571   6.899   1.596  13.086  0.5594 -0.3754  0.3209
   59DOPE   H5X 7572   6.801   1.611  13.136  1.5483  0.6562  2.0490
   59DOPE   H5Y 7573   6.930   1.694  13.045 -1.7755  0.0441 -0.6047
   59DOPE   C36 7574   6.998   1.563  13.199 -0.0789 -0.4675 -0.5219
   59DOPE   H6X 7575   7.097   1.591  13.158 -1.3757 -0.3768 -3.9321
   59DOPE   H6Y 7576   7.000   1.452  13.211 -0.1466 -0.4069  0.0492
   59DOPE   C37 7577   6.994   1.642  13.335  0.0889  0.2118  0.6176
   59DOPE   H7X 7578   6.890   1.628  13.373  0.4484 -3.0923  0.6533
   59DOPE   H7Y 7579   7.077   1.606  13.399  0.4019 -0.9673 -0.4251
   59DOPE   C38 7580   7.016   1.794  13.318 -0.2361  0.1221 -0.5499
   59DOPE   H8X 7581   6.927   1.829  13.261  0.2383  1.3744 -0.5628
   59DOPE   H8Y 7582   7.107   1.799  13.255  1.0803 -2.1661  1.0395
   59DOPE   C39 7583   7.019   1.863  13.453  0.1556  0.1272 -0.2197
   59DOPE   H9X 7584   6.950   1.824  13.529 -0.2293 -1.0850 -1.1559
   59DOPE  C310 7585   7.094   1.973  13.481 -0.0483  0.6115 -0.2057
   59DOPE  H10X 7586   7.080   2.012  13.583  0.9389 -0.7214  0.4667
   59DOPE  C311 7587   7.182   2.049  13.386 -0.6187  0.4001 -0.1734
   59DOPE  H11X 7588   7.168   2.029  13.277  0.2247  2.4945 -0.7206
   59DOPE  H11Y 7589   7.154   2.157  13.383  1.0386  0.9030  1.0214
   59DOPE  C312 7590   7.326   2.017  13.409  0.0854 -0.5153 -0.1928
   59DOPE  H12X 7591   7.336   1.907  13.397 -2.1196 -0.6680 -1.1072
   59DOPE  H12Y 7592   7.355   2.039  13.514  0.7553  1.9024 -0.8187
   59DOPE  C313 7593   7.425   2.102  13.328 -0.2100  0.1162  0.0828
   59DOPE  H13X 7594   7.394   2.207  13.346  1.5265  0.7495 -0.4729
   59DOPE  H13Y 7595   7.523   2.081  13.376  0.2598  2.5760  0.3347
   59DOPE  C314 7596   7.427   2.073  13.170  0.4046 -0.3962 -0.5258
   59DOPE  H14X 7597   7.481   2.153  13.116 -2.0208  1.2077 -0.7299
   59DOPE  H14Y 7598   7.330   2.092  13.118  1.2025 -0.3519 -2.0706
   59DOPE  C315 7599   7.485   1.935  13.146 -0.5303  0.3265  1.0082
   59DOPE  H15X 7600   7.434   1.842  13.180  1.6962 -1.9677 -1.4186
   59DOPE  H15Y 7601   7.586   1.938  13.191  0.4145  0.2660 -0.9841
   59DOPE  C316 7602   7.491   1.900  12.995  0.5155  0.3582 -0.4033
   59DOPE  H16X 7603   7.493   1.984  12.922 -3.3557 -0.1289 -1.2871
   59DOPE  H16Y 7604   7.394   1.853  12.970  0.8750  0.2537 -1.6794
   59DOPE  C317 7605   7.605   1.813  12.947  0.3190  0.2998 -0.4805
   59DOPE  H17X 7606   7.606   1.719  13.006  0.8704  1.1587  0.9183
   59DOPE  H17Y 7607   7.594   1.778  12.842  3.1073 -2.0279 -0.1233
   59DOPE  C318 7608   7.737   1.888  12.961  0.2654  0.2131 -0.1827
   59DOPE  H18X 7609   7.735   1.982  12.902 -1.9395  1.5610  1.8694
   59DOPE  H18Y 7610   7.747   1.923  13.066 -0.8095 -1.7185  0.6059
   59DOPE  H18Z 7611   7.826   1.825  12.941  1.0244  1.2064 -0.0647
   60DOPE     N 7612   0.344   0.859  12.054 -0.4211 -0.0836 -0.2097
   60DOPE   HN1 7613   0.347   0.932  11.980 -0.3493  0.6882  0.5468
   60DOPE   HN2 7614   0.418   0.785  12.053 -0.1061  0.1681  1.3668
   60DOPE   HN3 7615   0.251   0.814  12.065 -1.5266  2.1951  0.2631
   60DOPE   C12 7616   0.362   0.935  12.183 -0.2515  0.1575  0.0606
   60DOPE  H12A 7617   0.322   1.037  12.169  0.6439  0.2161 -2.6591
   60DOPE  H12B 7618   0.469   0.940  12.213 -0.8158 -1.2385  2.5572
   60DOPE   C11 7619   0.304   0.864  12.310 -0.3043  0.2896 -0.5545
   60DOPE  H11A 7620   0.346   0.911  12.401  3.4958 -1.2771 -1.3516
   60DOPE  H11B 7621   0.334   0.757  12.313 -3.0092 -0.5260  0.7323
   60DOPE     P 7622   0.057   0.966  12.326  0.2453  0.2383  0.2424
   60DOPE   O13 7623  -0.069   0.894  12.352  0.0953 -0.0413  0.2576
   60DOPE   O14 7624   0.066   1.071  12.221 -0.6081  0.3538 -0.7353
   60DOPE   O11 7625   0.095   1.036  12.453 -0.3474 -0.6303  0.3625
   60DOPE   O12 7626   0.167   0.868  12.293  0.4347  0.7335 -0.3390
   60DOPE    C1 7627   0.107   0.972  12.579 -0.0892  0.2421  0.4162
   60DOPE    HA 7628   0.213   0.943  12.590  0.2550  1.0434 -0.5533
   60DOPE    HB 7629   0.044   0.882  12.594 -0.4570  0.6640  1.4694
   60DOPE    C2 7630   0.060   1.071  12.691 -0.5894 -0.0770  0.3771
   60DOPE    HS 7631  -0.037   1.117  12.665 -1.3564 -1.2577  1.0531
   60DOPE   O21 7632   0.173   1.162  12.721  0.5619  0.6072 -0.1372
   60DOPE   C21 7633   0.138   1.285  12.753 -0.7191 -0.1320 -0.1521
   60DOPE   O22 7634   0.025   1.330  12.754  0.1674  0.6591  0.2931
   60DOPE   C22 7635   0.259   1.356  12.793 -0.5007  0.1722 -0.0976
   60DOPE   H2R 7636   0.289   1.426  12.712 -0.3033  0.1871 -0.0140
   60DOPE   H2S 7637   0.342   1.286  12.816 -0.7282  0.2135  0.8993
   60DOPE    C3 7638   0.017   0.986  12.817 -0.3079  0.1182 -0.1328
   60DOPE    HX 7639   0.104   0.934  12.863 -0.4382  1.2921  1.4923
   60DOPE    HY 7640  -0.059   0.908  12.792 -0.1168 -0.0059 -0.3384
   60DOPE   O31 7641  -0.034   1.079  12.914  0.0688  0.0863  0.1191
   60DOPE   C31 7642  -0.163   1.102  12.927 -0.3139 -0.6420  0.9361
   60DOPE   O32 7643  -0.249   1.040  12.861 -0.5579 -0.0122 -0.2183
   60DOPE   C32 7644  -0.174   1.215  13.033 -0.2038 -0.2840  0.4865
   60DOPE   H2X 7645  -0.117   1.182  13.123  0.5506 -1.3021 -0.3444
   60DOPE   H2Y 7646  -0.136   1.308  12.986 -2.4753  0.3944 -0.1230
   60DOPE   C23 7647   0.227   1.450  12.916 -0.1760 -0.1123 -0.6175
   60DOPE   H3R 7648   0.140   1.507  12.880 -0.2989  0.1771  0.1220
   60DOPE   H3S 7649   0.314   1.517  12.931 -0.9408  1.0735 -1.3786
   60DOPE   C24 7650   0.190   1.378  13.050  0.1809  0.0817  0.1160
   60DOPE   H4R 7651   0.287   1.335  13.085 -0.2873 -0.4435  0.8066
   60DOPE   H4S 7652   0.121   1.294  13.032  1.6111 -0.8733 -1.0980
   60DOPE   C25 7653   0.122   1.473  13.150  0.4931  0.0025  0.4659
   60DOPE   H5R 7654   0.082   1.404  13.227 -0.0605 -0.5392 -0.2801
   60DOPE   H5S 7655   0.035   1.520  13.098 -1.0104  1.1062  3.6966
   60DOPE   C26 7656   0.211   1.580  13.202 -0.2850  0.8967 -0.1174
   60DOPE   H6R 7657   0.264   1.637  13.123  2.6707  0.6076  1.5193
   60DOPE   H6S 7658   0.290   1.529  13.261 -0.0401 -2.3611 -2.9691
   60DOPE   C27 7659   0.130   1.690  13.282 -0.2031  0.2575 -0.2479
   60DOPE   H7R 7660   0.086   1.638  13.370  0.1113 -0.9642 -0.8017
   60DOPE   H7S 7661   0.050   1.717  13.210 -0.4515 -3.6947 -1.7054
   60DOPE   C28 7662   0.212   1.807  13.344 -0.2792 -0.1185 -0.6149
   60DOPE   H8R 7663   0.294   1.766  13.406  0.1627  0.6592 -0.6687
   60DOPE   H8S 7664   0.144   1.847  13.423  0.6758 -2.1780  1.3582
   60DOPE   C29 7665   0.258   1.910  13.246  0.2647 -0.7284 -0.3949
   60DOPE   H9R 7666   0.291   1.862  13.153  0.1000 -2.8330  0.5653
   60DOPE  C210 7667   0.270   2.047  13.267  0.5088 -0.1519  0.0054
   60DOPE  H10R 7668   0.312   2.108  13.186 -1.1724 -0.1792 -0.9366
   60DOPE  C211 7669   0.240   2.123  13.392 -0.0528 -0.4370  0.9160
   60DOPE  H11R 7670   0.209   2.057  13.476 -0.3186  1.7989  2.6828
   60DOPE  H11S 7671   0.143   2.176  13.378  0.4388 -0.1946 -2.4453
   60DOPE  C212 7672   0.346   2.226  13.442 -0.5106 -0.3705 -0.2839
   60DOPE  H12R 7673   0.295   2.291  13.516 -0.0240  0.6186 -0.7942
   60DOPE  H12S 7674   0.377   2.286  13.354 -1.2541  0.2863 -0.1117
   60DOPE  C213 7675   0.478   2.161  13.495  0.8342 -0.1319 -0.2863
   60DOPE  H13R 7676   0.547   2.243  13.524 -0.5140  0.7846  0.4579
   60DOPE  H13S 7677   0.522   2.104  13.411  0.6704  0.4886 -0.8001
   60DOPE  C214 7678   0.461   2.066  13.617  0.4921  0.2341 -0.7937
   60DOPE  H14R 7679   0.550   2.000  13.621  0.4440  0.1834 -0.5447
   60DOPE  H14S 7680   0.373   1.999  13.605  1.4965 -0.9663 -1.8211
   60DOPE  C215 7681   0.452   2.129  13.758  0.4475  0.3497  0.0788
   60DOPE  H15R 7682   0.421   2.059  13.839  4.3563 -1.4095  0.2866
   60DOPE  H15S 7683   0.377   2.210  13.753 -0.8013 -0.5225  2.8036
   60DOPE  C216 7684   0.583   2.201  13.796 -0.6775  0.0870 -0.1615
   60DOPE  H16R 7685   0.601   2.287  13.727  0.4511  0.2325  0.2909
   60DOPE  H16S 7686   0.676   2.140  13.794 -0.0139  1.0651 -2.4983
   60DOPE  C217 7687   0.569   2.264  13.931  0.1263 -0.3757  0.4047
   60DOPE  H17R 7688   0.551   2.193  14.015 -1.7065 -1.4251 -0.8107
   60DOPE  H17S 7689   0.478   2.327  13.941  1.1900  0.9927  1.9481
   60DOPE  C218 7690   0.689   2.349  13.968  0.0856 -0.1391 -0.3252
   60DOPE  H18R 7691   0.713   2.422  13.888  0.5389  1.4657  1.2127
   60DOPE  H18S 7692   0.777   2.285  13.992 -0.1176 -0.2017  0.2851
   60DOPE  H18T 7693   0.675   2.404  14.064  1.4417 -3.0325  1.6884
   60DOPE   C33 7694  -0.325   1.223  13.071  0.0323 -0.3793 -0.7327
   60DOPE   H3X 7695  -0.362   1.127  13.112 -1.8699  0.5119 -0.2428
   60DOPE   H3Y 7696  -0.379   1.245  12.977 -1.6581  0.2621  0.3419
   60DOPE   C34 7697  -0.377   1.323  13.175 -0.1945  0.1763  0.4662
   60DOPE   H4X 7698  -0.486   1.338  13.165 -0.4170 -2.1232 -1.5395
   60DOPE   H4Y 7699  -0.368   1.280  13.277  0.6680 -1.0504 -0.1041
   60DOPE   C35 7700  -0.295   1.459  13.164  0.4539 -0.1347  0.4861
   60DOPE   H5X 7701  -0.346   1.503  13.075 -1.0911  0.1910  1.4851
   60DOPE   H5Y 7702  -0.188   1.440  13.143 -0.0016 -2.0116 -0.4095
   60DOPE   C36 7703  -0.317   1.562  13.272 -0.7263 -0.5652 -0.1868
   60DOPE   H6X 7704  -0.423   1.570  13.305 -0.0607  2.1705  1.6654
   60DOPE   H6Y 7705  -0.287   1.658  13.226  2.6235  0.2811  3.1946
   60DOPE   C37 7706  -0.222   1.526  13.396  0.9452 -1.3029 -0.4400
   60DOPE   H7X 7707  -0.257   1.439  13.455 -3.7702  1.3824  1.2739
   60DOPE   H7Y 7708  -0.121   1.515  13.350  0.8358  2.0690 -1.7940
   60DOPE   C38 7709  -0.228   1.645  13.495  0.4499  0.0737 -0.8851
   60DOPE   H8X 7710  -0.334   1.642  13.528 -0.3106  2.2687 -2.8607
   60DOPE   H8Y 7711  -0.199   1.742  13.448  1.4136  0.5357  0.5823
   60DOPE   C39 7712  -0.134   1.630  13.613 -0.3445  0.4402  0.0440
   60DOPE   H9X 7713  -0.030   1.609  13.583  0.0025 -0.5044  1.7477
   60DOPE  C310 7714  -0.164   1.641  13.744  0.0690 -0.5666 -0.8487
   60DOPE  H10X 7715  -0.091   1.631  13.826  1.3640 -2.9630 -2.1870
   60DOPE  C311 7716  -0.298   1.667  13.811 -1.2003 -0.5607  0.1011
   60DOPE  H11X 7717  -0.369   1.589  13.776 -1.0747 -0.4696 -0.3581
   60DOPE  H11Y 7718  -0.281   1.657  13.921  1.2835 -1.1801 -0.2794
   60DOPE  C312 7719  -0.369   1.797  13.772 -0.6593  0.4273 -0.1399
   60DOPE  H12X 7720  -0.469   1.795  13.820 -1.4640 -0.5955 -1.8017
   60DOPE  H12Y 7721  -0.391   1.804  13.663 -2.0978  1.1043  0.1710
   60DOPE  C313 7722  -0.303   1.927  13.829 -0.5074 -0.3571  0.3099
   60DOPE  H13X 7723  -0.294   1.907  13.938  0.8033 -2.2372 -0.0894
   60DOPE  H13Y 7724  -0.203   1.950  13.787  0.0473  0.3778  1.9370
   60DOPE  C314 7725  -0.391   2.055  13.820  0.2816 -0.3293  0.2393
   60DOPE  H14X 7726  -0.489   2.037  13.870 -1.2184  1.9475 -1.6606
   60DOPE  H14Y 7727  -0.409   2.064  13.711 -0.2514 -0.6189  0.2946
   60DOPE  C315 7728  -0.332   2.181  13.885  0.6921 -0.3622  0.1792
   60DOPE  H15X 7729  -0.250   2.210  13.816  0.5871 -1.7170 -0.5480
   60DOPE  H15Y 7730  -0.287   2.150  13.982  2.0787 -2.0755 -0.9502
   60DOPE  C316 7731  -0.442   2.290  13.885  0.4615 -0.1508  0.3428
   60DOPE  H16X 7732  -0.537   2.246  13.921  0.8133  0.5872  2.2566
   60DOPE  H16Y 7733  -0.457   2.325  13.781  0.6748  0.7994  0.6277
   60DOPE  C317 7734  -0.406   2.421  13.961  0.4730  0.1549 -0.3865
   60DOPE  H17X 7735  -0.306   2.449  13.919  1.2553 -3.2159 -1.0724
   60DOPE  H17Y 7736  -0.480   2.502  13.946  0.1091  0.1785  1.3708
   60DOPE  C318 7737  -0.380   2.404  14.107 -0.0014 -0.3152  0.1448
   60DOPE  H18X 7738  -0.297   2.333  14.129  0.2095  0.1666  0.8966
   60DOPE  H18Y 7739  -0.358   2.500  14.157  3.7114  0.6102 -2.7607
   60DOPE  H18Z 7740  -0.474   2.362  14.148  0.4210 -0.4083  1.0339
   6123SM     N 7741   1.187   6.010  16.815  0.3647  0.9123 -0.4039
   6123SM   C15 7742   1.157   5.875  16.873  0.1035 -0.7698  0.6268
   6123SM  H15A 7743   1.157   5.787  16.810 -1.4352 -1.1540  1.1091
   6123SM  H15B 7744   1.064   5.886  16.927 -0.8099 -0.1578 -0.9980
   6123SM  H15C 7745   1.226   5.869  16.955 -0.5193  2.0289  1.4660
   6123SM   C14 7746   1.099   6.041  16.697 -0.5075 -0.0938  0.4761
   6123SM  H14A 7747   0.995   6.020  16.720 -1.0070  0.5217 -1.0620
   6123SM  H14B 7748   1.124   5.968  16.622  1.2698 -0.3657  1.2696
   6123SM  H14C 7749   1.119   6.139  16.658  1.5472 -0.3357  0.8320
   6123SM   C13 7750   1.154   6.106  16.927 -0.2964 -0.1966  0.2413
   6123SM  H13A 7751   1.049   6.093  16.947  0.3568 -0.6564  4.1858
   6123SM  H13B 7752   1.181   6.206  16.896 -1.7766 -0.1067 -0.8990
   6123SM  H13C 7753   1.203   6.084  17.021 -0.7999 -2.7814 -0.0247
   6123SM   C12 7754   1.333   6.012  16.780  0.0374 -0.5858 -0.0892
   6123SM  H12A 7755   1.392   5.983  16.866 -0.8929  0.5375  0.9599
   6123SM  H12B 7756   1.368   6.109  16.750  0.5457  0.0973  2.4698
   6123SM   C11 7757   1.373   5.907  16.672 -0.1335 -1.0582  0.3060
   6123SM  H11A 7758   1.328   5.807  16.688 -3.2709 -0.0569 -1.3558
   6123SM  H11B 7759   1.484   5.908  16.670 -0.0468  2.1567 -2.6875
   6123SM     P 7760   1.392   6.064  16.461 -0.2927  0.2227  0.4383
   6123SM   O13 7761   1.299   6.105  16.350  0.2019 -0.5146 -0.3625
   6123SM   O14 7762   1.434   6.169  16.558 -0.0063  0.0889  0.1212
   6123SM   O11 7763   1.518   6.002  16.387  0.4464 -0.0298  0.0418
   6123SM   O12 7764   1.332   5.942  16.542  0.3325  0.3877  0.4389
   6123SM   C1S 7765   1.506   5.906  16.281 -0.0378  0.5155 -0.2515
   6123SM   H1S 7766   1.427   5.832  16.304 -0.4855  0.9379 -0.4212
   6123SM   H1T 7767   1.602   5.851  16.274  1.0671  2.2640  0.5097
   6123SM    NF 7768   1.475   5.851  16.042  0.9418  0.0755  0.4846
   6123SM   HNF 7769   1.558   5.819  15.996 -0.7793 -2.0281 -1.4189
   6123SM   C2S 7770   1.488   5.960  16.138  0.6396  0.0824 -0.2932
   6123SM   H2S 7771   1.396   6.022  16.142  1.0820  0.7739  3.8425
   6123SM   C3S 7772   1.604   6.064  16.103 -0.1308  0.2207  0.0176
   6123SM   H3S 7773   1.695   6.001  16.090 -0.3997  0.0489 -1.1605
   6123SM    O3 7774   1.635   6.160  16.201  0.6548 -0.4187  0.0527
   6123SM   HO3 7775   1.577   6.133  16.273 -2.0600 -0.6125 -2.0720
   6123SM   C4S 7776   1.569   6.138  15.980 -0.2286  0.0876 -0.1795
   6123SM   H4S 7777   1.484   6.206  15.995  0.1901  0.2299  1.7645
   6123SM   C5S 7778   1.628   6.141  15.862  0.1617 -0.2030  0.5741
   6123SM   H5S 7779   1.713   6.074  15.841  1.7882  1.7286  0.7058
   6123SM   C6S 7780   1.581   6.221  15.740 -0.3608 -0.0265 -0.2906
   6123SM   H6S 7781   1.660   6.297  15.721  0.3638 -0.9874 -1.1914
   6123SM   H6T 7782   1.488   6.279  15.758 -0.1854  0.2271 -0.1771
   6123SM   C7S 7783   1.554   6.139  15.609 -0.1062 -0.0136  0.1720
   6123SM   H7S 7784   1.486   6.056  15.639  1.0821 -0.9183  0.4305
   6123SM   H7T 7785   1.648   6.086  15.583  0.0766  0.2050  0.3825
   6123SM   C8S 7786   1.521   6.230  15.492  0.2103 -0.1109 -0.4381
   6123SM   H8S 7787   1.584   6.321  15.480  0.1490  0.2167  1.4477
   6123SM   H8T 7788   1.418   6.269  15.508 -0.0687 -0.7373 -0.6814
   6123SM   C9S 7789   1.523   6.161  15.352 -0.5867 -0.1920  0.4036
   6123SM   H9S 7790   1.448   6.079  15.351 -0.5665 -0.2047 -0.3055
   6123SM   H9T 7791   1.620   6.111  15.332 -0.9569 -0.0917 -1.9287
   6123SM  C10S 7792   1.496   6.269  15.243  0.0683  0.1151 -0.7080
   6123SM  H10S 7793   1.569   6.352  15.238  1.0214 -0.5627  1.0197
   6123SM  H10T 7794   1.394   6.308  15.264 -0.1405  1.2450 -3.4066
   6123SM  C11S 7795   1.475   6.207  15.098  0.5288 -0.1062  0.1658
   6123SM  H11S 7796   1.404   6.121  15.095 -0.0537  0.2995  1.5885
   6123SM  H11T 7797   1.574   6.165  15.072  1.2891 -0.1324  2.8739
   6123SM  C12S 7798   1.439   6.317  14.992 -0.1286 -0.6702 -0.6853
   6123SM  H12S 7799   1.519   6.393  15.006 -0.5051 -0.2234 -0.9599
   6123SM  H12T 7800   1.343   6.362  15.026  0.7126  1.1664 -0.6166
   6123SM  C13S 7801   1.442   6.266  14.851  0.1286 -0.1283 -0.0915
   6123SM  H13S 7802   1.366   6.187  14.836 -0.0025  0.0415 -0.3258
   6123SM  H13T 7803   1.540   6.217  14.832  0.1564 -0.2457  0.3641
   6123SM  C14S 7804   1.397   6.378  14.752 -0.8942 -0.7986 -0.6779
   6123SM  H14S 7805   1.371   6.334  14.654 -3.5182 -0.2358 -0.3145
   6123SM  H14T 7806   1.489   6.436  14.728 -0.8920 -1.4229 -2.2577
   6123SM  C15S 7807   1.266   6.460  14.791  0.0460  0.9090 -0.4800
   6123SM  H15S 7808   1.288   6.521  14.881  1.4735 -0.5221  0.1823
   6123SM  H15T 7809   1.190   6.386  14.823  0.2851  0.3190 -1.2305
   6123SM  C16S 7810   1.209   6.551  14.679 -0.0460  0.3139 -0.4038
   6123SM  H16S 7811   1.244   6.508  14.583 -0.9323 -2.1759  0.3048
   6123SM  H16T 7812   1.261   6.648  14.696 -1.0946  0.9337 -0.6153
   6123SM  C17S 7813   1.061   6.545  14.688  0.6553  0.1282 -0.1026
   6123SM  H17S 7814   1.018   6.551  14.790  0.0976 -0.8733 -0.2726
   6123SM  H17T 7815   1.034   6.448  14.641  0.4507 -0.2754  0.8365
   6123SM  C18S 7816   1.003   6.648  14.595  0.4192  0.1621 -0.0065
   6123SM  H18S 7817   1.041   6.636  14.492  1.2720  2.4876 -0.0146
   6123SM  H18T 7818   1.027   6.752  14.623  3.7413 -0.6636  0.6274
   6123SM  H18U 7819   0.894   6.627  14.604  0.4054  0.1162 -0.2804
   6123SM   C1F 7820   1.359   5.781  16.040  0.6213  0.5523 -0.0390
   6123SM    OF 7821   1.258   5.815  16.099 -0.0315 -0.8039  0.4085
   6123SM   C2F 7822   1.354   5.664  15.949  0.1735  0.1664 -0.0384
   6123SM   H2F 7823   1.301   5.593  16.015  1.3820 -0.0578  0.7165
   6123SM   H2G 7824   1.452   5.619  15.925  0.1708  0.2639 -0.2385
   6123SM   C3F 7825   1.261   5.681  15.825  0.5343  0.3240  0.1324
   6123SM   H3F 7826   1.165   5.733  15.847  1.0880  2.6150 -2.2251
   6123SM   H3G 7827   1.234   5.578  15.796 -2.0461  0.5777  1.3701
   6123SM   C4F 7828   1.328   5.749  15.704 -0.3411  0.8144 -0.1880
   6123SM   H4F 7829   1.416   5.691  15.671 -0.0843  0.3188  1.2996
   6123SM   H4G 7830   1.365   5.852  15.725  0.3454  1.2022 -2.9291
   6123SM   C5F 7831   1.222   5.775  15.596 -0.0402  0.8503 -0.4807
   6123SM   H5F 7832   1.148   5.847  15.637 -0.4432 -0.0332  0.3645
   6123SM   H5G 7833   1.169   5.679  15.578 -1.1096  1.5703 -1.3113
   6123SM   C6F 7834   1.278   5.831  15.462  0.2695  0.7402 -0.0201
   6123SM   H6F 7835   1.344   5.752  15.421 -1.9131 -0.9267 -0.5331
   6123SM   H6G 7836   1.337   5.925  15.476  1.7001  0.5208 -3.6061
   6123SM   C7F 7837   1.163   5.857  15.362 -0.3994 -0.1803 -0.1775
   6123SM   H7F 7838   1.103   5.937  15.410  2.2968  0.2280  2.8328
   6123SM   H7G 7839   1.102   5.766  15.347  1.6330 -2.0197  2.0002
   6123SM   C8F 7840   1.220   5.907  15.232 -1.1518 -0.0325 -0.0960
   6123SM   H8F 7841   1.325   5.873  15.219 -1.0105 -0.3501  1.7253
   6123SM   H8G 7842   1.248   6.015  15.229 -2.7236  0.3992 -0.6264
   6123SM   C9F 7843   1.132   5.863  15.120  0.4223  0.6699 -0.3614
   6123SM   H9F 7844   1.032   5.908  15.138 -0.0730 -1.0134  1.4966
   6123SM   H9G 7845   1.120   5.753  15.131 -1.9452  0.8778 -0.4209
   6123SM  C10F 7846   1.180   5.892  14.980  0.4709  0.1579  0.0640
   6123SM  H10F 7847   1.284   5.852  14.973 -0.0138 -1.7487  2.2732
   6123SM  H10G 7848   1.207   5.999  14.974  1.8486 -0.0546  1.7087
   6123SM  C11F 7849   1.093   5.848  14.868  0.0842  0.2295  0.2925
   6123SM  H11F 7850   1.004   5.915  14.856  0.6358  0.9105 -0.0678
   6123SM  H11G 7851   1.050   5.749  14.895  0.4289  0.5137  1.9904
   6123SM  C12F 7852   1.167   5.854  14.734  0.2668 -1.2629  0.2022
   6123SM  H12F 7853   1.252   5.784  14.744  2.4613  1.2563  0.4758
   6123SM  H12G 7854   1.212   5.955  14.724  0.9844 -1.5204  0.7546
   6123SM  C13F 7855   1.072   5.819  14.625 -0.2765  0.2754  0.3231
   6123SM  H13F 7856   1.111   5.853  14.527 -2.8608  0.8556 -0.5935
   6123SM  H13G 7857   0.979   5.876  14.644  0.1275  1.2905 -0.6483
   6123SM  C14F 7858   1.041   5.664  14.615  0.2111 -0.6136  0.1410
   6123SM  H14F 7859   0.940   5.648  14.573  0.8220 -2.3624 -0.7396
   6123SM  H14G 7860   1.058   5.616  14.714  1.5685  1.0217  0.7757
   6123SM  C15F 7861   1.140   5.601  14.523  0.3364  0.0108  0.1725
   6123SM  H15F 7862   1.243   5.606  14.564  0.3262  0.5471  0.1467
   6123SM  H15G 7863   1.135   5.654  14.425  2.0025 -0.8093 -0.3999
   6123SM  C16F 7864   1.117   5.451  14.500 -0.3563 -0.1319  0.0923
   6123SM  H16F 7865   1.012   5.432  14.468 -0.3375 -0.3214  0.1397
   6123SM  H16G 7866   1.117   5.393  14.595 -0.1126  1.2103  0.9288
   6123SM  C17F 7867   1.204   5.382  14.392  0.1182 -0.1436 -0.5385
   6123SM  H17F 7868   1.308   5.398  14.429 -0.0887  2.9501 -0.9790
   6123SM  H17G 7869   1.214   5.425  14.290 -0.0519 -0.5713 -0.7364
   6123SM  C18F 7870   1.193   5.228  14.393  0.1343 -0.0546  0.2249
   6123SM  H18F 7871   1.184   5.198  14.500  1.9513 -1.3277  0.0625
   6123SM  H18G 7872   1.291   5.191  14.355  0.2166 -1.3623  1.6054
   6123SM  C19F 7873   1.087   5.162  14.302  0.1019 -0.4652 -0.3652
   6123SM  H19F 7874   1.086   5.215  14.205  0.1218 -1.1440 -0.7385
   6123SM  H19G 7875   0.985   5.175  14.344 -0.9671 -1.0656 -2.6106
   6123SM  C20F 7876   1.119   5.017  14.280 -0.2269  0.5403 -0.2533
   6123SM  H20F 7877   1.102   4.963  14.375 -1.1242  2.3896  0.6932
   6123SM  H20G 7878   1.224   5.003  14.246 -0.8932  0.7960 -2.6555
   6123SM  C21F 7879   1.016   4.957  14.189 -0.8924 -0.5878  0.2372
   6123SM  H21F 7880   1.022   5.002  14.088  0.4197  0.1271  0.6126
   6123SM  H21G 7881   0.912   4.976  14.225 -1.4328 -2.3699 -0.2571
   6123SM  C22F 7882   1.037   4.805  14.177 -0.2753  0.7959 -0.3129
   6123SM  H22F 7883   1.042   4.769  14.282 -0.9716  1.3578 -0.0711
   6123SM  H22G 7884   1.132   4.794  14.120 -0.7493 -0.3517 -0.9028
   6123SM  C23F 7885   0.921   4.740  14.096  0.0562  0.0541  0.3348
   6123SM  H23F 7886   0.916   4.793  13.998 -2.2960 -1.5027 -0.4609
   6123SM  H23G 7887   0.825   4.748  14.152  2.0667  2.3559  3.8381
   6123SM  H23H 7888   0.941   4.634  14.071 -0.4342  0.1958 -0.7289
   6223SM     N 7889   1.760   5.257  16.464  0.4238  0.7760 -0.4565
   6223SM   C15 7890   1.611   5.248  16.493  0.3694  0.6793  0.5917
   6223SM  H15A 7891   1.575   5.348  16.474 -1.7154  0.2019  1.7228
   6223SM  H15B 7892   1.585   5.222  16.594 -1.7118  1.3983  0.2859
   6223SM  H15C 7893   1.560   5.176  16.431 -1.1468  0.8626  1.5657
   6223SM   C14 7894   1.826   5.342  16.565 -0.0479  0.1402  0.4740
   6223SM  H14A 7895   1.932   5.348  16.546 -0.3048  0.2618 -1.0251
   6223SM  H14B 7896   1.805   5.304  16.664  1.5662 -3.4051 -0.3733
   6223SM  H14C 7897   1.786   5.443  16.562 -0.7981 -0.1122  1.3369
   6223SM   C13 7898   1.813   5.115  16.473 -0.4264 -0.8474 -0.5652
   6223SM  H13A 7899   1.802   5.077  16.574  0.3584  1.2258  0.3727
   6223SM  H13B 7900   1.919   5.115  16.454 -0.2737 -0.3347  0.2029
   6223SM  H13C 7901   1.776   5.050  16.396  0.3709  2.0776 -3.6523
   6223SM   C12 7902   1.783   5.309  16.322  0.0739 -0.3757 -0.2263
   6223SM  H12A 7903   1.743   5.410  16.321  2.1744  0.5075 -0.9339
   6223SM  H12B 7904   1.716   5.260  16.253 -0.8992  1.6516 -0.8270
   6223SM   C11 7905   1.930   5.300  16.266 -0.5511 -0.4179 -0.0866
   6223SM  H11A 7906   1.949   5.360  16.175  1.6771 -3.1986 -1.6167
   6223SM  H11B 7907   1.948   5.192  16.247  1.4402  0.2341 -2.2940
   6223SM     P 7908   2.168   5.286  16.387  0.1373  0.5555 -0.0863
   6223SM   O13 7909   2.255   5.385  16.453  0.0262 -0.3749 -0.3535
   6223SM   O14 7910   2.137   5.160  16.459  0.3569  0.3546 -0.3621
   6223SM   O11 7911   2.205   5.255  16.238  0.4530  0.1260  0.2102
   6223SM   O12 7912   2.030   5.348  16.361  0.5246 -0.0600 -0.5709
   6223SM   C1S 7913   2.323   5.318  16.184 -0.4487 -0.4180  0.4232
   6223SM   H1S 7914   2.412   5.288  16.243 -1.6638  0.0759  2.6167
   6223SM   H1T 7915   2.314   5.428  16.194 -2.6790 -0.6812  1.9636
   6223SM    NF 7916   2.488   5.325  15.995 -0.1129  0.6177 -0.2955
   6223SM   HNF 7917   2.514   5.414  15.957 -0.2145  0.5688 -0.4804
   6223SM   C2S 7918   2.349   5.284  16.034 -0.0938  0.3874  0.2940
   6223SM   H2S 7919   2.345   5.174  16.018 -1.5442  0.6183 -1.0747
   6223SM   C3S 7920   2.234   5.351  15.952 -0.1000  0.8706  0.3307
   6223SM   H3S 7921   2.215   5.459  15.964 -3.2129  0.8947 -2.8765
   6223SM    O3 7922   2.103   5.297  15.980 -0.5533  0.3933 -0.5074
   6223SM   HO3 7923   2.109   5.235  16.053 -1.5620 -0.1026 -0.8237
   6223SM   C4S 7924   2.264   5.348  15.803  0.5054 -0.3183 -0.5394
   6223SM   H4S 7925   2.327   5.430  15.763  0.2651 -0.4303 -1.1557
   6223SM   C5S 7926   2.215   5.251  15.720 -0.0334 -0.0508  0.3914
   6223SM   H5S 7927   2.131   5.190  15.757  0.2461 -1.0639 -0.6210
   6223SM   C6S 7928   2.243   5.247  15.572 -0.5714  0.2137 -0.2147
   6223SM   H6S 7929   2.261   5.141  15.544  1.4189 -0.0020  1.6002
   6223SM   H6T 7930   2.344   5.282  15.543  0.6874 -2.3316  0.8160
   6223SM   C7S 7931   2.144   5.310  15.472  0.1207  0.2070  0.3082
   6223SM   H7S 7932   2.147   5.417  15.503 -1.5836  0.2006  0.6090
   6223SM   H7T 7933   2.039   5.272  15.480  0.4596 -0.5740  1.2899
   6223SM   C8S 7934   2.192   5.276  15.328  0.4398 -0.2595 -0.5916
   6223SM   H8S 7935   2.179   5.166  15.313 -1.4061 -0.1409 -0.1311
   6223SM   H8T 7936   2.300   5.296  15.319  1.0288 -2.9136 -0.3327
   6223SM   C9S 7937   2.112   5.340  15.209 -0.3512  0.0753 -0.1639
   6223SM   H9S 7938   2.130   5.447  15.233  0.7558 -0.4218  1.4428
   6223SM   H9T 7939   2.003   5.321  15.220 -0.1156 -1.7254 -0.6721
   6223SM  C10S 7940   2.159   5.307  15.070 -1.5978 -0.0370 -0.0373
   6223SM  H10S 7941   2.172   5.197  15.058 -3.4733 -0.5412  1.9374
   6223SM  H10T 7942   2.267   5.335  15.062 -0.9188 -2.3009  0.3111
   6223SM  C11S 7943   2.094   5.373  14.956  0.2100 -0.5180 -0.3584
   6223SM  H11S 7944   2.107   5.482  14.973  1.6587 -1.2596  5.1140
   6223SM  H11T 7945   1.986   5.346  14.950  0.2564 -0.3890 -2.1405
   6223SM  C12S 7946   2.165   5.340  14.829  0.4861  0.3889  0.2329
   6223SM  H12S 7947   2.152   5.239  14.786  1.1742  0.9387 -1.3807
   6223SM  H12T 7948   2.276   5.345  14.837  0.6291 -0.5445 -0.9137
   6223SM  C13S 7949   2.127   5.437  14.714 -0.0708 -0.1474 -0.1092
   6223SM  H13S 7950   2.163   5.539  14.736  0.0427 -0.5008  1.4877
   6223SM  H13T 7951   2.017   5.449  14.719  0.0489  0.5804  1.0403
   6223SM  C14S 7952   2.177   5.390  14.576  0.7264  0.2983  0.2471
   6223SM  H14S 7953   2.131   5.289  14.563  0.3527  0.6904 -1.7776
   6223SM  H14T 7954   2.284   5.360  14.575 -0.0499 -3.3462 -3.4842
   6223SM  C15S 7955   2.143   5.474  14.452  0.2788 -0.5632 -0.1434
   6223SM  H15S 7956   2.176   5.579  14.469 -0.6942  0.0638 -1.8543
   6223SM  H15T 7957   2.034   5.486  14.430  0.3999 -1.2192 -1.1805
   6223SM  C16S 7958   2.213   5.438  14.318  0.6251  0.0246  0.3737
   6223SM  H16S 7959   2.171   5.338  14.292 -1.6724  1.0062  0.0756
   6223SM  H16T 7960   2.323   5.424  14.328  0.7144 -0.6287 -1.2227
   6223SM  C17S 7961   2.193   5.553  14.204 -0.0967 -0.2236  0.3229
   6223SM  H17S 7962   2.254   5.526  14.115 -0.2001  2.3486 -0.6158
   6223SM  H17T 7963   2.245   5.642  14.245 -0.0787  0.7944 -1.8187
   6223SM  C18S 7964   2.049   5.586  14.154  0.8024  0.0286 -0.9821
   6223SM  H18S 7965   2.025   5.515  14.072  1.0818 -1.2640  0.0238
   6223SM  H18T 7966   2.047   5.689  14.111  1.0363  0.7907  0.7623
   6223SM  H18U 7967   1.974   5.564  14.233  1.8815 -0.9508 -0.2036
   6223SM   C1F 7968   2.591   5.240  16.012 -0.4627  0.1103 -0.8558
   6223SM    OF 7969   2.582   5.155  16.098  0.3952 -0.1983  0.0310
   6223SM   C2F 7970   2.708   5.250  15.922 -0.0694 -0.3189  0.5000
   6223SM   H2F 7971   2.711   5.157  15.862  2.4361  0.9213 -1.5180
   6223SM   H2G 7972   2.807   5.247  15.972 -0.0168 -0.3142  0.3967
   6223SM   C3F 7973   2.704   5.373  15.828  0.3158 -0.9412 -0.2220
   6223SM   H3F 7974   2.695   5.468  15.886  2.7100 -0.2581 -0.8477
   6223SM   H3G 7975   2.614   5.350  15.768  0.2326 -0.1468 -0.4145
   6223SM   C4F 7976   2.829   5.394  15.740 -0.1269  0.0828 -0.5753
   6223SM   H4F 7977   2.827   5.313  15.664  1.2443 -1.5624  1.0831
   6223SM   H4G 7978   2.926   5.386  15.792 -1.2010  1.1775  1.7302
   6223SM   C5F 7979   2.842   5.531  15.671 -0.4438 -1.0742 -0.1637
   6223SM   H5F 7980   2.919   5.520  15.592 -1.6400  0.5682 -1.6337
   6223SM   H5G 7981   2.869   5.605  15.750 -2.6147  1.2252 -1.4407
   6223SM   C6F 7982   2.715   5.582  15.600  0.1773  0.8794 -0.2920
   6223SM   H6F 7983   2.622   5.578  15.661  0.3258 -0.1904 -0.1135
   6223SM   H6G 7984   2.696   5.507  15.520  0.5668  0.1407  0.3008
   6223SM   C7F 7985   2.724   5.727  15.537 -0.0725 -0.4048  0.3494
   6223SM   H7F 7986   2.817   5.709  15.479 -0.7206 -2.9025 -0.0466
   6223SM   H7G 7987   2.742   5.795  15.623  0.3075  0.0553 -0.0848
   6223SM   C8F 7988   2.608   5.756  15.450 -0.4177  0.3293  0.4154
   6223SM   H8F 7989   2.629   5.851  15.397  0.6634  0.4043  0.9554
   6223SM   H8G 7990   2.519   5.760  15.517 -0.7616 -1.2334  0.0884
   6223SM   C9F 7991   2.576   5.646  15.351 -0.1235 -0.3212  0.4883
   6223SM   H9F 7992   2.529   5.557  15.398 -0.7180 -1.2427 -1.7439
   6223SM   H9G 7993   2.670   5.611  15.304 -0.2701  0.5216 -0.4523
   6223SM  C10F 7994   2.482   5.697  15.241  0.5623  0.1869  0.2159
   6223SM  H10F 7995   2.526   5.785  15.190 -2.5976  0.7882 -1.7589
   6223SM  H10G 7996   2.386   5.728  15.290  0.4855  0.0315  0.1649
   6223SM  C11F 7997   2.455   5.595  15.122  0.4785 -0.3521  0.3583
   6223SM  H11F 7998   2.404   5.654  15.043  0.8813  0.7763  0.9194
   6223SM  H11G 7999   2.384   5.518  15.160  0.7208  0.9854  3.9299
   6223SM  C12F 8000   2.586   5.544  15.055  0.5250  0.0756  0.6452
   6223SM  H12F 8001   2.650   5.501  15.135 -0.9863 -1.0512  1.2894
   6223SM  H12G 8002   2.634   5.631  15.004  0.0186 -0.9920 -1.7576
   6223SM  C13F 8003   2.571   5.439  14.955  0.5187 -0.0605 -0.2958
   6223SM  H13F 8004   2.500   5.472  14.876 -0.7489 -0.1724  0.7693
   6223SM  H13G 8005   2.529   5.350  15.006  0.9153  0.4942  1.0423
   6223SM  C14F 8006   2.699   5.387  14.889 -0.4769  0.2559  0.2796
   6223SM  H14F 8007   2.782   5.370  14.961  0.5910 -0.6211 -1.1027
   6223SM  H14G 8008   2.722   5.474  14.822 -2.1330  1.5687  1.3239
   6223SM  C15F 8009   2.660   5.270  14.797 -0.6586  0.6433  0.1166
   6223SM  H15F 8010   2.581   5.318  14.735 -1.6288  0.4929  1.2059
   6223SM  H15G 8011   2.617   5.184  14.853 -2.3808  0.5356 -1.3004
   6223SM  C16F 8012   2.776   5.225  14.716  0.3260  0.2093  0.0748
   6223SM  H16F 8013   2.860   5.193  14.780 -0.9432 -1.0520  1.1775
   6223SM  H16G 8014   2.811   5.314  14.659 -0.7979 -0.4422 -1.7540
   6223SM  C17F 8015   2.747   5.110  14.615 -0.2170 -0.0077  0.2412
   6223SM  H17F 8016   2.721   5.162  14.521  0.6807  1.1138  0.5932
   6223SM  H17G 8017   2.662   5.056  14.661  1.6570 -2.3906  1.1495
   6223SM  C18F 8018   2.873   5.029  14.573  0.6143  0.4981 -0.3753
   6223SM  H18F 8019   2.900   4.952  14.649 -0.5166  0.0804 -0.3735
   6223SM  H18G 8020   2.954   5.101  14.551 -0.0724  1.4485  0.1450
   6223SM  C19F 8021   2.842   4.943  14.445 -0.3280  0.1828 -0.5796
   6223SM  H19F 8022   2.917   4.862  14.446  1.8327  2.0356  1.5237
   6223SM  H19G 8023   2.852   5.011  14.357  1.9234  0.3606 -0.2452
   6223SM  C20F 8024   2.704   4.876  14.451 -0.0369  0.4046 -0.2751
   6223SM  H20F 8025   2.686   4.820  14.356 -0.6378  1.6839 -0.9386
   6223SM  H20G 8026   2.617   4.943  14.442 -0.0775  0.2211 -1.4255
   6223SM  C21F 8027   2.701   4.769  14.568  0.2459  0.1259  0.2853
   6223SM  H21F 8028   2.692   4.824  14.664 -1.0239  3.7346 -1.7388
   6223SM  H21G 8029   2.799   4.717  14.562  0.2925  0.2076  0.3432
   6223SM  C22F 8030   2.598   4.651  14.558 -0.0797  0.1966  0.2645
   6223SM  H22F 8031   2.628   4.596  14.466 -1.7665 -2.4425  1.1717
   6223SM  H22G 8032   2.497   4.697  14.559  0.1170  0.6363  1.3954
   6223SM  C23F 8033   2.603   4.555  14.681  0.0230 -0.0889  0.4942
   6223SM  H23F 8034   2.514   4.489  14.682  0.9276 -1.3459  0.1545
   6223SM  H23G 8035   2.608   4.628  14.765 -0.9028  0.6202 -0.0354
   6223SM  H23H 8036   2.692   4.489  14.677  0.5871  0.7110 -2.0829
   6323SM     N 8037   4.182   6.815  16.481 -0.2716  0.4313 -0.0820
   6323SM   C15 8038   4.332   6.773  16.518  0.5914  0.5496 -0.2909
   6323SM  H15A 8039   4.397   6.779  16.432  1.3032 -0.7636  0.1370
   6323SM  H15B 8040   4.346   6.672  16.553  1.5751 -0.2664 -2.8400
   6323SM  H15C 8041   4.374   6.833  16.598  1.1205  1.1876 -1.0327
   6323SM   C14 8042   4.134   6.711  16.379  0.4281 -0.9929 -0.7703
   6323SM  H14A 8043   4.168   6.615  16.415 -1.0427 -0.7512  1.4577
   6323SM  H14B 8044   4.192   6.727  16.289 -0.1219  1.3807 -0.7551
   6323SM  H14C 8045   4.029   6.696  16.360  0.4404 -2.0965 -0.0560
   6323SM   C13 8046   4.091   6.810  16.597 -0.2406  0.0478  0.2364
   6323SM  H13A 8047   4.119   6.888  16.667 -0.5072 -0.4838  0.9413
   6323SM  H13B 8048   4.097   6.709  16.635 -0.6936  0.2712  0.9088
   6323SM  H13C 8049   3.990   6.831  16.564 -0.0446 -0.8299 -0.9982
   6323SM   C12 8050   4.182   6.952  16.424 -0.2994  0.0825  1.0866
   6323SM  H12A 8051   4.232   7.018  16.492 -0.2855  1.8100 -0.5175
   6323SM  H12B 8052   4.089   7.007  16.414 -0.0197  0.5633  1.0981
   6323SM   C11 8053   4.259   6.968  16.290  0.2990  0.2920  0.6167
   6323SM  H11A 8054   4.236   7.062  16.236  0.0259 -0.1350 -0.0358
   6323SM  H11B 8055   4.243   6.898  16.205  0.9672  0.6100  0.2170
   6323SM     P 8056   4.507   7.057  16.258  0.4385 -0.0387  0.0892
   6323SM   O13 8057   4.469   7.195  16.301 -0.7495  0.3363  0.6330
   6323SM   O14 8058   4.638   7.006  16.292  0.4450  0.1236 -0.3258
   6323SM   O11 8059   4.480   7.049  16.105 -0.4727  0.2474 -0.4181
   6323SM   O12 8060   4.396   6.960  16.317 -0.8532  0.1674  0.7650
   6323SM   C1S 8061   4.484   6.924  16.040  0.4165 -0.4879  0.3345
   6323SM   H1S 8062   4.390   6.870  16.064  0.3971 -0.7809 -0.3773
   6323SM   H1T 8063   4.567   6.862  16.080 -0.1614 -1.4400  0.0633
   6323SM    NF 8064   4.426   6.830  15.818 -0.6594  0.0750 -0.4845
   6323SM   HNF 8065   4.495   6.784  15.762 -0.7456 -0.5996 -0.0489
   6323SM   C2S 8066   4.466   6.950  15.884 -0.6826  0.4746  0.7764
   6323SM   H2S 8067   4.387   7.025  15.861 -0.5188  0.3790 -0.1525
   6323SM   C3S 8068   4.591   7.024  15.835 -0.2455 -0.6366 -1.5212
   6323SM   H3S 8069   4.670   6.948  15.818  0.3809  0.4148 -3.6949
   6323SM    O3 8070   4.649   7.126  15.921  0.5244  0.3685  0.5859
   6323SM   HO3 8071   4.614   7.116  16.010 -0.4003  0.7966  0.2874
   6323SM   C4S 8072   4.571   7.074  15.700 -0.7530 -0.0246 -1.0323
   6323SM   H4S 8073   4.595   7.001  15.621 -2.0865 -0.0746 -1.4223
   6323SM   C5S 8074   4.543   7.195  15.662  0.0457 -0.2709  0.4216
   6323SM   H5S 8075   4.536   7.283  15.728  0.2086  0.6302 -0.7177
   6323SM   C6S 8076   4.524   7.221  15.515  0.0710 -0.4159 -0.0751
   6323SM   H6S 8077   4.420   7.249  15.485  1.1848  1.0406 -3.0217
   6323SM   H6T 8078   4.547   7.130  15.455 -0.6331 -0.0194 -0.9854
   6323SM   C7S 8079   4.622   7.316  15.450 -0.0945  0.1395 -0.0578
   6323SM   H7S 8080   4.726   7.282  15.470  0.4292  0.1206 -2.5102
   6323SM   H7T 8081   4.619   7.420  15.489  1.0197 -0.5524  2.0549
   6323SM   C8S 8082   4.600   7.335  15.298  0.3666 -0.2254  0.5323
   6323SM   H8S 8083   4.523   7.414  15.287  0.0047 -0.5269  0.8383
   6323SM   H8T 8084   4.564   7.240  15.253 -2.3236  0.0269  1.9636
   6323SM   C9S 8085   4.728   7.387  15.234  0.4363 -0.4639 -0.1802
   6323SM   H9S 8086   4.798   7.302  15.244  0.5792 -0.3280 -0.0228
   6323SM   H9T 8087   4.769   7.482  15.273 -2.6253  0.4962  1.0480
   6323SM  C10S 8088   4.714   7.415  15.083 -0.3086 -0.1306 -0.3464
   6323SM  H10S 8089   4.653   7.507  15.078 -0.4393 -0.2508 -1.1267
   6323SM  H10T 8090   4.656   7.330  15.040  1.0722 -0.3698 -1.8659
   6323SM  C11S 8091   4.851   7.442  15.014  0.0590  0.5928  0.2362
   6323SM  H11S 8092   4.914   7.351  15.021  1.3366  1.5534  2.0393
   6323SM  H11T 8093   4.908   7.529  15.053 -0.7875  1.6674 -0.8272
   6323SM  C12S 8094   4.827   7.470  14.864 -0.2292  0.3943  0.0787
   6323SM  H12S 8095   4.782   7.570  14.848  1.3439  1.2744  0.9669
   6323SM  H12T 8096   4.766   7.385  14.825 -0.3470  0.1317  0.8229
   6323SM  C13S 8097   4.959   7.473  14.789  0.6186 -0.4736 -0.1464
   6323SM  H13S 8098   5.009   7.375  14.804  3.0220  0.8842  1.1539
   6323SM  H13T 8099   5.017   7.547  14.848  0.3079  0.8267 -1.4203
   6323SM  C14S 8100   4.967   7.514  14.644  0.3200  0.2025 -0.0684
   6323SM  H14S 8101   4.960   7.419  14.587 -1.7038  1.8840 -2.8687
   6323SM  H14T 8102   5.062   7.570  14.627 -1.4539  2.7930 -2.3825
   6323SM  C15S 8103   4.854   7.604  14.593  0.1891  1.3614  0.0080
   6323SM  H15S 8104   4.852   7.694  14.657 -0.2162  1.9538 -0.8229
   6323SM  H15T 8105   4.756   7.551  14.602  0.3485  0.9450 -0.6239
   6323SM  C16S 8106   4.879   7.653  14.448 -0.3497 -0.2099 -0.1483
   6323SM  H16S 8107   4.959   7.731  14.446 -0.3113 -0.2019  0.8981
   6323SM  H16T 8108   4.782   7.691  14.411 -1.4740 -1.0705  1.7603
   6323SM  C17S 8109   4.902   7.537  14.352  0.3960 -0.3614 -1.0096
   6323SM  H17S 8110   4.823   7.462  14.374  1.5109 -1.0218  1.0030
   6323SM  H17T 8111   5.001   7.492  14.374  1.2786  1.3312 -1.2805
   6323SM  C18S 8112   4.905   7.571  14.201 -1.2367  0.2649 -0.1929
   6323SM  H18S 8113   4.948   7.487  14.143  0.3881  0.8455  0.1362
   6323SM  H18T 8114   4.973   7.658  14.191 -0.2134 -0.1817  2.1741
   6323SM  H18U 8115   4.803   7.609  14.176 -0.7295  0.9076 -1.3096
   6323SM   C1F 8116   4.297   6.785  15.825 -0.1426 -0.0223 -0.0385
   6323SM    OF 8117   4.207   6.852  15.884  0.7161  0.1348  0.4248
   6323SM   C2F 8118   4.265   6.652  15.762  0.6651  0.1252  0.2781
   6323SM   H2F 8119   4.250   6.583  15.848 -2.5578 -0.7823 -0.8834
   6323SM   H2G 8120   4.343   6.616  15.692 -0.1632  0.9445 -1.1128
   6323SM   C3F 8121   4.135   6.660  15.679 -0.0561 -0.3389 -0.0653
   6323SM   H3F 8122   4.130   6.730  15.593 -1.4570  0.9112  0.9757
   6323SM   H3G 8123   4.052   6.704  15.738 -1.7417 -0.8111 -1.9816
   6323SM   C4F 8124   4.097   6.515  15.633  0.1336 -0.2977 -0.2841
   6323SM   H4F 8125   3.999   6.518  15.581  0.7469 -1.4172 -1.5759
   6323SM   H4G 8126   4.078   6.444  15.717  0.1892 -2.1625 -1.7799
   6323SM   C5F 8127   4.191   6.457  15.525 -0.2809 -0.1800 -0.9975
   6323SM   H5F 8128   4.273   6.403  15.577 -0.5036  0.9192  0.5569
   6323SM   H5G 8129   4.240   6.544  15.477 -1.4081  2.1651  1.8468
   6323SM   C6F 8130   4.118   6.373  15.419  0.2619 -0.2363 -0.3573
   6323SM   H6F 8131   4.042   6.436  15.367 -0.0536  1.4300  1.9600
   6323SM   H6G 8132   4.058   6.290  15.462  0.2203 -0.8086 -1.4861
   6323SM   C7F 8133   4.219   6.343  15.306  0.5455 -0.2927  0.5222
   6323SM   H7F 8134   4.310   6.308  15.358 -0.3230 -2.8538  0.4535
   6323SM   H7G 8135   4.227   6.437  15.247  0.3812 -0.0562  0.8677
   6323SM   C8F 8136   4.158   6.241  15.211 -0.0239  0.5656 -0.2786
   6323SM   H8F 8137   4.103   6.166  15.272  1.0790 -1.3020 -1.4929
   6323SM   H8G 8138   4.237   6.181  15.162  0.1506  0.8216 -0.3152
   6323SM   C9F 8139   4.069   6.281  15.089  0.2275  0.3123 -0.1982
   6323SM   H9F 8140   4.108   6.362  15.024  0.3345  0.9088  0.5948
   6323SM   H9G 8141   3.969   6.312  15.126  0.0841 -0.4421  0.0670
   6323SM  C10F 8142   4.061   6.163  14.988  0.8442  0.4610  1.0260
   6323SM  H10F 8143   4.034   6.077  15.053  2.3062  1.4267  3.0189
   6323SM  H10G 8144   4.153   6.141  14.929 -1.3823  0.4193 -2.7666
   6323SM  C11F 8145   3.937   6.181  14.892  0.4476  0.0473 -0.7096
   6323SM  H11F 8146   3.949   6.263  14.818  0.4722 -0.6538 -1.4910
   6323SM  H11G 8147   3.846   6.228  14.935 -1.1410 -1.4277 -2.2938
   6323SM  C12F 8148   3.918   6.053  14.805  0.0409 -0.1935  0.3354
   6323SM  H12F 8149   3.910   5.970  14.878 -1.4582  1.0328  1.6314
   6323SM  H12G 8150   4.001   6.032  14.734 -0.5231  0.0617 -0.4151
   6323SM  C13F 8151   3.795   6.057  14.710  0.2366  0.4081  0.0796
   6323SM  H13F 8152   3.706   6.067  14.775  0.7728  0.9397  0.7553
   6323SM  H13G 8153   3.789   5.963  14.651 -2.1844  0.8797 -0.5225
   6323SM  C14F 8154   3.793   6.176  14.616  0.5041  0.1786 -0.0774
   6323SM  H14F 8155   3.790   6.278  14.660  3.5370  1.6521 -2.8527
   6323SM  H14G 8156   3.691   6.176  14.572 -0.0179  0.8492  1.0996
   6323SM  C15F 8157   3.897   6.184  14.506  0.0566  0.1654  0.6165
   6323SM  H15F 8158   4.002   6.199  14.541  0.8868  0.6799 -1.8772
   6323SM  H15G 8159   3.882   6.268  14.435  0.3791  1.5257  2.0875
   6323SM  C16F 8160   3.908   6.052  14.432 -0.3171  0.1960  0.3967
   6323SM  H16F 8161   3.805   6.022  14.403 -0.3866  0.6962  0.1044
   6323SM  H16G 8162   3.956   5.969  14.487  2.0480 -0.0215 -1.8085
   6323SM  C17F 8163   3.988   6.074  14.299 -0.2028  0.0054  0.0944
   6323SM  H17F 8164   4.093   6.100  14.325  0.5165 -1.5642 -1.1071
   6323SM  H17G 8165   3.950   6.152  14.231  0.2788  0.7945  0.7079
   6323SM  C18F 8166   3.985   5.936  14.225 -0.1852 -0.6328 -0.3687
   6323SM  H18F 8167   3.884   5.926  14.180 -1.5847  1.1503  2.0987
   6323SM  H18G 8168   3.990   5.854  14.300 -1.5374 -0.7576 -0.3887
   6323SM  C19F 8169   4.094   5.926  14.118 -0.0166 -0.1562 -0.1867
   6323SM  H19F 8170   4.193   5.909  14.165  1.9057  3.4290 -2.4631
   6323SM  H19G 8171   4.110   6.023  14.067 -0.2297  0.9050  1.6577
   6323SM  C20F 8172   4.084   5.802  14.018 -0.0553  0.1650  0.0501
   6323SM  H20F 8173   4.156   5.816  13.934  1.3510 -1.2813  0.9551
   6323SM  H20G 8174   3.982   5.797  13.975 -0.2368  1.5134  0.2793
   6323SM  C21F 8175   4.097   5.663  14.079 -0.8236 -0.1831 -0.2170
   6323SM  H21F 8176   4.017   5.638  14.152 -1.6771  1.0486 -0.6768
   6323SM  H21G 8177   4.200   5.657  14.121 -0.6287  2.1389 -0.1900
   6323SM  C22F 8178   4.090   5.549  13.968 -0.1592 -0.6175 -0.2963
   6323SM  H22F 8179   3.985   5.548  13.930 -0.5049 -1.3731  0.6316
   6323SM  H22G 8180   4.116   5.449  14.007  1.2536 -1.1650 -2.4537
   6323SM  C23F 8181   4.175   5.567  13.841  0.0369 -0.5524  0.1130
   6323SM  H23F 8182   4.167   5.670  13.799 -0.9823 -0.3903  0.6691
   6323SM  H23G 8183   4.135   5.496  13.765 -0.6489  3.2621 -3.4685
   6323SM  H23H 8184   4.282   5.562  13.869 -0.0083  1.1125  0.7242
   6423SM     N 8185   5.288   5.519  16.376 -0.0059  0.2998 -0.4040
   6423SM   C15 8186   5.360   5.399  16.434  0.6149  0.0861  0.1255
   6423SM  H15A 8187   5.292   5.340  16.494  0.7635 -0.1242  0.0894
   6423SM  H15B 8188   5.446   5.431  16.489 -1.3634  0.6317  3.1164
   6423SM  H15C 8189   5.391   5.330  16.356  0.2168  0.5106 -0.4236
   6423SM   C14 8190   5.368   5.593  16.280 -0.0365 -0.0242 -0.5869
   6423SM  H14A 8191   5.302   5.669  16.241  0.3683  0.5175 -0.2255
   6423SM  H14B 8192   5.412   5.532  16.202  2.8631  2.9469 -1.4990
   6423SM  H14C 8193   5.451   5.638  16.331 -0.8074 -0.4722  1.1322
   6423SM   C13 8194   5.170   5.470  16.310  0.0173  0.1548  0.2904
   6423SM  H13A 8195   5.196   5.405  16.227 -0.5418  1.0816 -0.6331
   6423SM  H13B 8196   5.098   5.543  16.276 -1.2386 -1.2619 -0.1966
   6423SM  H13C 8197   5.124   5.399  16.376  0.0926  1.6169  1.9691
   6423SM   C12 8198   5.250   5.610  16.502 -0.7310 -0.1130 -1.0345
   6423SM  H12A 8199   5.339   5.621  16.561 -1.0675 -0.2958 -0.4881
   6423SM  H12B 8200   5.179   5.549  16.556 -2.5699 -0.1178 -3.2666
   6423SM   C11 8201   5.180   5.747  16.473 -0.0650  0.1420 -0.4770
   6423SM  H11A 8202   5.263   5.814  16.439  0.2896  0.6369  1.2732
   6423SM  H11B 8203   5.143   5.793  16.566  1.6953  0.4723  0.1091
   6423SM     P 8204   4.963   5.839  16.346 -0.3746 -0.5151 -0.1486
   6423SM   O13 8205   4.867   5.800  16.448 -0.5299  0.6080 -0.8313
   6423SM   O14 8206   5.013   5.975  16.343 -0.0224  0.1376 -0.3477
   6423SM   O11 8207   4.903   5.787  16.202 -0.0800  0.1362  0.1024
   6423SM   O12 8208   5.082   5.744  16.366 -0.2598 -0.7720  0.2051
   6423SM   C1S 8209   4.876   5.643  16.192  0.6963 -0.2720 -0.2699
   6423SM   H1S 8210   4.776   5.625  16.236  1.8964 -2.0874  1.9468
   6423SM   H1T 8211   4.942   5.581  16.257  3.4938  2.8258  0.1512
   6423SM    NF 8212   4.828   5.468  16.023 -0.4561 -0.5353 -0.4688
   6423SM   HNF 8213   4.884   5.386  16.020 -0.2851 -0.3950 -1.5030
   6423SM   C2S 8214   4.891   5.596  16.042 -0.5457  0.7145  0.3098
   6423SM   H2S 8215   4.827   5.670  15.988 -1.7111 -0.2545  0.3201
   6423SM   C3S 8216   5.034   5.605  15.979 -0.6148  0.5227  0.7560
   6423SM   H3S 8217   5.090   5.537  16.047 -2.9923  1.4838  3.9330
   6423SM    O3 8218   5.103   5.725  16.005  0.5839  0.1796  0.6541
   6423SM   HO3 8219   5.045   5.775  16.063  1.5073  0.0567  1.7306
   6423SM   C4S 8220   5.038   5.559  15.838  0.5540  0.3626 -0.2262
   6423SM   H4S 8221   5.041   5.449  15.835 -0.2130  0.3006  0.6553
   6423SM   C5S 8222   5.020   5.634  15.725  0.5558  1.0590 -0.0410
   6423SM   H5S 8223   5.030   5.743  15.732 -0.2037  1.0517  1.9634
   6423SM   C6S 8224   5.004   5.558  15.598 -0.0155  0.8200 -0.3945
   6423SM   H6S 8225   4.990   5.450  15.619  1.5623  0.0596 -2.8394
   6423SM   H6T 8226   5.095   5.559  15.534  2.5746 -1.2664  2.9143
   6423SM   C7S 8227   4.887   5.618  15.521 -0.1008  0.0245 -0.0541
   6423SM   H7S 8228   4.909   5.726  15.505 -0.7830  0.6160  2.5655
   6423SM   H7T 8229   4.788   5.617  15.571 -1.0600  1.1727 -1.8343
   6423SM   C8S 8230   4.894   5.546  15.387  0.7037  0.8736  0.0620
   6423SM   H8S 8231   4.795   5.540  15.338  1.0333 -0.4263 -0.4915
   6423SM   H8T 8232   4.930   5.441  15.399 -0.0599  0.7010  0.9172
   6423SM   C9S 8233   4.973   5.627  15.278 -0.3169 -0.5995  0.2336
   6423SM   H9S 8234   5.083   5.620  15.291  0.3315  2.4526 -2.5423
   6423SM   H9T 8235   4.952   5.735  15.294 -1.5639 -0.4771 -1.9299
   6423SM  C10S 8236   4.942   5.580  15.132  0.3861  0.1146 -0.2808
   6423SM  H10S 8237   4.834   5.600  15.115  0.5077 -0.4044 -1.7863
   6423SM  H10T 8238   4.962   5.471  15.126  2.5174  0.4986 -1.3252
   6423SM  C11S 8239   5.016   5.672  15.034 -0.1155  0.1404 -0.3345
   6423SM  H11S 8240   5.121   5.682  15.069  0.4273 -1.5540 -1.3793
   6423SM  H11T 8241   4.980   5.777  15.039  1.2593  0.6540 -0.8475
   6423SM  C12S 8242   5.014   5.633  14.885  0.1532  0.0107  0.2423
   6423SM  H12S 8243   5.079   5.544  14.870 -0.2640 -0.0734 -1.1972
   6423SM  H12T 8244   5.058   5.722  14.835  0.1075 -0.4043 -0.5532
   6423SM  C13S 8245   4.871   5.608  14.831  0.4714  0.8100  0.4861
   6423SM  H13S 8246   4.803   5.689  14.865  0.8274  1.1983  0.2762
   6423SM  H13T 8247   4.837   5.510  14.870  0.1570 -0.0267 -1.7533
   6423SM  C14S 8248   4.864   5.617  14.673  0.0854  0.0508 -0.3808
   6423SM  H14S 8249   4.922   5.539  14.619 -2.4724 -2.5959  0.3954
   6423SM  H14T 8250   4.905   5.717  14.648  1.6902 -0.1779  1.1777
   6423SM  C15S 8251   4.718   5.589  14.641 -0.1037 -0.3948  0.0592
   6423SM  H15S 8252   4.661   5.661  14.703  0.7718 -0.7290  1.2772
   6423SM  H15T 8253   4.684   5.492  14.683 -2.2324  0.6669  0.9602
   6423SM  C16S 8254   4.671   5.588  14.494 -0.2739 -0.0495 -0.3465
   6423SM  H16S 8255   4.563   5.565  14.487 -0.3788 -0.0416  1.0815
   6423SM  H16T 8256   4.727   5.508  14.442  1.7534  1.1566 -0.1476
   6423SM  C17S 8257   4.690   5.727  14.433  0.3812  0.2821 -0.0605
   6423SM  H17S 8258   4.661   5.715  14.326 -1.3258  2.6044  0.0617
   6423SM  H17T 8259   4.800   5.740  14.422  0.4191 -0.5446 -0.6977
   6423SM  C18S 8260   4.607   5.849  14.481 -0.1450 -0.4980  0.4797
   6423SM  H18S 8261   4.499   5.844  14.457 -0.5480  1.0065  1.8235
   6423SM  H18T 8262   4.659   5.937  14.435 -1.2519 -1.0706 -2.0527
   6423SM  H18U 8263   4.620   5.847  14.591  1.3454 -0.8154  0.3185
   6423SM   C1F 8264   4.697   5.462  16.025  0.1673 -0.5168 -0.2794
   6423SM    OF 8265   4.631   5.566  16.036  0.8253 -0.3299 -0.1880
   6423SM   C2F 8266   4.638   5.325  16.000  0.3939  0.1840 -0.3603
   6423SM   H2F 8267   4.549   5.315  16.065  0.9781  0.2131  0.4663
   6423SM   H2G 8268   4.705   5.239  16.022  0.1839  0.3090  0.7941
   6423SM   C3F 8269   4.578   5.300  15.856  0.1411  0.1998 -0.5489
   6423SM   H3F 8270   4.503   5.380  15.841 -0.8163 -0.0908  2.1247
   6423SM   H3G 8271   4.513   5.210  15.853  1.7775 -1.0158 -2.4233
   6423SM   C4F 8272   4.684   5.303  15.744 -0.2643  0.2546 -0.2029
   6423SM   H4F 8273   4.752   5.391  15.745 -0.0667  0.2870 -3.5830
   6423SM   H4G 8274   4.638   5.308  15.643  0.0309  0.8294 -0.3149
   6423SM   C5F 8275   4.774   5.181  15.749 -0.4141  0.0053  0.2605
   6423SM   H5F 8276   4.795   5.162  15.856  2.1092  2.5018  0.3156
   6423SM   H5G 8277   4.871   5.199  15.699 -0.0990 -1.2760  0.3697
   6423SM   C6F 8278   4.703   5.052  15.682 -0.4870 -0.5360 -1.2566
   6423SM   H6F 8279   4.592   5.056  15.673 -0.7652 -1.9931  0.8143
   6423SM   H6G 8280   4.729   4.965  15.747  1.2854  2.1071  1.8860
   6423SM   C7F 8281   4.757   5.028  15.545 -0.4059  0.2181  0.0056
   6423SM   H7F 8282   4.862   4.993  15.551 -0.3861  0.4820  1.4325
   6423SM   H7G 8283   4.748   5.111  15.472 -0.7284 -1.5795 -2.1092
   6423SM   C8F 8284   4.691   4.903  15.478 -0.0580  0.1734  0.3082
   6423SM   H8F 8285   4.584   4.933  15.478  0.0075  0.5226  1.9673
   6423SM   H8G 8286   4.700   4.814  15.544  0.7270 -0.2406 -0.3398
   6423SM   C9F 8287   4.763   4.871  15.350  0.6294  0.6255 -0.3025
   6423SM   H9F 8288   4.870   4.850  15.374  0.2314 -0.1501  0.8747
   6423SM   H9G 8289   4.748   4.954  15.278 -0.4273 -0.2833 -1.1510
   6423SM  C10F 8290   4.702   4.752  15.282 -0.0085  0.5587  0.1456
   6423SM  H10F 8291   4.591   4.758  15.288  0.0298  3.2796 -0.8412
   6423SM  H10G 8292   4.743   4.673  15.348  0.0040  1.7622  1.6256
   6423SM  C11F 8293   4.742   4.733  15.134  0.5493  0.2677  0.4581
   6423SM  H11F 8294   4.714   4.632  15.095 -0.0324 -0.2436  2.1350
   6423SM  H11G 8295   4.853   4.735  15.127  0.7017 -1.7338  1.3971
   6423SM  C12F 8296   4.656   4.831  15.053 -0.9821  0.1605 -0.0812
   6423SM  H12F 8297   4.665   4.929  15.106 -2.9066  0.8461 -0.9201
   6423SM  H12G 8298   4.548   4.803  15.050 -1.9440  3.5090 -1.0776
   6423SM  C13F 8299   4.684   4.844  14.899 -0.1635 -0.3883  0.6450
   6423SM  H13F 8300   4.646   4.752  14.850  0.8688 -0.6862  0.3656
   6423SM  H13G 8301   4.794   4.856  14.886  0.1533  2.4228  4.3951
   6423SM  C14F 8302   4.626   4.970  14.831  0.2663 -0.6362 -0.2412
   6423SM  H14F 8303   4.691   5.056  14.860  0.2513 -0.7478  0.1309
   6423SM  H14G 8304   4.523   4.981  14.871  1.2058  0.2702  2.1099
   6423SM  C15F 8305   4.615   4.956  14.675  0.0136  0.1644  0.7432
   6423SM  H15F 8306   4.542   4.882  14.636  1.3640 -1.2678  0.8333
   6423SM  H15G 8307   4.717   4.931  14.638 -0.8487 -1.3977 -0.7414
   6423SM  C16F 8308   4.597   5.103  14.618 -0.8093  1.0847 -0.3256
   6423SM  H16F 8309   4.673   5.172  14.661  0.3469  0.2363 -0.9559
   6423SM  H16G 8310   4.499   5.141  14.654 -0.8420  1.3934 -0.7309
   6423SM  C17F 8311   4.614   5.090  14.460 -0.0068  0.2127 -0.0626
   6423SM  H17F 8312   4.555   5.007  14.415  1.3871 -0.5475 -0.5680
   6423SM  H17G 8313   4.722   5.068  14.447  0.3661  0.1598  2.6025
   6423SM  C18F 8314   4.577   5.209  14.382  0.3700  0.3844  0.2371
   6423SM  H18F 8315   4.620   5.302  14.424 -0.5619  0.0423  2.0555
   6423SM  H18G 8316   4.467   5.220  14.389  0.6648  3.1133  2.3181
   6423SM  C19F 8317   4.616   5.190  14.231  0.8610 -1.1597  0.2956
   6423SM  H19F 8318   4.577   5.267  14.160  1.8126 -1.8351 -1.0023
   6423SM  H19G 8319   4.560   5.103  14.190 -1.2869  0.1746  0.2254
   6423SM  C20F 8320   4.764   5.186  14.202  0.3959  0.6140  0.5429
   6423SM  H20F 8321   4.788   5.165  14.095  2.7918 -1.6200  1.4100
   6423SM  H20G 8322   4.809   5.100  14.255  1.3153  1.3097  0.8937
   6423SM  C21F 8323   4.835   5.313  14.244  0.3710 -0.2198 -0.8952
   6423SM  H21F 8324   4.858   5.321  14.352  0.2676  1.3140 -0.9691
   6423SM  H21G 8325   4.769   5.401  14.231 -1.1953 -1.2341 -0.0616
   6423SM  C22F 8326   4.977   5.330  14.182  0.1759  0.3457 -0.2806
   6423SM  H22F 8327   4.996   5.435  14.214 -0.8274  0.8519 -1.2675
   6423SM  H22G 8328   4.971   5.330  14.071 -1.5546 -0.3559 -0.2069
   6423SM  C23F 8329   5.086   5.239  14.241  0.3045 -1.0096  0.1553
   6423SM  H23F 8330   5.082   5.257  14.351  2.6832  0.1419  0.1201
   6423SM  H23G 8331   5.182   5.251  14.186 -0.9639  1.5858 -1.6853
   6423SM  H23H 8332   5.062   5.133  14.220 -0.5265 -0.9387  0.7011
   6523SM     N 8333   5.362   6.535  16.217 -0.0866  0.1085  0.1457
   6523SM   C15 8334   5.355   6.683  16.183 -0.8158 -0.2511 -0.6918
   6523SM  H15A 8335   5.389   6.731  16.274 -2.9298 -0.5492  0.3079
   6523SM  H15B 8336   5.251   6.708  16.173 -0.6598  0.8427  0.2140
   6523SM  H15C 8337   5.411   6.719  16.099  1.1412  1.2557  1.1463
   6523SM   C14 8338   5.289   6.515  16.344  0.2648 -0.0622 -0.3462
   6523SM  H14A 8339   5.301   6.419  16.390 -0.4732  0.2793  0.5996
   6523SM  H14B 8340   5.186   6.540  16.320  0.4721  2.4415  0.9680
   6523SM  H14C 8341   5.315   6.586  16.421 -1.8416 -0.0145  0.3823
   6523SM   C13 8342   5.299   6.453  16.103 -0.2955  0.1437 -0.8682
   6523SM  H13A 8343   5.299   6.351  16.137  4.1915  0.5118  1.0452
   6523SM  H13B 8344   5.369   6.459  16.021  0.9974  1.2904  0.2620
   6523SM  H13C 8345   5.200   6.485  16.076  0.3574  1.1888 -2.1782
   6523SM   C12 8346   5.512   6.492  16.228 -0.0969  0.3229 -0.9179
   6523SM  H12A 8347   5.544   6.557  16.309  2.1029  0.1805 -1.5864
   6523SM  H12B 8348   5.571   6.521  16.141 -2.1371  1.7571 -1.9091
   6523SM   C11 8349   5.554   6.351  16.267  0.2894 -0.4801  0.3873
   6523SM  H11A 8350   5.664   6.347  16.260  0.3887  1.3944  0.3252
   6523SM  H11B 8351   5.514   6.284  16.188  0.1852 -1.1064  0.9555
   6523SM     P 8352   5.416   6.192  16.425 -0.1913  0.3258  0.1625
   6523SM   O13 8353   5.487   6.105  16.520  0.1700  0.0221  0.3691
   6523SM   O14 8354   5.279   6.243  16.456  0.0072  0.6892  0.1606
   6523SM   O11 8355   5.419   6.114  16.289 -0.2140  0.1575  1.0223
   6523SM   O12 8356   5.509   6.314  16.398  0.3942 -0.1275  0.2568
   6523SM   C1S 8357   5.290   6.082  16.224 -0.0006 -0.1146 -0.1359
   6523SM   H1S 8358   5.223   6.171  16.223 -1.2817 -1.0549  0.4299
   6523SM   H1T 8359   5.238   6.000  16.277 -0.9096  0.1090 -0.6599
   6523SM    NF 8360   5.174   6.013  16.017 -0.8566 -0.0983 -0.3128
   6523SM   HNF 8361   5.152   5.921  15.984 -1.0561  0.7090 -2.6768
   6523SM   C2S 8362   5.303   6.030  16.075  0.8575 -0.1069  0.0799
   6523SM   H2S 8363   5.355   6.119  16.033  1.2036  0.9381  2.5496
   6523SM   C3S 8364   5.399   5.908  16.061 -0.0008 -0.6766  0.1431
   6523SM   H3S 8365   5.369   5.815  16.114 -1.0912 -1.5097 -1.8206
   6523SM    O3 8366   5.529   5.943  16.116  0.5136  0.2321  0.2664
   6523SM   HO3 8367   5.508   6.008  16.184 -2.6285  1.3014 -1.5054
   6523SM   C4S 8368   5.423   5.883  15.913  0.6652  0.7296  0.1338
   6523SM   H4S 8369   5.481   5.964  15.865 -0.8210  0.1590 -2.8832
   6523SM   C5S 8370   5.378   5.790  15.824 -0.2944 -0.1760 -0.7215
   6523SM   H5S 8371   5.311   5.709  15.856 -1.2414  0.4429 -1.0825
   6523SM   C6S 8372   5.420   5.803  15.679  0.1001  0.6554  0.6116
   6523SM   H6S 8373   5.375   5.732  15.606 -0.9911  1.0104  0.9089
   6523SM   H6T 8374   5.529   5.781  15.674  0.2969  1.3958  1.4515
   6523SM   C7S 8375   5.398   5.940  15.612 -0.3230 -0.1274 -0.2465
   6523SM   H7S 8376   5.440   5.935  15.510 -2.6781  1.5065 -1.3883
   6523SM   H7T 8377   5.451   6.026  15.660 -0.5650  1.6015 -2.8852
   6523SM   C8S 8378   5.250   5.976  15.602  0.3757 -0.0230 -0.4850
   6523SM   H8S 8379   5.216   6.045  15.682 -1.2580  0.2144 -1.3573
   6523SM   H8T 8380   5.188   5.886  15.624  0.3134  0.7011  2.8786
   6523SM   C9S 8381   5.209   6.038  15.471  0.7087 -0.6483 -0.0859
   6523SM   H9S 8382   5.242   5.967  15.392 -0.2132  0.9113 -1.9824
   6523SM   H9T 8383   5.252   6.139  15.453  0.8120 -0.7367 -0.3420
   6523SM  C10S 8384   5.055   6.057  15.465 -0.2484  0.4059  0.5023
   6523SM  H10S 8385   5.018   6.118  15.550 -1.9220 -0.9755  0.8338
   6523SM  H10T 8386   5.008   5.956  15.469  0.9150 -0.1736  0.0118
   6523SM  C11S 8387   4.999   6.138  15.349  0.1604  0.5821 -0.2958
   6523SM  H11S 8388   5.059   6.232  15.344  1.6331 -0.3025 -0.0350
   6523SM  H11T 8389   4.898   6.180  15.367 -1.1526 -1.9328 -1.3344
   6523SM  C12S 8390   4.984   6.058  15.219 -0.0724  0.0699 -0.0962
   6523SM  H12S 8391   4.904   5.983  15.234 -2.1031  2.0986 -0.2668
   6523SM  H12T 8392   5.081   6.006  15.205  0.1809  0.0936  1.3562
   6523SM  C13S 8393   4.936   6.136  15.094  0.6624  0.2507  0.0784
   6523SM  H13S 8394   5.001   6.224  15.076  1.6542 -0.7261 -1.3086
   6523SM  H13T 8395   4.828   6.161  15.109 -0.3971 -1.8351 -2.9805
   6523SM  C14S 8396   4.934   6.054  14.960 -0.1318  0.1926 -0.1453
   6523SM  H14S 8397   4.866   5.967  14.973 -0.7744  0.9350  1.7455
   6523SM  H14T 8398   5.036   6.016  14.941  0.1867  0.6123  0.6927
   6523SM  C15S 8399   4.890   6.136  14.835  0.9296 -0.1946 -0.0236
   6523SM  H15S 8400   4.957   6.223  14.820  0.1165  0.4798  0.1642
   6523SM  H15T 8401   4.787   6.174  14.852 -0.1022 -3.6250  2.5516
   6523SM  C16S 8402   4.894   6.062  14.699  0.7849 -0.0231 -0.6534
   6523SM  H16S 8403   4.814   5.985  14.694  0.6208  0.1962 -1.5311
   6523SM  H16T 8404   4.994   6.015  14.701  0.5406 -0.5834  1.3411
   6523SM  C17S 8405   4.889   6.151  14.574 -0.1260  0.1332  0.1447
   6523SM  H17S 8406   4.954   6.240  14.587  0.4227 -0.3912  1.1908
   6523SM  H17T 8407   4.789   6.198  14.583 -0.2200  0.1420 -0.9203
   6523SM  C18S 8408   4.908   6.088  14.438  0.3655  0.0080 -0.0833
   6523SM  H18S 8409   5.017   6.089  14.417  0.2545  0.9335 -0.6750
   6523SM  H18T 8410   4.857   6.141  14.354  0.2331 -2.0188 -1.3698
   6523SM  H18U 8411   4.865   5.986  14.441 -0.2973  0.2294 -1.2730
   6523SM   C1F 8412   5.095   6.122  16.011  0.4050  0.2101  0.0486
   6523SM    OF 8413   5.133   6.239  16.011  0.7459 -0.1056  0.6232
   6523SM   C2F 8414   4.950   6.093  15.999  0.5169 -0.3554  0.4816
   6523SM   H2F 8415   4.885   6.178  16.031  0.4665 -1.0739  2.4517
   6523SM   H2G 8416   4.927   6.004  16.061  0.6799 -2.0287 -1.7405
   6523SM   C3F 8417   4.919   6.045  15.855  0.0917  0.4181 -0.5942
   6523SM   H3F 8418   4.974   5.955  15.821 -1.1951  0.5157 -3.1500
   6523SM   H3G 8419   4.956   6.126  15.788 -1.4958  1.7749  0.0769
   6523SM   C4F 8420   4.772   6.005  15.842  0.4458  0.5547 -0.0604
   6523SM   H4F 8421   4.717   6.101  15.841 -1.4075 -0.4516 -0.0346
   6523SM   H4G 8422   4.745   5.941  15.929 -0.2466  1.0488  0.0912
   6523SM   C5F 8423   4.745   5.927  15.711 -0.1083  0.9870  0.4012
   6523SM   H5F 8424   4.775   5.824  15.741  0.4495  0.4006 -1.9790
   6523SM   H5G 8425   4.801   5.965  15.623 -0.2741 -0.4275 -0.3496
   6523SM   C6F 8426   4.589   5.918  15.685 -0.5412  0.2612  0.1374
   6523SM   H6F 8427   4.552   6.021  15.668 -0.8406  0.5970  2.4267
   6523SM   H6G 8428   4.557   5.878  15.784  3.5083  1.6803  2.2534
   6523SM   C7F 8429   4.551   5.831  15.556 -0.2394 -0.4116  0.5397
   6523SM   H7F 8430   4.442   5.810  15.557  0.1436 -2.6510  0.0507
   6523SM   H7G 8431   4.606   5.736  15.569 -0.1476 -0.4161  0.1450
   6523SM   C8F 8432   4.582   5.893  15.422 -0.2434 -0.2458  0.0482
   6523SM   H8F 8433   4.680   5.944  15.430  0.4247 -1.7591  2.9540
   6523SM   H8G 8434   4.508   5.974  15.402  1.0368  1.8046  2.9408
   6523SM   C9F 8435   4.584   5.796  15.302  0.1605 -0.3365  0.1124
   6523SM   H9F 8436   4.490   5.738  15.301  0.4921 -0.8734 -0.9725
   6523SM   H9G 8437   4.673   5.734  15.322  1.5313  0.6961 -2.2904
   6523SM  C10F 8438   4.616   5.854  15.164  0.7379 -0.3232  0.3844
   6523SM  H10F 8439   4.646   5.764  15.106 -0.0102 -0.1666 -0.2639
   6523SM  H10G 8440   4.700   5.926  15.169  1.8386 -1.3697 -1.6808
   6523SM  C11F 8441   4.492   5.920  15.098 -0.0602 -0.6103  0.7803
   6523SM  H11F 8442   4.441   5.994  15.164 -2.0058 -1.4084  0.2606
   6523SM  H11G 8443   4.414   5.842  15.088  0.9034 -1.4041 -0.9185
   6523SM  C12F 8444   4.535   5.969  14.961  0.4314  0.4575 -0.0336
   6523SM  H12F 8445   4.574   5.890  14.893 -0.2197  0.9916 -1.0515
   6523SM  H12G 8446   4.613   6.044  14.982  1.8061 -1.2816  1.4182
   6523SM  C13F 8447   4.423   6.048  14.892  0.0500  0.7605  0.3136
   6523SM  H13F 8448   4.392   6.127  14.964 -0.6838  0.2167  0.6146
   6523SM  H13G 8449   4.341   5.977  14.868 -0.5236  0.8391  1.9101
   6523SM  C14F 8450   4.486   6.097  14.763 -0.1646  0.4740  0.0961
   6523SM  H14F 8451   4.540   6.016  14.708  0.2786  0.5001  0.4874
   6523SM  H14G 8452   4.572   6.154  14.803 -0.2827 -0.7278  2.2006
   6523SM  C15F 8453   4.402   6.192  14.675  0.7228 -0.0399  0.3520
   6523SM  H15F 8454   4.374   6.286  14.726 -2.0745 -0.6007 -0.0195
   6523SM  H15G 8455   4.303   6.143  14.661  0.0263  1.1895  0.9336
   6523SM  C16F 8456   4.464   6.206  14.532  0.5885 -0.6797  0.6511
   6523SM  H16F 8457   4.510   6.111  14.497  1.2940 -0.3996  0.8136
   6523SM  H16G 8458   4.553   6.271  14.543  0.9320 -0.9724 -0.3556
   6523SM  C17F 8459   4.373   6.272  14.429  0.1302  0.2935  0.1541
   6523SM  H17F 8460   4.292   6.199  14.409  0.3223 -0.3874  1.6870
   6523SM  H17G 8461   4.428   6.291  14.335  0.5320  0.1346  0.3526
   6523SM  C18F 8462   4.289   6.399  14.475 -0.6929  0.3709  0.3857
   6523SM  H18F 8463   4.228   6.376  14.565 -0.7634 -0.0440  0.2359
   6523SM  H18G 8464   4.205   6.425  14.408 -0.9195  0.9300  0.8803
   6523SM  C19F 8465   4.376   6.516  14.502  0.3770 -0.5580 -0.4763
   6523SM  H19F 8466   4.464   6.489  14.565  0.1694 -0.9244 -0.3441
   6523SM  H19G 8467   4.312   6.595  14.548  2.0109  0.4127  0.2563
   6523SM  C20F 8468   4.430   6.578  14.371  0.5144 -0.5563 -0.2018
   6523SM  H20F 8469   4.354   6.566  14.291  0.7632 -0.8758 -0.3920
   6523SM  H20G 8470   4.519   6.524  14.331  0.3172 -0.6314 -0.5486
   6523SM  C21F 8471   4.464   6.724  14.381  0.0328 -0.1814  0.1722
   6523SM  H21F 8472   4.533   6.734  14.468  1.8371 -1.8021 -1.0114
   6523SM  H21G 8473   4.376   6.788  14.406  0.6787  1.3133 -1.1764
   6523SM  C22F 8474   4.533   6.777  14.254  0.8499  0.3855  0.5553
   6523SM  H22F 8475   4.468   6.751  14.167  1.8249  0.4733 -0.2171
   6523SM  H22G 8476   4.626   6.716  14.246  1.4320  1.4156 -0.7774
   6523SM  C23F 8477   4.571   6.926  14.247 -0.2398  0.1499 -0.4552
   6523SM  H23F 8478   4.496   7.001  14.280  1.3923  1.2038  1.0305
   6523SM  H23G 8479   4.603   6.944  14.142  0.7846  0.9709 -0.0256
   6523SM  H23H 8480   4.651   6.940  14.323 -0.6720 -1.0785  0.2586
   6623SM     N 8481   3.469   4.077  16.669  0.5161  0.1024  0.0481
   6623SM   C15 8482   3.433   4.127  16.806 -0.0232 -0.7068  0.5750
   6623SM  H15A 8483   3.368   4.061  16.862 -1.0311 -0.4107 -0.2157
   6623SM  H15B 8484   3.368   4.213  16.797 -2.6256 -2.5426  0.9372
   6623SM  H15C 8485   3.519   4.152  16.867 -0.0339 -1.8802  1.0961
   6623SM   C14 8486   3.583   4.151  16.615 -0.2646 -0.2765 -0.6128
   6623SM  H14A 8487   3.622   4.108  16.524 -0.2052  1.1538 -1.2939
   6623SM  H14B 8488   3.669   4.160  16.680 -1.2252  1.2721  0.5251
   6623SM  H14C 8489   3.550   4.248  16.581 -1.2255  0.0787  1.1915
   6623SM   C13 8490   3.515   3.938  16.692  0.7264 -0.3782  0.1723
   6623SM  H13A 8491   3.470   3.898  16.782 -0.4123  0.0962 -0.1797
   6623SM  H13B 8492   3.622   3.922  16.701  0.8029  0.8205  1.9524
   6623SM  H13C 8493   3.488   3.875  16.609 -0.4712  1.3026 -0.7595
   6623SM   C12 8494   3.344   4.083  16.584 -0.3448 -0.6500 -0.5309
   6623SM  H12A 8495   3.256   4.040  16.630 -1.9281  1.1768 -1.6771
   6623SM  H12B 8496   3.358   4.019  16.498 -3.0748 -0.7963 -0.9700
   6623SM   C11 8497   3.305   4.227  16.529  0.1695  0.4049  0.1236
   6623SM  H11A 8498   3.213   4.214  16.468  0.1464 -3.7084  0.7672
   6623SM  H11B 8499   3.393   4.253  16.466 -0.3898  0.2413 -0.7341
   6623SM     P 8500   3.147   4.383  16.662 -0.1396  0.3076 -0.3107
   6623SM   O13 8501   3.058   4.267  16.683  0.4415 -0.4230  0.4799
   6623SM   O14 8502   3.154   4.479  16.770 -0.5278  0.3176 -0.1790
   6623SM   O11 8503   3.108   4.449  16.525  0.0913 -0.1562  0.2555
   6623SM   O12 8504   3.293   4.329  16.631  0.4147  0.3193 -0.5775
   6623SM   C1S 8505   3.160   4.580  16.495  0.1215 -0.1820  0.7402
   6623SM   H1S 8506   3.226   4.624  16.573  1.6323 -1.3508  0.1824
   6623SM   H1T 8507   3.077   4.652  16.478  2.0123  2.1899  1.0131
   6623SM    NF 8508   3.314   4.706  16.344 -0.5247 -0.2280 -0.5517
   6623SM   HNF 8509   3.257   4.769  16.291 -1.0896 -0.6395 -0.4322
   6623SM   C2S 8510   3.248   4.575  16.367 -0.1795  0.1753  0.2741
   6623SM   H2S 8511   3.334   4.510  16.395  0.0162  0.8793  1.3426
   6623SM   C3S 8512   3.169   4.510  16.245  0.9332 -0.4311 -0.0173
   6623SM   H3S 8513   3.076   4.564  16.219  0.6618 -0.1789  1.4026
   6623SM    O3 8514   3.131   4.376  16.277 -0.3285 -0.1652 -0.8581
   6623SM   HO3 8515   3.152   4.368  16.370 -0.5178 -2.9055 -0.9557
   6623SM   C4S 8516   3.264   4.505  16.133  0.2024 -0.7729  0.3182
   6623SM   H4S 8517   3.359   4.458  16.163  0.6367  0.1405  0.3863
   6623SM   C5S 8518   3.253   4.566  16.011  0.0532 -0.2732 -0.2482
   6623SM   H5S 8519   3.160   4.620  15.985  0.6436  2.0656  2.1853
   6623SM   C6S 8520   3.361   4.580  15.902  1.1448 -0.6976 -0.1476
   6623SM   H6S 8521   3.442   4.506  15.919  0.4362 -1.0336  2.1098
   6623SM   H6T 8522   3.404   4.682  15.898 -0.4535  0.0866  1.3224
   6623SM   C7S 8523   3.310   4.565  15.761  0.4699 -0.2709  0.2663
   6623SM   H7S 8524   3.399   4.581  15.696 -0.6961  1.4719 -0.9980
   6623SM   H7T 8525   3.243   4.643  15.720 -1.4419 -2.0415 -0.1552
   6623SM   C8S 8526   3.247   4.427  15.741  0.1318  0.3597 -0.0064
   6623SM   H8S 8527   3.158   4.428  15.807  1.3535 -0.1620  1.7060
   6623SM   H8T 8528   3.311   4.342  15.774 -0.7881 -0.7616 -1.0273
   6623SM   C9S 8529   3.213   4.404  15.589  0.2035  0.0513  0.1772
   6623SM   H9S 8530   3.299   4.409  15.520  0.0018  0.2201 -0.0660
   6623SM   H9T 8531   3.140   4.486  15.570  1.0589  0.6881 -0.4224
   6623SM  C10S 8532   3.145   4.268  15.569 -0.8513 -0.0151 -0.0148
   6623SM  H10S 8533   3.068   4.269  15.648  1.3707 -2.1370  2.3740
   6623SM  H10T 8534   3.224   4.190  15.581 -0.1214  0.9903  2.2269
   6623SM  C11S 8535   3.094   4.246  15.426  0.1449  0.1673 -0.0258
   6623SM  H11S 8536   3.183   4.235  15.362  2.1235 -2.4735  2.8731
   6623SM  H11T 8537   3.041   4.336  15.389  0.8759  1.3878  1.7478
   6623SM  C12S 8538   3.000   4.122  15.425 -0.1264  0.5277  0.3698
   6623SM  H12S 8539   2.931   4.135  15.511  1.2242 -0.6144  1.6683
   6623SM  H12T 8540   3.062   4.030  15.433 -0.2367  0.4968  0.8758
   6623SM  C13S 8541   2.912   4.111  15.299  0.2533  0.6636  0.4441
   6623SM  H13S 8542   2.879   4.212  15.264  0.1713  0.2156 -0.8091
   6623SM  H13T 8543   2.816   4.066  15.331  0.8841 -0.5068  0.7435
   6623SM  C14S 8544   2.970   4.037  15.175  0.1402 -0.6395  0.1941
   6623SM  H14S 8545   2.892   4.037  15.096 -2.9446 -0.7685  3.0166
   6623SM  H14T 8546   3.006   3.935  15.200  0.9398 -0.5090 -0.3838
   6623SM  C15S 8547   3.101   4.102  15.107 -0.1286 -0.5023  0.0370
   6623SM  H15S 8548   3.182   4.103  15.184  0.4369 -0.3504 -0.5440
   6623SM  H15T 8549   3.073   4.209  15.093  1.7289  0.1642  0.9393
   6623SM  C16S 8550   3.161   4.042  14.979 -0.3495  0.4665 -0.1618
   6623SM  H16S 8551   3.206   3.942  14.994  0.2214  0.8772  0.9586
   6623SM  H16T 8552   3.246   4.104  14.944 -0.2715  1.2709  1.3452
   6623SM  C17S 8553   3.061   4.028  14.867 -0.2461  0.5151 -0.0054
   6623SM  H17S 8554   3.025   4.128  14.835 -0.6678  0.4571  0.2747
   6623SM  H17T 8555   2.975   3.971  14.908 -1.0399 -0.5233 -2.8784
   6623SM  C18S 8556   3.105   3.954  14.739 -0.1023 -0.0243 -0.7342
   6623SM  H18S 8557   3.200   3.997  14.701  1.0094  0.0436  1.8901
   6623SM  H18T 8558   3.026   3.961  14.661 -0.8119  2.8053  0.0971
   6623SM  H18U 8559   3.124   3.847  14.762  0.5055 -0.0261 -1.2237
   6623SM   C1F 8560   3.428   4.758  16.399 -0.0223 -0.3002  0.2602
   6623SM    OF 8561   3.474   4.709  16.502 -0.4087  0.4164  0.8151
   6623SM   C2F 8562   3.481   4.880  16.331  0.3577  0.4168  0.9554
   6623SM   H2F 8563   3.477   4.953  16.414 -2.6763 -1.1201  2.3352
   6623SM   H2G 8564   3.418   4.924  16.251  0.9662  1.3560  0.9743
   6623SM   C3F 8565   3.617   4.855  16.265 -0.2458 -0.0364 -0.7182
   6623SM   H3F 8566   3.687   4.804  16.335 -2.5736  0.0947  1.9059
   6623SM   H3G 8567   3.668   4.950  16.237  0.3872  0.1471  0.9179
   6623SM   C4F 8568   3.612   4.779  16.131 -0.6233  0.6157 -0.4343
   6623SM   H4F 8569   3.579   4.838  16.043 -2.0696 -0.7742 -0.8619
   6623SM   H4G 8570   3.547   4.690  16.145  1.4891 -0.9828 -0.2479
   6623SM   C5F 8571   3.755   4.727  16.099 -0.1895  0.4098 -0.4350
   6623SM   H5F 8572   3.774   4.656  16.182  1.8195  1.4764  0.0866
   6623SM   H5G 8573   3.838   4.800  16.110  2.1424 -2.3093  1.1748
   6623SM   C6F 8574   3.765   4.654  15.964 -0.1569  0.3741  0.4365
   6623SM   H6F 8575   3.681   4.582  15.958 -1.6781  2.1750 -1.2583
   6623SM   H6G 8576   3.864   4.604  15.953  0.4304  1.6563 -0.3449
   6623SM   C7F 8577   3.762   4.744  15.842 -0.5792  0.1097  0.3413
   6623SM   H7F 8578   3.859   4.798  15.843 -0.7332  0.3945 -0.1299
   6623SM   H7G 8579   3.682   4.817  15.863  1.2752  1.5802  2.8925
   6623SM   C8F 8580   3.756   4.666  15.707 -0.0636 -0.1371 -0.1882
   6623SM   H8F 8581   3.653   4.624  15.704 -0.5014  0.8457  0.2600
   6623SM   H8G 8582   3.812   4.570  15.707  1.4982  0.7425  0.1021
   6623SM   C9F 8583   3.802   4.750  15.590 -0.2945 -0.9196  0.5319
   6623SM   H9F 8584   3.912   4.759  15.587 -0.3301 -0.5465  0.2575
   6623SM   H9G 8585   3.762   4.852  15.609  2.7168  0.2658  0.9985
   6623SM  C10F 8586   3.760   4.695  15.453  0.4852 -0.0864 -0.1242
   6623SM  H10F 8587   3.804   4.768  15.382 -1.1175  1.2895  0.2227
   6623SM  H10G 8588   3.650   4.711  15.443  0.5066  0.8445  1.0142
   6623SM  C11F 8589   3.796   4.552  15.414 -0.0235  0.5862  0.4539
   6623SM  H11F 8590   3.856   4.503  15.493  0.2187 -0.2412 -0.2295
   6623SM  H11G 8591   3.859   4.556  15.322  0.1615  0.0974  0.5597
   6623SM  C12F 8592   3.670   4.466  15.398  0.6630 -0.1787  1.1390
   6623SM  H12F 8593   3.607   4.476  15.489 -0.7228 -0.4710  0.2324
   6623SM  H12G 8594   3.700   4.360  15.386 -1.4241 -0.6691 -0.1741
   6623SM  C13F 8595   3.606   4.494  15.266  0.3992 -0.4280  0.6842
   6623SM  H13F 8596   3.669   4.453  15.185  0.4772  3.5269 -1.4934
   6623SM  H13G 8597   3.608   4.605  15.255 -0.9295 -0.4092  0.3829
   6623SM  C14F 8598   3.458   4.452  15.264  0.1220  0.3797 -0.4582
   6623SM  H14F 8599   3.416   4.512  15.347 -0.8074 -0.5530 -0.2411
   6623SM  H14G 8600   3.447   4.344  15.288 -1.1833  0.7711  0.7930
   6623SM  C15F 8601   3.376   4.502  15.148  0.7740 -0.6845  0.9876
   6623SM  H15F 8602   3.401   4.449  15.054 -1.1567  0.3743 -0.1866
   6623SM  H15G 8603   3.391   4.611  15.134 -0.2677 -0.4627  1.5201
   6623SM  C16F 8604   3.220   4.477  15.162  0.0399  0.4880 -0.5271
   6623SM  H16F 8605   3.198   4.529  15.258  0.2158 -0.8074  0.2481
   6623SM  H16G 8606   3.198   4.370  15.185  0.2667  0.8354  1.5316
   6623SM  C17F 8607   3.146   4.541  15.048 -0.0770 -0.2823  0.0980
   6623SM  H17F 8608   3.158   4.651  15.052 -1.8903 -0.0170  4.8511
   6623SM  H17G 8609   3.036   4.522  15.054  0.1752 -1.5483  1.3998
   6623SM  C18F 8610   3.180   4.486  14.909 -1.0023  0.6891  0.2805
   6623SM  H18F 8611   3.195   4.377  14.921  2.3330  1.0279  0.0775
   6623SM  H18G 8612   3.285   4.508  14.883  0.3015 -4.4523  0.0535
   6623SM  C19F 8613   3.080   4.526  14.796 -0.4411 -0.4069  0.0765
   6623SM  H19F 8614   3.071   4.637  14.794 -0.3456 -0.3246 -4.1879
   6623SM  H19G 8615   2.989   4.472  14.830 -1.2032  0.3083 -0.7758
   6623SM  C20F 8616   3.114   4.488  14.654  0.5071  0.3077  0.0416
   6623SM  H20F 8617   3.202   4.543  14.614  0.9285 -1.3115 -1.3633
   6623SM  H20G 8618   3.033   4.528  14.591  0.9635  1.0175 -0.1022
   6623SM  C21F 8619   3.131   4.340  14.617  0.2797  0.6000 -0.0237
   6623SM  H21F 8620   3.053   4.279  14.666  0.7298 -0.4531 -0.5851
   6623SM  H21G 8621   3.227   4.301  14.657 -0.4600 -2.0092 -0.6117
   6623SM  C22F 8622   3.139   4.322  14.466 -0.4456 -0.2639 -0.2939
   6623SM  H22F 8623   3.223   4.389  14.438 -0.5610 -0.6989 -1.7431
   6623SM  H22G 8624   3.049   4.357  14.411 -0.6418 -1.1920 -0.5677
   6623SM  C23F 8625   3.179   4.179  14.423 -0.2587  0.3378  0.5045
   6623SM  H23F 8626   3.283   4.155  14.451 -0.1422 -1.6737 -1.3774
   6623SM  H23G 8627   3.193   4.169  14.313  0.1981  1.4273  0.4570
   6623SM  H23H 8628   3.121   4.098  14.472  0.7054  0.1869  1.4393
   6723SM     N 8629   3.158   7.530  16.883 -0.0374 -0.0591 -0.0399
   6723SM   C15 8630   3.140   7.508  17.029  0.3309 -0.2624  0.0038
   6723SM  H15A 8631   3.050   7.450  17.041  0.6643 -0.4045  2.0302
   6723SM  H15B 8632   3.122   7.600  17.082 -1.0422 -0.8159  0.5319
   6723SM  H15C 8633   3.225   7.462  17.077  1.1225  2.0618  0.9389
   6723SM   C14 8634   3.171   7.393  16.819  0.5703 -0.4423 -0.1403
   6723SM  H14A 8635   3.078   7.341  16.837  0.9224 -1.1584 -0.3895
   6723SM  H14B 8636   3.259   7.344  16.858  2.4703  1.3639 -1.8711
   6723SM  H14C 8637   3.188   7.401  16.713 -1.9258  4.5810 -0.4571
   6723SM   C13 8638   3.037   7.609  16.832 -0.0242  0.8775 -0.1969
   6723SM  H13A 8639   2.947   7.549  16.830  0.5721 -0.0673  0.6120
   6723SM  H13B 8640   3.062   7.636  16.730  1.5982 -0.3262 -0.1546
   6723SM  H13C 8641   3.016   7.701  16.885  1.6865  0.3441  1.5315
   6723SM   C12 8642   3.287   7.608  16.852  1.2137  0.3396 -0.2482
   6723SM  H12A 8643   3.372   7.564  16.902 -0.5414 -1.8050  1.0123
   6723SM  H12B 8644   3.283   7.705  16.901 -2.2328  0.4626 -0.5421
   6723SM   C11 8645   3.321   7.647  16.705 -0.2532  0.7691 -0.0713
   6723SM  H11A 8646   3.345   7.556  16.646  0.4094  0.4269  0.7150
   6723SM  H11B 8647   3.418   7.701  16.697 -0.0051  0.4740  0.9167
   6723SM     P 8648   3.195   7.751  16.504 -0.6993 -0.2340 -0.1497
   6723SM   O13 8649   3.087   7.859  16.493  0.1011  0.1086 -0.0309
   6723SM   O14 8650   3.321   7.764  16.429 -0.4248 -0.4650 -0.4319
   6723SM   O11 8651   3.138   7.604  16.487  0.3826  0.0147 -0.7691
   6723SM   O12 8652   3.224   7.742  16.659  0.0641  0.4796 -0.4612
   6723SM   C1S 8653   3.048   7.571  16.377 -0.3604  0.0199 -0.5374
   6723SM   H1S 8654   2.982   7.655  16.348 -0.7982 -0.3370 -0.5918
   6723SM   H1T 8655   2.975   7.498  16.418 -1.3600  1.6120  0.6488
   6723SM    NF 8656   3.031   7.518  16.142  0.7815  0.2338  0.7120
   6723SM   HNF 8657   3.002   7.429  16.108 -1.4326  1.5653 -1.2000
   6723SM   C2S 8658   3.124   7.515  16.251  0.1190  0.0913 -0.0735
   6723SM   H2S 8659   3.208   7.586  16.232 -0.6065  0.7047 -1.0711
   6723SM   C3S 8660   3.187   7.375  16.283  0.1503 -0.1151 -0.3163
   6723SM   H3S 8661   3.107   7.298  16.293 -0.3453  0.6006  1.6734
   6723SM    O3 8662   3.261   7.359  16.403  0.8143  0.4726 -0.5449
   6723SM   HO3 8663   3.226   7.433  16.454  3.4390 -0.6197  3.2583
   6723SM   C4S 8664   3.267   7.332  16.161  0.2458 -0.4930  0.1100
   6723SM   H4S 8665   3.204   7.272  16.093  0.0913 -1.1002  0.7821
   6723SM   C5S 8666   3.397   7.360  16.128 -0.1271  0.1756 -0.5455
   6723SM   H5S 8667   3.447   7.428  16.199 -1.3599 -0.4568  0.9814
   6723SM   C6S 8668   3.470   7.313  16.006 -0.4419 -0.0553  0.2828
   6723SM   H6S 8669   3.534   7.226  16.028  0.6543  0.1301 -1.8938
   6723SM   H6T 8670   3.547   7.387  15.975  1.3673 -2.4344 -1.1471
   6723SM   C7S 8671   3.384   7.275  15.884  0.0474 -0.3314 -0.4285
   6723SM   H7S 8672   3.310   7.356  15.867  0.5049  0.3849  0.8619
   6723SM   H7T 8673   3.320   7.188  15.906 -1.6713  1.3574  1.7751
   6723SM   C8S 8674   3.472   7.260  15.757 -0.0248  0.4472  0.1574
   6723SM   H8S 8675   3.519   7.161  15.771 -1.8621 -0.2240  2.1430
   6723SM   H8T 8676   3.549   7.340  15.754  0.6635  0.0620  3.7430
   6723SM   C9S 8677   3.373   7.243  15.643  0.1726 -0.2691  0.1367
   6723SM   H9S 8678   3.304   7.330  15.637  1.4797  0.6621 -2.2769
   6723SM   H9T 8679   3.312   7.152  15.665 -0.8662  0.6213  1.0765
   6723SM  C10S 8680   3.442   7.236  15.504 -0.5253  0.6953  0.4110
   6723SM  H10S 8681   3.487   7.335  15.482  0.9754  0.0658  0.5527
   6723SM  H10T 8682   3.370   7.221  15.421 -0.1938 -1.3388  0.4468
   6723SM  C11S 8683   3.549   7.124  15.495 -0.3759  0.0175  0.4653
   6723SM  H11S 8684   3.621   7.143  15.578  0.4747 -2.1554  0.2972
   6723SM  H11T 8685   3.610   7.152  15.406  0.1661  2.2702  1.4669
   6723SM  C12S 8686   3.503   6.979  15.505  0.4962 -0.2179  0.0458
   6723SM  H12S 8687   3.441   6.964  15.414  0.2754 -0.9234  0.3095
   6723SM  H12T 8688   3.430   6.961  15.586  2.3832 -2.0892  1.4508
   6723SM  C13S 8689   3.612   6.876  15.525 -0.4393 -0.0085  0.8417
   6723SM  H13S 8690   3.571   6.774  15.541 -1.1441  0.0767 -0.2951
   6723SM  H13T 8691   3.658   6.891  15.625  1.2432  0.7693 -0.0117
   6723SM  C14S 8692   3.708   6.868  15.412  0.3935  0.6106 -0.6207
   6723SM  H14S 8693   3.753   6.969  15.403 -0.6170  1.0535 -0.8847
   6723SM  H14T 8694   3.645   6.863  15.321 -0.6252 -1.2932  0.1243
   6723SM  C15S 8695   3.822   6.759  15.417  0.0702 -0.8145 -1.1491
   6723SM  H15S 8696   3.783   6.656  15.407  0.6036 -0.9363 -2.0523
   6723SM  H15T 8697   3.865   6.764  15.520  0.7990 -1.0997 -1.4327
   6723SM  C16S 8698   3.927   6.778  15.304  0.6716 -0.0550 -0.5388
   6723SM  H16S 8699   4.015   6.712  15.319  1.3421  0.3935 -2.3117
   6723SM  H16T 8700   3.954   6.885  15.309  1.6758 -0.3117 -0.1072
   6723SM  C17S 8701   3.888   6.731  15.165  0.1241 -0.1736 -0.4802
   6723SM  H17S 8702   3.970   6.757  15.096 -0.8339  1.6126 -1.0200
   6723SM  H17T 8703   3.796   6.787  15.137 -0.1878 -1.0076 -1.1581
   6723SM  C18S 8704   3.863   6.585  15.150 -0.3589 -0.3120 -0.0217
   6723SM  H18S 8705   3.953   6.533  15.188 -1.0644 -1.6126 -0.0789
   6723SM  H18T 8706   3.837   6.559  15.045 -1.4214  1.9001 -0.3662
   6723SM  H18U 8707   3.776   6.550  15.209 -1.3324  0.6048 -0.8554
   6723SM   C1F 8708   2.974   7.625  16.083  0.3081 -0.5827 -0.1043
   6723SM    OF 8709   3.017   7.738  16.101  0.3597  0.5514 -0.2491
   6723SM   C2F 8710   2.845   7.595  16.013 -0.4016 -0.8381  0.1031
   6723SM   H2F 8711   2.772   7.671  16.048 -2.2182 -2.9613  1.2097
   6723SM   H2G 8712   2.815   7.494  16.048 -0.2825 -0.5155  1.1558
   6723SM   C3F 8713   2.865   7.620  15.860  0.1943  0.5651  0.3575
   6723SM   H3F 8714   2.958   7.568  15.828 -0.4485 -0.8931  0.7387
   6723SM   H3G 8715   2.891   7.724  15.834  2.0881  0.5873  2.0475
   6723SM   C4F 8716   2.740   7.574  15.794  0.6745 -0.0204  0.1029
   6723SM   H4F 8717   2.661   7.640  15.838  1.0365  0.3515  0.2030
   6723SM   H4G 8718   2.719   7.471  15.827 -0.6100 -0.3586 -1.6039
   6723SM   C5F 8719   2.748   7.594  15.640  0.5583  0.0056  0.0633
   6723SM   H5F 8720   2.827   7.523  15.608 -0.4728 -0.9169 -0.4849
   6723SM   H5G 8721   2.777   7.700  15.623  1.0053 -0.1370 -0.0953
   6723SM   C6F 8722   2.624   7.544  15.563  0.4278  0.2808 -0.0561
   6723SM   H6F 8723   2.539   7.572  15.630  2.6148 -0.4147  3.2379
   6723SM   H6G 8724   2.618   7.434  15.574 -0.4061 -0.2086 -4.0025
   6723SM   C7F 8725   2.616   7.586  15.411 -0.2660  0.4064 -0.2230
   6723SM   H7F 8726   2.681   7.523  15.346 -0.8642 -0.6671  0.1885
   6723SM   H7G 8727   2.657   7.689  15.400  0.4363  0.2842  1.0425
   6723SM   C8F 8728   2.473   7.581  15.354 -0.0053 -0.5001  0.2323
   6723SM   H8F 8729   2.415   7.652  15.417  2.0299  0.0759  1.5362
   6723SM   H8G 8730   2.421   7.484  15.365  0.3588 -0.5921  1.1835
   6723SM   C9F 8731   2.468   7.631  15.209  0.4904 -0.4070  0.1105
   6723SM   H9F 8732   2.520   7.557  15.144  1.1337 -0.5027  0.7276
   6723SM   H9G 8733   2.540   7.715  15.193  2.3459 -2.1619 -1.2994
   6723SM  C10F 8734   2.331   7.669  15.147 -0.2888  0.1076 -0.9903
   6723SM  H10F 8735   2.268   7.697  15.234  0.1533 -1.9122  0.0294
   6723SM  H10G 8736   2.282   7.580  15.102  1.1692 -0.2526 -1.9376
   6723SM  C11F 8737   2.339   7.765  15.028 -0.9639  0.2873  0.4541
   6723SM  H11F 8738   2.430   7.740  14.969 -0.7167 -1.4309  1.5114
   6723SM  H11G 8739   2.350   7.871  15.061  1.9995  0.3584 -0.5110
   6723SM  C12F 8740   2.220   7.745  14.929  0.2085 -0.3184 -0.7208
   6723SM  H12F 8741   2.132   7.747  14.996  0.9723  1.2489  0.2910
   6723SM  H12G 8742   2.237   7.652  14.871  3.1861 -0.3850  0.1447
   6723SM  C13F 8743   2.212   7.854  14.821  0.5304  0.2807  0.3862
   6723SM  H13F 8744   2.297   7.850  14.749 -0.4261 -1.6897 -0.7135
   6723SM  H13G 8745   2.220   7.952  14.873 -1.2796  2.4344 -2.9953
   6723SM  C14F 8746   2.074   7.871  14.744 -0.4165 -0.5012  0.6215
   6723SM  H14F 8747   2.028   7.970  14.762 -1.4206 -0.8842  0.2871
   6723SM  H14G 8748   2.001   7.797  14.784 -0.9527 -0.6002 -0.4929
   6723SM  C15F 8749   2.093   7.863  14.593  0.1832  0.3219  0.0190
   6723SM  H15F 8750   2.110   7.758  14.563  1.1435  0.4339  0.1366
   6723SM  H15G 8751   2.189   7.913  14.569  1.4785 -1.1811  1.7906
   6723SM  C16F 8752   1.987   7.926  14.502 -0.2578  0.0121 -0.1420
   6723SM  H16F 8753   2.042   7.919  14.405  0.1741  2.2874 -0.1119
   6723SM  H16G 8754   1.961   8.032  14.519 -0.7861  0.1930 -1.8381
   6723SM  C17F 8755   1.862   7.835  14.494 -0.3387 -0.7582  0.4238
   6723SM  H17F 8756   1.825   7.825  14.598 -0.4514  1.8411  0.6885
   6723SM  H17G 8757   1.883   7.731  14.459 -2.5073 -1.2824  0.5525
   6723SM  C18F 8758   1.760   7.899  14.399 -0.2116 -0.5889  0.9244
   6723SM  H18F 8759   1.799   7.890  14.296 -0.8812  0.1671  0.5907
   6723SM  H18G 8760   1.758   8.005  14.430  0.9165 -0.2619 -0.0768
   6723SM  C19F 8761   1.622   7.833  14.410  0.2756  0.6481 -0.5499
   6723SM  H19F 8762   1.552   7.888  14.343 -0.4897  1.9700  1.2506
   6723SM  H19G 8763   1.581   7.829  14.513 -1.1772 -1.1521 -1.1569
   6723SM  C20F 8764   1.629   7.684  14.356 -0.0361 -0.4889 -0.5235
   6723SM  H20F 8765   1.709   7.629  14.410 -0.6002 -1.1480 -0.3494
   6723SM  H20G 8766   1.657   7.685  14.248  1.3951 -3.2396 -0.2516
   6723SM  C21F 8767   1.498   7.609  14.365 -0.3583  0.8503  0.0963
   6723SM  H21F 8768   1.455   7.619  14.466 -2.0946 -0.3996 -0.4806
   6723SM  H21G 8769   1.518   7.500  14.353 -1.8178  0.4149  1.3507
   6723SM  C22F 8770   1.392   7.647  14.259  0.4743 -0.7688  0.0147
   6723SM  H22F 8771   1.427   7.632  14.154  0.1682  4.2176 -1.0786
   6723SM  H22G 8772   1.367   7.754  14.273  1.2976  0.1973 -4.2671
   6723SM  C23F 8773   1.259   7.568  14.282  0.7840  1.0264  0.2974
   6723SM  H23F 8774   1.234   7.581  14.390  0.9709 -1.0859  0.6353
   6723SM  H23G 8775   1.259   7.458  14.264 -1.5385  0.9408  0.5298
   6723SM  H23H 8776   1.184   7.602  14.208  0.3124 -1.5937 -0.5327
   6823SM     N 8777   2.768   2.662  16.376  0.1118  0.3469  0.5111
   6823SM   C15 8778   2.761   2.559  16.272 -0.3469 -0.1417 -0.1130
   6823SM  H15A 8779   2.669   2.569  16.216 -0.9977 -0.1368  0.9333
   6823SM  H15B 8780   2.775   2.464  16.321  2.2490 -0.8329 -1.9940
   6823SM  H15C 8781   2.848   2.571  16.208 -1.7506  1.6847 -1.8221
   6823SM   C14 8782   2.670   2.628  16.484 -0.7406 -0.5273  0.0831
   6823SM  H14A 8783   2.590   2.563  16.450  0.7938 -2.8838  0.7488
   6823SM  H14B 8784   2.628   2.707  16.545  1.4972  0.2504  0.7022
   6823SM  H14C 8785   2.706   2.558  16.558  0.1651 -0.2212 -0.0641
   6823SM   C13 8786   2.906   2.654  16.447  0.8303  0.2871  0.1141
   6823SM  H13A 8787   2.978   2.696  16.378 -0.3630  0.3318 -1.1388
   6823SM  H13B 8788   2.919   2.556  16.489 -0.2088 -1.2712 -2.8827
   6823SM  H13C 8789   2.902   2.736  16.517  0.6332  1.0560 -0.7757
   6823SM   C12 8790   2.739   2.794  16.315  0.1363  0.6840 -0.3253
   6823SM  H12A 8791   2.632   2.808  16.310  0.0388 -0.0888 -0.5744
   6823SM  H12B 8792   2.780   2.790  16.215 -0.2341  2.5631 -0.5855
   6823SM   C11 8793   2.814   2.914  16.376 -0.2710 -0.1607 -0.9535
   6823SM  H11A 8794   2.802   3.001  16.308  0.5784  0.6007 -0.1765
   6823SM  H11B 8795   2.923   2.891  16.374 -0.4857 -1.2097 -0.9848
   6823SM     P 8796   2.619   3.000  16.525  0.2276 -0.6190  0.1044
   6823SM   O13 8797   2.542   2.897  16.590  0.3485  0.0052  0.3187
   6823SM   O14 8798   2.619   3.133  16.589  0.2496  0.1179  0.5560
   6823SM   O11 8799   2.569   3.015  16.371 -0.2026  0.4572 -0.5693
   6823SM   O12 8800   2.766   2.947  16.514  0.4054  0.0750  0.4146
   6823SM   C1S 8801   2.533   3.145  16.312 -0.0218  0.4414 -0.2720
   6823SM   H1S 8802   2.615   3.215  16.338  0.0071  0.1993  0.3044
   6823SM   H1T 8803   2.441   3.181  16.363  0.3250 -0.2315  0.8442
   6823SM    NF 8804   2.465   3.262  16.104 -0.1239  0.1743 -0.3072
   6823SM   HNF 8805   2.370   3.279  16.081 -0.6720 -0.9680  0.9810
   6823SM   C2S 8806   2.499   3.141  16.160 -0.9530  0.6442 -0.3300
   6823SM   H2S 8807   2.589   3.103  16.108 -0.1954 -0.8843  1.9352
   6823SM   C3S 8808   2.387   3.028  16.141  0.0620  0.2871  0.1776
   6823SM   H3S 8809   2.301   3.054  16.206 -0.7251 -1.5657 -0.0590
   6823SM    O3 8810   2.428   2.902  16.191 -0.7529  0.1771  0.0252
   6823SM   HO3 8811   2.490   2.928  16.259 -0.5981  0.3840 -0.1912
   6823SM   C4S 8812   2.340   3.008  16.005 -0.1445 -0.1388 -0.4424
   6823SM   H4S 8813   2.423   2.999  15.934  0.3831 -0.7252  0.2329
   6823SM   C5S 8814   2.210   2.989  15.962  0.0448  0.2211  0.0430
   6823SM   H5S 8815   2.134   2.999  16.041 -0.0755 -2.0899  0.3004
   6823SM   C6S 8816   2.171   2.968  15.817 -0.0320 -0.0370  0.0212
   6823SM   H6S 8817   2.070   3.011  15.802 -0.0546 -0.5105 -1.3582
   6823SM   H6T 8818   2.169   2.858  15.806  0.0723 -0.1006  0.5897
   6823SM   C7S 8819   2.266   3.016  15.702 -0.5205  0.0442  0.2046
   6823SM   H7S 8820   2.349   2.943  15.693  1.4690  2.0680  1.3405
   6823SM   H7T 8821   2.306   3.115  15.734  1.2897 -0.5908  0.0234
   6823SM   C8S 8822   2.193   3.027  15.567  0.4919 -0.0269 -0.2820
   6823SM   H8S 8823   2.260   3.061  15.485 -0.1521  1.3014 -0.2900
   6823SM   H8T 8824   2.121   3.110  15.584 -1.8208 -2.0573  0.5127
   6823SM   C9S 8825   2.120   2.892  15.530 -0.4211 -0.8892  0.2049
   6823SM   H9S 8826   2.042   2.866  15.605 -0.7982  2.1682  1.0218
   6823SM   H9T 8827   2.197   2.813  15.519 -0.5969 -0.7932 -2.5738
   6823SM  C10S 8828   2.035   2.919  15.399 -0.4799  0.1531  0.4806
   6823SM  H10S 8829   1.946   2.983  15.416 -0.2025  0.4720  0.7455
   6823SM  H10T 8830   1.992   2.819  15.374  0.9860 -0.6846  1.2105
   6823SM  C11S 8831   2.105   2.979  15.276 -0.5367  0.2342  0.1087
   6823SM  H11S 8832   2.146   3.080  15.299  2.4002 -0.7391 -0.3666
   6823SM  H11T 8833   2.031   2.987  15.193  0.0314 -2.1557 -0.7286
   6823SM  C12S 8834   2.218   2.877  15.230 -0.6278 -0.6120  0.3378
   6823SM  H12S 8835   2.172   2.776  15.231  0.5373 -1.1903 -1.0832
   6823SM  H12T 8836   2.297   2.868  15.308  1.2658 -2.2195 -1.6503
   6823SM  C13S 8837   2.279   2.911  15.098 -0.8693 -0.5536  0.5018
   6823SM  H13S 8838   2.195   2.922  15.025 -1.4730  0.1515  1.2704
   6823SM  H13T 8839   2.334   2.826  15.053  0.8534  0.3777  0.7642
   6823SM  C14S 8840   2.374   3.033  15.107 -0.3836 -0.1273  0.3202
   6823SM  H14S 8841   2.451   3.001  15.180  0.1405 -0.2026 -0.2629
   6823SM  H14T 8842   2.321   3.124  15.142  1.1858  1.0676 -0.3012
   6823SM  C15S 8843   2.416   3.070  14.965 -0.4623  0.4401 -0.2751
   6823SM  H15S 8844   2.324   3.092  14.906 -0.6630  0.2946 -0.0184
   6823SM  H15T 8845   2.461   2.982  14.915 -0.5095 -0.4050  1.1201
   6823SM  C16S 8846   2.501   3.196  14.966 -0.3151 -0.4879 -0.1048
   6823SM  H16S 8847   2.603   3.176  15.004  0.5896 -0.4451 -2.3675
   6823SM  H16T 8848   2.455   3.280  15.023  0.5780 -1.2930  1.8671
   6823SM  C17S 8849   2.527   3.248  14.820 -0.8320  0.0819  0.3948
   6823SM  H17S 8850   2.440   3.292  14.767 -0.0744  1.2872  0.1019
   6823SM  H17T 8851   2.567   3.155  14.773  3.8990  1.8070  0.4383
   6823SM  C18S 8852   2.639   3.354  14.827 -0.0282  0.3592 -0.0761
   6823SM  H18S 8853   2.622   3.434  14.752  0.2958  0.4650 -0.0399
   6823SM  H18T 8854   2.735   3.306  14.797 -0.1165  0.7545 -1.0253
   6823SM  H18U 8855   2.642   3.394  14.930 -0.0012 -1.5533  0.7126
   6823SM   C1F 8856   2.546   3.363  16.090  0.4149  0.3219  0.0260
   6823SM    OF 8857   2.662   3.369  16.128 -0.5407 -0.5139 -0.0825
   6823SM   C2F 8858   2.487   3.481  16.012  0.6624  0.6331  0.3266
   6823SM   H2F 8859   2.392   3.519  16.056 -0.7135  0.3783 -2.2330
   6823SM   H2G 8860   2.461   3.451  15.908 -0.0889  0.7478  0.4774
   6823SM   C3F 8861   2.581   3.610  15.998 -0.1464  0.0827  0.2952
   6823SM   H3F 8862   2.652   3.573  15.921  0.3931  0.7478  0.4562
   6823SM   H3G 8863   2.637   3.643  16.088 -0.2930  0.4827  0.2419
   6823SM   C4F 8864   2.513   3.730  15.928 -0.3581 -0.5679 -1.0587
   6823SM   H4F 8865   2.451   3.695  15.842 -0.6110  2.9816 -2.5322
   6823SM   H4G 8866   2.587   3.798  15.882  0.5403  0.3722  1.6022
   6823SM   C5F 8867   2.419   3.807  16.022  0.1070  0.5070 -0.2022
   6823SM   H5F 8868   2.471   3.861  16.104 -0.3906 -0.9459  1.1124
   6823SM   H5G 8869   2.349   3.739  16.076 -0.9791  0.1557 -1.9548
   6823SM   C6F 8870   2.326   3.895  15.942  0.7486  0.1840 -0.0516
   6823SM   H6F 8871   2.383   3.935  15.856  0.6710  1.1846  0.3505
   6823SM   H6G 8872   2.298   3.979  16.009  1.3716  0.1414  0.2750
   6823SM   C7F 8873   2.204   3.812  15.909  0.1453 -0.2841 -0.0628
   6823SM   H7F 8874   2.145   3.758  15.986 -0.7879 -0.2636 -0.7475
   6823SM   H7G 8875   2.230   3.743  15.825 -0.4771  1.5475 -1.8565
   6823SM   C8F 8876   2.091   3.892  15.835 -0.0746 -0.5223  0.1659
   6823SM   H8F 8877   2.147   3.946  15.756  2.0638  1.1836  2.6905
   6823SM   H8G 8878   2.057   3.970  15.906 -1.7942 -0.2262 -0.9291
   6823SM   C9F 8879   1.970   3.815  15.792 -0.0487  0.1370 -0.2192
   6823SM   H9F 8880   1.881   3.877  15.817  1.5034  1.6347  1.9464
   6823SM   H9G 8881   1.972   3.723  15.855 -2.5661  0.2112  0.0865
   6823SM  C10F 8882   1.982   3.774  15.647 -0.2380  0.2130 -0.2062
   6823SM  H10F 8883   2.068   3.706  15.630 -0.2447  0.0456  0.4079
   6823SM  H10G 8884   2.006   3.863  15.584  1.4236  0.3698  0.6049
   6823SM  C11F 8885   1.850   3.722  15.591  0.0784  0.0743  0.4458
   6823SM  H11F 8886   1.777   3.800  15.619 -0.9850 -0.1651 -1.4967
   6823SM  H11G 8887   1.823   3.631  15.648  1.0960 -0.8966 -0.5531
   6823SM  C12F 8888   1.862   3.667  15.448 -0.0679  0.4240  0.0004
   6823SM  H12F 8889   1.947   3.597  15.437 -1.9125 -2.2493  1.6697
   6823SM  H12G 8890   1.871   3.756  15.383 -1.0064  1.3811  1.1198
   6823SM  C13F 8891   1.729   3.599  15.407 -0.2198  0.5752  0.9650
   6823SM  H13F 8892   1.640   3.629  15.466 -1.0193  0.2407 -0.0342
   6823SM  H13G 8893   1.744   3.489  15.407  1.9356  0.8339  1.3539
   6823SM  C14F 8894   1.701   3.642  15.267 -0.0464 -0.0552  0.5027
   6823SM  H14F 8895   1.782   3.593  15.210  0.6234 -0.4727  1.7863
   6823SM  H14G 8896   1.717   3.751  15.251 -3.0096  0.0546 -3.2581
   6823SM  C15F 8897   1.562   3.613  15.219 -0.4384 -0.3067  0.0898
   6823SM  H15F 8898   1.485   3.677  15.268 -1.0333 -0.3025 -0.8376
   6823SM  H15G 8899   1.527   3.509  15.234 -0.7170 -0.1031  0.9130
   6823SM  C16F 8900   1.553   3.656  15.069  1.1014  0.3069  0.1200
   6823SM  H16F 8901   1.640   3.617  15.012 -0.5158 -1.1966 -1.4068
   6823SM  H16G 8902   1.565   3.767  15.075  3.6445  0.3543 -3.2186
   6823SM  C17F 8903   1.416   3.632  15.001  0.0456 -0.5330  0.0258
   6823SM  H17F 8904   1.343   3.695  15.057  1.8637  0.7686  1.0393
   6823SM  H17G 8905   1.367   3.533  15.014 -0.3282 -0.3176  0.3154
   6823SM  C18F 8906   1.424   3.661  14.848  0.4208  0.2319 -0.4462
   6823SM  H18F 8907   1.474   3.572  14.804  0.7565 -0.8378  1.9686
   6823SM  H18G 8908   1.484   3.752  14.831 -0.8694  1.1659 -0.1677
   6823SM  C19F 8909   1.280   3.664  14.788  0.3766  0.5166 -0.5753
   6823SM  H19F 8910   1.225   3.732  14.856  0.2364 -3.2328  3.5223
   6823SM  H19G 8911   1.221   3.571  14.802  1.5123  0.1190  2.2041
   6823SM  C20F 8912   1.269   3.695  14.641 -0.2167 -0.9045 -0.0951
   6823SM  H20F 8913   1.335   3.635  14.574 -0.5955 -0.1477 -1.1816
   6823SM  H20G 8914   1.299   3.802  14.629  1.4222 -1.3407 -0.1163
   6823SM  C21F 8915   1.129   3.686  14.577  0.1776  0.5840 -0.3502
   6823SM  H21F 8916   1.062   3.765  14.615  0.1302  0.4487 -0.1478
   6823SM  H21G 8917   1.069   3.593  14.584 -0.4733  1.1262  2.9484
   6823SM  C22F 8918   1.140   3.714  14.430  0.7661  0.8190 -0.0369
   6823SM  H22F 8919   1.035   3.720  14.395  1.2227  1.7301 -1.3050
   6823SM  H22G 8920   1.186   3.628  14.375 -0.1739  0.1832  0.1518
   6823SM  C23F 8921   1.199   3.850  14.390  1.4183 -0.2596 -0.0863
   6823SM  H23F 8922   1.306   3.852  14.420  0.8562 -2.5731  2.4939
   6823SM  H23G 8923   1.146   3.930  14.446  1.1760 -1.0725  0.9023
   6823SM  H23H 8924   1.181   3.868  14.282  0.7579 -0.0215  0.0596
   6923SM     N 8925   4.837   2.454  16.486 -0.3334  0.0816 -0.0141
   6923SM   C15 8926   4.958   2.541  16.460  0.4353  0.0591  0.1997
   6923SM  H15A 8927   5.016   2.501  16.378 -1.6187 -0.5007 -1.0459
   6923SM  H15B 8928   5.024   2.542  16.546  0.8543 -1.3793 -0.0815
   6923SM  H15C 8929   4.936   2.643  16.433  0.7439 -0.2913 -1.4763
   6923SM   C14 8930   4.880   2.311  16.479 -0.2345 -0.1077 -0.0086
   6923SM  H14A 8931   4.798   2.250  16.512 -0.0466 -1.7524 -2.3694
   6923SM  H14B 8932   4.965   2.297  16.544  1.0496  0.4819 -1.4867
   6923SM  H14C 8933   4.889   2.283  16.375  2.0187 -0.8757  0.3388
   6923SM   C13 8934   4.780   2.492  16.619  0.0765 -0.4128  0.5781
   6923SM  H13A 8935   4.858   2.521  16.688  0.9545 -0.5444 -0.3351
   6923SM  H13B 8936   4.722   2.411  16.660 -0.0398  1.0155  3.4833
   6923SM  H13C 8937   4.710   2.574  16.617 -0.8293 -1.1385  1.4681
   6923SM   C12 8938   4.741   2.488  16.376 -0.2454  0.6455 -0.5023
   6923SM  H12A 8939   4.670   2.407  16.369  0.7587 -0.2140 -0.9274
   6923SM  H12B 8940   4.791   2.491  16.281 -0.5445 -1.4290 -0.7755
   6923SM   C11 8941   4.652   2.609  16.378  0.5679 -0.0275 -0.4716
   6923SM  H11A 8942   4.572   2.606  16.301 -1.7877 -0.6547  1.8401
   6923SM  H11B 8943   4.717   2.697  16.360 -2.5711  2.9342  1.5189
   6923SM     P 8944   4.529   2.775  16.528  0.2542 -0.1244 -0.2934
   6923SM   O13 8945   4.386   2.758  16.560  0.0554 -0.1568  0.4662
   6923SM   O14 8946   4.614   2.847  16.619 -0.0642 -0.2019 -0.0951
   6923SM   O11 8947   4.538   2.850  16.380 -0.4601  0.0974  0.4217
   6923SM   O12 8948   4.590   2.634  16.497 -0.5147  0.1674  0.4256
   6923SM   C1S 8949   4.615   2.966  16.386 -0.3792  0.0095  1.5597
   6923SM   H1S 8950   4.721   2.946  16.413 -0.2166 -1.2655  0.0943
   6923SM   H1T 8951   4.577   3.051  16.447  0.1687  2.8677 -1.7872
   6923SM    NF 8952   4.709   3.148  16.245  0.1627  0.0837 -0.6612
   6923SM   HNF 8953   4.663   3.235  16.260  2.1422  0.9452  0.8824
   6923SM   C2S 8954   4.624   3.033  16.244 -0.5763 -0.1945 -0.1621
   6923SM   H2S 8955   4.660   2.960  16.169 -1.2916  0.2239 -0.9293
   6923SM   C3S 8956   4.472   3.067  16.209  0.2083 -0.1443  0.1773
   6923SM   H3S 8957   4.441   3.145  16.282  1.8549  0.1224  0.6208
   6923SM    O3 8958   4.373   2.964  16.211 -0.3252 -0.2476  0.6210
   6923SM   HO3 8959   4.431   2.897  16.247 -0.4341  0.5446  2.3706
   6923SM   C4S 8960   4.469   3.123  16.068 -0.0097 -0.1882 -0.0182
   6923SM   H4S 8961   4.461   3.233  16.068 -0.8382 -0.2386  0.2985
   6923SM   C5S 8962   4.474   3.060  15.950 -0.3164 -0.7523 -0.7106
   6923SM   H5S 8963   4.490   2.952  15.951 -2.1438 -1.0807  1.8095
   6923SM   C6S 8964   4.483   3.136  15.820  0.2028  1.2290  0.2526
   6923SM   H6S 8965   4.492   3.247  15.828  0.6172  1.2855 -0.7421
   6923SM   H6T 8966   4.402   3.107  15.750  0.3896  2.0284 -0.3139
   6923SM   C7S 8967   4.607   3.098  15.734  0.3866  0.0753  0.1924
   6923SM   H7S 8968   4.590   2.991  15.711  2.1352  0.2999 -2.5093
   6923SM   H7T 8969   4.706   3.100  15.785  0.7546 -1.7534 -0.4036
   6923SM   C8S 8970   4.610   3.177  15.600 -0.3355  0.4316  0.9511
   6923SM   H8S 8971   4.652   3.279  15.612 -0.9213  0.8652 -0.3885
   6923SM   H8T 8972   4.506   3.177  15.559 -0.5407 -1.4515  1.3627
   6923SM   C9S 8973   4.683   3.093  15.487 -0.8249 -0.5906 -0.0058
   6923SM   H9S 8974   4.681   3.159  15.397 -1.9069 -0.9165 -0.2294
   6923SM   H9T 8975   4.612   3.015  15.452 -0.7391 -0.6770  0.0116
   6923SM  C10S 8976   4.830   3.038  15.505 -0.7943  0.4363  0.4602
   6923SM  H10S 8977   4.835   2.977  15.598  1.4016  0.0225  0.1271
   6923SM  H10T 8978   4.901   3.121  15.528  1.3807 -0.6485 -1.8747
   6923SM  C11S 8979   4.883   2.958  15.385  0.5758  0.0835  0.4033
   6923SM  H11S 8980   4.828   2.863  15.371  0.4827 -0.0217  1.4363
   6923SM  H11T 8981   4.992   2.951  15.401  0.4026 -0.8671  1.2256
   6923SM  C12S 8982   4.864   3.030  15.244 -0.8802  0.2059 -0.3579
   6923SM  H12S 8983   4.928   3.120  15.249 -0.1360 -0.3716  1.2508
   6923SM  H12T 8984   4.760   3.070  15.238 -1.2567 -0.6146  0.3437
   6923SM  C13S 8985   4.900   2.943  15.127  0.0342 -0.5116 -0.5482
   6923SM  H13S 8986   4.856   2.840  15.133  2.1074 -1.4444 -0.6156
   6923SM  H13T 8987   5.008   2.921  15.124  0.2458  0.4487 -0.0980
   6923SM  C14S 8988   4.887   3.009  14.987 -0.7076  0.1209  0.4360
   6923SM  H14S 8989   4.939   2.947  14.912  0.9323  1.4944  0.3639
   6923SM  H14T 8990   4.944   3.104  14.975 -1.3526  0.4440 -0.1743
   6923SM  C15S 8991   4.737   3.014  14.929 -0.1211 -0.2070 -0.4139
   6923SM  H15S 8992   4.683   3.092  14.988  0.0497 -1.5976  1.6961
   6923SM  H15T 8993   4.692   2.917  14.957  0.6810 -0.5828 -0.3951
   6923SM  C16S 8994   4.735   3.050  14.784  0.2986 -0.4453 -0.8405
   6923SM  H16S 8995   4.801   2.981  14.728 -0.4200 -2.1026  0.2756
   6923SM  H16T 8996   4.766   3.157  14.778  0.2374 -0.3414  0.3853
   6923SM  C17S 8997   4.595   3.041  14.721  0.2781  0.1824 -0.3493
   6923SM  H17S 8998   4.521   3.105  14.774 -0.3458 -0.1565 -0.8017
   6923SM  H17T 8999   4.561   2.935  14.731 -0.1462  0.3277 -0.2213
   6923SM  C18S 9000   4.601   3.095  14.576 -0.0801  0.3397  0.1983
   6923SM  H18S 9001   4.635   3.201  14.575 -0.6702  0.6710  3.5552
   6923SM  H18T 9002   4.502   3.087  14.527 -1.1805 -1.0321  2.4837
   6923SM  H18U 9003   4.679   3.039  14.519  1.1294  0.9873  1.1682
   6923SM   C1F 9004   4.842   3.133  16.260  0.1051 -0.6707  0.0889
   6923SM    OF 9005   4.900   3.021  16.256  0.0930 -0.3418  0.2030
   6923SM   C2F 9006   4.924   3.258  16.268  0.2695  0.4186 -0.2883
   6923SM   H2F 9007   5.003   3.248  16.346 -0.2574  0.5541  0.2683
   6923SM   H2G 9008   4.856   3.341  16.300 -1.2330 -1.4818  1.7531
   6923SM   C3F 9009   4.993   3.297  16.134 -0.2889 -0.5215  0.1902
   6923SM   H3F 9010   5.075   3.226  16.112 -0.2024 -0.2863 -0.2436
   6923SM   H3G 9011   5.046   3.392  16.150 -0.3805 -0.3759 -0.3578
   6923SM   C4F 9012   4.893   3.312  16.021  0.1608 -0.1891 -0.1371
   6923SM   H4F 9013   4.808   3.371  16.061  0.3844 -0.8416  1.3756
   6923SM   H4G 9014   4.852   3.212  15.996  0.1875 -0.5076  1.0143
   6923SM   C5F 9015   4.962   3.386  15.902 -0.9239 -0.1354  0.0633
   6923SM   H5F 9016   5.048   3.319  15.883 -0.4800 -0.6297  3.1915
   6923SM   H5G 9017   5.011   3.478  15.941 -1.0632 -0.2143  0.4258
   6923SM   C6F 9018   4.873   3.411  15.782 -0.1779  0.9442  0.2942
   6923SM   H6F 9019   4.789   3.480  15.804  0.7305  2.0113  0.4988
   6923SM   H6G 9020   4.821   3.316  15.757  2.4781 -0.4510 -0.2596
   6923SM   C7F 9021   4.962   3.444  15.665  0.4092  0.4673 -0.1084
   6923SM   H7F 9022   5.049   3.376  15.651 -0.4290 -0.5789 -0.3803
   6923SM   H7G 9023   4.994   3.547  15.691 -0.9839  0.4518  1.9822
   6923SM   C8F 9024   4.882   3.443  15.533 -0.3841 -0.1462  0.0786
   6923SM   H8F 9025   4.803   3.518  15.553 -0.8164 -0.9268  1.4150
   6923SM   H8G 9026   4.831   3.345  15.520 -2.4497  0.8516  0.3136
   6923SM   C9F 9027   4.960   3.477  15.406 -0.0287 -0.1001 -1.1608
   6923SM   H9F 9028   4.900   3.451  15.316 -0.3223 -0.7042 -0.7987
   6923SM   H9G 9029   5.054   3.417  15.404 -0.5552 -0.9340 -2.3494
   6923SM  C10F 9030   4.988   3.628  15.402 -0.2874 -0.2918 -0.2240
   6923SM  H10F 9031   4.998   3.662  15.507  2.7140 -0.8466 -0.2212
   6923SM  H10G 9032   4.900   3.690  15.375 -0.4945  0.8891  2.7708
   6923SM  C11F 9033   5.104   3.674  15.321  0.1789  0.7672  0.2048
   6923SM  H11F 9034   5.183   3.609  15.363 -0.9699 -1.5270 -1.0150
   6923SM  H11G 9035   5.122   3.780  15.351 -2.2121  0.6042  2.6535
   6923SM  C12F 9036   5.093   3.665  15.168 -0.2282  0.3277 -0.0718
   6923SM  H12F 9037   5.024   3.744  15.132 -1.0784  0.3755  1.5656
   6923SM  H12G 9038   5.058   3.565  15.133  1.1605 -0.3157  0.2789
   6923SM  C13F 9039   5.234   3.684  15.112  0.2576 -0.0586  0.5874
   6923SM  H13F 9040   5.304   3.611  15.157  1.6146  1.0940  0.4168
   6923SM  H13G 9041   5.267   3.787  15.138  1.7720 -0.2895 -0.2880
   6923SM  C14F 9042   5.240   3.672  14.959  1.2504  0.3592  0.7383
   6923SM  H14F 9043   5.168   3.747  14.921  0.7273  0.8476  2.5935
   6923SM  H14G 9044   5.204   3.573  14.924  0.9702  0.9467 -0.6808
   6923SM  C15F 9045   5.379   3.720  14.913 -0.0771  0.6532 -0.5847
   6923SM  H15F 9046   5.460   3.654  14.951  0.1554  0.7467 -0.9127
   6923SM  H15G 9047   5.397   3.822  14.953  2.3551  0.3080 -0.6902
   6923SM  C16F 9048   5.402   3.717  14.753  0.4507  0.1198 -0.0960
   6923SM  H16F 9049   5.414   3.611  14.722  0.4657  0.0253  0.2289
   6923SM  H16G 9050   5.498   3.772  14.741  0.8762 -0.4211  0.6818
   6923SM  C17F 9051   5.284   3.780  14.682  0.0152  0.1297 -0.7967
   6923SM  H17F 9052   5.262   3.878  14.728 -0.9790 -0.6967  0.5786
   6923SM  H17G 9053   5.202   3.708  14.702  0.2019 -0.1343 -0.9808
   6923SM  C18F 9054   5.304   3.785  14.529  0.4394 -0.5573  0.3998
   6923SM  H18F 9055   5.328   3.679  14.507  2.3659 -0.0721 -0.0564
   6923SM  H18G 9056   5.395   3.840  14.496  0.3261 -0.7336 -0.2070
   6923SM  C19F 9057   5.183   3.838  14.457 -0.3857  0.1486  0.6893
   6923SM  H19F 9058   5.179   3.949  14.461  0.5188  0.2663 -0.8461
   6923SM  H19G 9059   5.096   3.800  14.515  1.0645 -2.7026  1.1596
   6923SM  C20F 9060   5.158   3.779  14.321  0.6529  0.4715 -0.6757
   6923SM  H20F 9061   5.050   3.766  14.301  0.0384  2.7259  0.8364
   6923SM  H20G 9062   5.190   3.672  14.319 -0.4706  0.0105  1.7447
   6923SM  C21F 9063   5.226   3.854  14.198 -0.0822 -1.0327 -0.5613
   6923SM  H21F 9064   5.337   3.848  14.204  0.2556  0.9213 -3.0050
   6923SM  H21G 9065   5.203   3.963  14.193 -1.7599 -1.4122 -1.7759
   6923SM  C22F 9066   5.186   3.802  14.063  0.7149  0.9005 -0.0068
   6923SM  H22F 9067   5.076   3.798  14.050  0.9763 -1.4176 -2.1689
   6923SM  H22G 9068   5.210   3.694  14.061  0.1464  0.7570  0.6951
   6923SM  C23F 9069   5.245   3.891  13.953 -0.1978  0.7339 -0.3045
   6923SM  H23F 9070   5.194   3.866  13.858 -1.4246  3.4369 -0.4433
   6923SM  H23G 9071   5.356   3.893  13.955  0.1171 -3.8015  2.2414
   6923SM  H23H 9072   5.219   3.998  13.965 -1.0453  0.6920 -1.5732
   7023SM     N 9073   4.182   3.085  16.619  0.1344  0.2241  0.4886
   7023SM   C15 9074   4.123   2.948  16.620  0.2506  0.4877  0.3253
   7023SM  H15A 9075   4.178   2.871  16.568 -1.8571 -1.1546  0.3679
   7023SM  H15B 9076   4.025   2.947  16.575 -0.7464 -1.5394  2.3247
   7023SM  H15C 9077   4.106   2.911  16.720 -0.7948 -0.3966 -0.1618
   7023SM   C14 9078   4.195   3.137  16.481  0.1386 -0.5603  0.3180
   7023SM  H14A 9079   4.265   3.074  16.428  0.8118 -1.5047  2.2206
   7023SM  H14B 9080   4.242   3.234  16.482  1.9952 -1.4108  2.3046
   7023SM  H14C 9081   4.100   3.155  16.432  0.4531  0.2164 -0.0169
   7023SM   C13 9082   4.101   3.184  16.693 -1.4924  0.0187  0.1977
   7023SM  H13A 9083   4.149   3.279  16.714  0.2552 -0.7209 -0.2950
   7023SM  H13B 9084   4.073   3.153  16.793 -0.6491  0.7435  0.6735
   7023SM  H13C 9085   4.009   3.202  16.641 -1.5560 -1.3872 -0.2204
   7023SM   C12 9086   4.328   3.077  16.683 -0.1582 -0.8790 -0.0980
   7023SM  H12A 9087   4.371   2.980  16.660  0.9316 -0.0723 -1.6181
   7023SM  H12B 9088   4.305   3.066  16.788  1.7782  0.2481  0.4902
   7023SM   C11 9089   4.432   3.183  16.643 -0.8159 -0.4695  0.3520
   7023SM  H11A 9090   4.455   3.183  16.535  2.0641  0.6697  0.8615
   7023SM  H11B 9091   4.535   3.170  16.684 -0.2053 -0.7015 -1.2070
   7023SM     P 9092   4.425   3.446  16.616 -0.2545 -0.1939  0.2612
   7023SM   O13 9093   4.329   3.550  16.660  0.4585 -0.0333  0.3893
   7023SM   O14 9094   4.572   3.468  16.634  0.0846 -0.5720  0.4527
   7023SM   O11 9095   4.403   3.419  16.466  0.2088 -0.3919 -0.0795
   7023SM   O12 9096   4.387   3.317  16.685 -0.0964 -0.4921  0.3283
   7023SM   C1S 9097   4.327   3.492  16.366  0.0510  0.0963 -0.0216
   7023SM   H1S 9098   4.246   3.546  16.420  0.3002 -1.0428  1.5761
   7023SM   H1T 9099   4.275   3.412  16.308 -1.6243  0.5239  0.8194
   7023SM    NF 9100   4.301   3.651  16.187  0.7959 -0.3711  0.0913
   7023SM   HNF 9101   4.261   3.598  16.113 -1.1435  0.7950  0.2296
   7023SM   C2S 9102   4.404   3.582  16.266 -0.1530 -0.4712  1.1446
   7023SM   H2S 9103   4.476   3.645  16.322  2.6035 -3.1123  0.7940
   7023SM   C3S 9104   4.507   3.498  16.180  0.5113  0.3929 -0.1146
   7023SM   H3S 9105   4.445   3.435  16.113  2.1110 -0.2308 -1.0726
   7023SM    O3 9106   4.596   3.410  16.246  0.2801  0.4157 -0.0462
   7023SM   HO3 9107   4.561   3.420  16.334 -1.2567 -0.1278 -0.5598
   7023SM   C4S 9108   4.581   3.594  16.091 -1.0640 -0.1105  0.4550
   7023SM   H4S 9109   4.531   3.617  15.996  0.7831  0.9403 -0.3213
   7023SM   C5S 9110   4.703   3.654  16.122 -0.3048  0.8068 -0.4312
   7023SM   H5S 9111   4.755   3.641  16.218 -0.7518  2.1855  0.0276
   7023SM   C6S 9112   4.787   3.743  16.031  0.2459 -0.3619  0.5630
   7023SM   H6S 9113   4.866   3.678  15.988 -2.0543 -2.4576 -0.8051
   7023SM   H6T 9114   4.835   3.822  16.091 -0.2532  0.6931 -0.3867
   7023SM   C7S 9115   4.713   3.807  15.904 -0.6063  0.5057 -0.0407
   7023SM   H7S 9116   4.636   3.876  15.945  0.4513  1.2782  0.6777
   7023SM   H7T 9117   4.661   3.726  15.847 -0.7346 -0.6619  1.6723
   7023SM   C8S 9118   4.804   3.893  15.816 -0.8115 -0.1635  0.0555
   7023SM   H8S 9119   4.879   3.826  15.768 -0.5179 -0.0926  0.4065
   7023SM   H8T 9120   4.860   3.971  15.873  0.7514 -0.6434 -0.7720
   7023SM   C9S 9121   4.727   3.953  15.695  0.3595  0.0552 -0.2642
   7023SM   H9S 9122   4.644   4.015  15.737  0.5729  0.6551 -0.7115
   7023SM   H9T 9123   4.692   3.875  15.624 -2.5665 -1.0101  2.1181
   7023SM  C10S 9124   4.795   4.059  15.605  0.7302 -0.0348 -0.1573
   7023SM  H10S 9125   4.822   4.144  15.671 -2.6318 -0.5746  2.1820
   7023SM  H10T 9126   4.723   4.090  15.527 -1.4285  2.7534  2.6309
   7023SM  C11S 9127   4.910   3.982  15.537 -0.1453  0.2032  1.1462
   7023SM  H11S 9128   4.890   3.876  15.512  1.5269 -0.3021  1.8009
   7023SM  H11T 9129   4.989   3.988  15.616  0.8751  1.4962  0.0870
   7023SM  C12S 9130   4.959   4.047  15.405 -0.4523  0.1035 -0.0306
   7023SM  H12S 9131   5.039   3.985  15.359 -0.1118 -0.0408  0.7423
   7023SM  H12T 9132   4.988   4.152  15.424 -1.1175  0.2262  0.3252
   7023SM  C13S 9133   4.862   4.056  15.290  0.2393 -0.3824 -0.1844
   7023SM  H13S 9134   4.906   4.105  15.201 -0.8657  0.3136 -0.3726
   7023SM  H13T 9135   4.783   4.126  15.325  1.6658  1.6465 -0.8758
   7023SM  C14S 9136   4.787   3.928  15.245  0.0687  0.0549  0.5798
   7023SM  H14S 9137   4.712   3.906  15.325 -0.6087 -0.2494 -0.1335
   7023SM  H14T 9138   4.856   3.841  15.238 -1.4353 -1.2629  1.5942
   7023SM  C15S 9139   4.719   3.944  15.113 -0.0998  0.0305 -0.4234
   7023SM  H15S 9140   4.655   4.035  15.112 -1.6429 -1.0193 -0.5328
   7023SM  H15T 9141   4.656   3.854  15.097  0.1491  0.0899 -1.8381
   7023SM  C16S 9142   4.806   3.939  14.994  0.1117  0.6317 -0.9008
   7023SM  H16S 9143   4.863   3.844  14.995 -0.0961  0.4794  1.3109
   7023SM  H16T 9144   4.888   4.013  15.008 -0.9205  1.4064  1.7120
   7023SM  C17S 9145   4.745   3.969  14.859 -0.0207  0.8723 -0.4375
   7023SM  H17S 9146   4.654   4.033  14.867 -1.5869 -1.0942 -1.3699
   7023SM  H17T 9147   4.704   3.873  14.819  1.1956  0.1840 -0.0938
   7023SM  C18S 9148   4.843   4.042  14.758  0.3952 -0.1664  0.0118
   7023SM  H18S 9149   4.890   4.134  14.799 -2.3036  0.9707  0.7137
   7023SM  H18T 9150   4.798   4.070  14.660  0.4715  2.3980  0.6437
   7023SM  H18U 9151   4.927   3.972  14.734 -0.0126 -0.3896 -0.8148
   7023SM   C1F 9152   4.246   3.766  16.215 -0.4417 -0.4063 -0.0805
   7023SM    OF 9153   4.280   3.837  16.303 -0.4377 -0.3028  0.4181
   7023SM   C2F 9154   4.130   3.803  16.124  0.4287  0.5238  0.3244
   7023SM   H2F 9155   4.028   3.797  16.167  0.0268 -1.0139 -0.7776
   7023SM   H2G 9156   4.127   3.722  16.049  1.9257  0.3577  0.4019
   7023SM   C3F 9157   4.151   3.930  16.040 -0.3323 -0.0858 -0.1542
   7023SM   H3F 9158   4.204   4.010  16.095 -1.4248  1.1380 -0.8258
   7023SM   H3G 9159   4.050   3.967  16.012  0.2375  0.9046 -0.9696
   7023SM   C4F 9160   4.213   3.921  15.898  0.5508  0.7424 -0.2948
   7023SM   H4F 9161   4.211   4.022  15.853  1.3545  0.4147 -1.0916
   7023SM   H4G 9162   4.143   3.862  15.835  0.6861  0.2476  0.0115
   7023SM   C5F 9163   4.348   3.849  15.886  0.2088  0.2399  0.3761
   7023SM   H5F 9164   4.337   3.767  15.960 -2.3982 -0.5953 -0.8353
   7023SM   H5G 9165   4.433   3.913  15.921 -0.1900  0.4934  0.8981
   7023SM   C6F 9166   4.371   3.787  15.753 -0.2628 -0.0167  0.1172
   7023SM   H6F 9167   4.480   3.797  15.732 -0.1709  0.7304  0.8942
   7023SM   H6G 9168   4.317   3.847  15.677  1.6828  3.2209  1.1027
   7023SM   C7F 9169   4.310   3.643  15.741  0.0130 -0.0463  0.0384
   7023SM   H7F 9170   4.205   3.647  15.776 -0.2396  0.0073 -0.7221
   7023SM   H7G 9171   4.377   3.584  15.808  0.5649 -1.1768 -1.4520
   7023SM   C8F 9172   4.321   3.586  15.599 -0.2568 -0.3733  0.0104
   7023SM   H8F 9173   4.260   3.647  15.528  0.6186  1.5091  0.8196
   7023SM   H8G 9174   4.267   3.489  15.604  0.4826 -0.7605  0.6681
   7023SM   C9F 9175   4.466   3.572  15.543 -0.0375 -0.4781 -0.4462
   7023SM   H9F 9176   4.521   3.495  15.600  1.4729  0.5534 -0.4553
   7023SM   H9G 9177   4.516   3.670  15.562 -1.0653 -0.0304  0.0415
   7023SM  C10F 9178   4.474   3.556  15.391  0.0884  0.0811  0.5801
   7023SM  H10F 9179   4.448   3.652  15.341 -0.0429 -1.0715 -1.7404
   7023SM  H10G 9180   4.388   3.487  15.374  0.4471 -0.6032  1.4543
   7023SM  C11F 9181   4.600   3.512  15.324  0.0515 -0.1373  0.4200
   7023SM  H11F 9182   4.642   3.421  15.373 -0.1379 -0.3195  0.2459
   7023SM  H11G 9183   4.676   3.593  15.321 -2.1323  2.0804 -4.2409
   7023SM  C12F 9184   4.568   3.488  15.174  0.1879  0.6886  0.2481
   7023SM  H12F 9185   4.538   3.588  15.135 -0.9281 -0.2049 -1.3046
   7023SM  H12G 9186   4.488   3.415  15.148 -0.9042  2.2883 -1.1436
   7023SM  C13F 9187   4.697   3.479  15.092  0.0715 -0.0458  0.4195
   7023SM  H13F 9188   4.765   3.396  15.122  0.5420 -0.0114 -0.4816
   7023SM  H13G 9189   4.765   3.561  15.125 -0.5643  0.6515  0.0372
   7023SM  C14F 9190   4.675   3.474  14.940 -0.0436 -0.0117 -0.1925
   7023SM  H14F 9191   4.595   3.539  14.899  0.2184  0.7084  0.4252
   7023SM  H14G 9192   4.650   3.373  14.900  1.3981 -0.1934 -0.6896
   7023SM  C15F 9193   4.805   3.512  14.873 -0.1812 -0.2800  0.1663
   7023SM  H15F 9194   4.887   3.452  14.916 -1.1211 -2.3068 -0.7466
   7023SM  H15G 9195   4.816   3.615  14.914 -0.1694  0.1628 -0.9007
   7023SM  C16F 9196   4.819   3.516  14.714 -0.4820 -0.3301 -0.6800
   7023SM  H16F 9197   4.748   3.595  14.680  0.8087  1.4251  0.5042
   7023SM  H16G 9198   4.790   3.413  14.686  0.4849 -0.7770 -0.0898
   7023SM  C17F 9199   4.967   3.552  14.681 -0.4141 -0.0500 -0.1725
   7023SM  H17F 9200   5.034   3.488  14.741 -0.1348  1.9127  1.7403
   7023SM  H17G 9201   4.978   3.658  14.713  1.4871 -0.5225  0.8971
   7023SM  C18F 9202   5.003   3.532  14.538 -0.9177  0.1340  0.8831
   7023SM  H18F 9203   5.094   3.595  14.534  0.1230 -1.3783  0.0946
   7023SM  H18G 9204   4.934   3.585  14.468  1.6917  1.2733 -0.9813
   7023SM  C19F 9205   5.035   3.390  14.496 -0.3799  0.2584  0.0034
   7023SM  H19F 9206   4.950   3.322  14.521  1.9851 -1.8544  3.0641
   7023SM  H19G 9207   5.126   3.355  14.549  0.3935  1.4422 -0.5105
   7023SM  C20F 9208   5.062   3.374  14.342  0.0715 -0.0986  0.0925
   7023SM  H20F 9209   5.100   3.272  14.318  1.1308 -0.0811  1.5832
   7023SM  H20G 9210   5.151   3.432  14.313 -0.1664  0.3966  0.3492
   7023SM  C21F 9211   4.940   3.414  14.258 -0.5911  0.2951  0.3944
   7023SM  H21F 9212   4.910   3.518  14.286  0.6455  0.4651  1.1957
   7023SM  H21G 9213   4.848   3.358  14.283  1.2975 -2.6881  1.0994
   7023SM  C22F 9214   4.966   3.389  14.103 -0.0198 -0.0732  0.2048
   7023SM  H22F 9215   5.043   3.311  14.087  1.4192  1.7462 -2.3388
   7023SM  H22G 9216   5.000   3.485  14.060 -0.1661  0.0530  0.3673
   7023SM  C23F 9217   4.843   3.345  14.020  0.2770 -0.3932  0.6543
   7023SM  H23F 9218   4.758   3.416  14.031  0.8390  0.4678 -0.3311
   7023SM  H23G 9219   4.799   3.250  14.056 -2.0009 -0.0157 -0.8451
   7023SM  H23H 9220   4.872   3.336  13.913  3.0162  0.2137  1.2831
   7123SM     N 9221   2.730   1.028  16.696 -0.4536 -0.2313 -0.5973
   7123SM   C15 9222   2.647   1.116  16.795  0.1146  0.1316  0.6826
   7123SM  H15A 9223   2.578   1.177  16.739  0.9613  3.3527  2.8801
   7123SM  H15B 9224   2.710   1.186  16.849 -1.5396  0.9673  1.6087
   7123SM  H15C 9225   2.594   1.057  16.868 -2.3614 -1.9287 -2.5076
   7123SM   C14 9226   2.824   0.950  16.771  0.2195 -0.8053  1.5925
   7123SM  H14A 9227   2.884   0.888  16.706  1.5098  1.6953  0.2413
   7123SM  H14B 9228   2.778   0.900  16.854 -0.2749 -3.6027 -0.2200
   7123SM  H14C 9229   2.893   1.022  16.812 -0.0533  0.8069 -0.5636
   7123SM   C13 9230   2.634   0.943  16.617  0.0133 -0.0734  0.4569
   7123SM  H13A 9231   2.613   0.848  16.664 -2.0530  0.3759  0.5320
   7123SM  H13B 9232   2.685   0.904  16.530 -0.6284 -2.5320  1.0928
   7123SM  H13C 9233   2.538   0.988  16.597 -0.2162 -0.6946  0.1341
   7123SM   C12 9234   2.803   1.111  16.594 -0.9702  0.5227  0.8956
   7123SM  H12A 9235   2.853   1.200  16.631  0.8371 -0.2421  0.3815
   7123SM  H12B 9236   2.735   1.154  16.521  1.5225  2.0092 -0.7181
   7123SM   C11 9237   2.906   1.039  16.508 -0.0306  0.4485  0.2999
   7123SM  H11A 9238   2.910   1.078  16.404  1.0461 -0.1060  0.1235
   7123SM  H11B 9239   2.876   0.933  16.493  1.6209 -0.0502  0.4041
   7123SM     P 9240   3.126   1.166  16.551 -0.2408 -0.2215  0.0858
   7123SM   O13 9241   3.045   1.286  16.573  0.8387 -0.1260 -0.4843
   7123SM   O14 9242   3.249   1.143  16.634 -0.1639 -0.3711 -0.5537
   7123SM   O11 9243   3.162   1.160  16.396 -0.5248  0.4597  0.2526
   7123SM   O12 9244   3.034   1.036  16.567  0.0667  0.2438  0.2452
   7123SM   C1S 9245   3.185   1.035  16.323  0.1621  0.0576  1.5258
   7123SM   H1S 9246   3.094   0.971  16.319  0.8122 -0.8819 -2.3577
   7123SM   H1T 9247   3.262   0.972  16.372  0.2891 -0.5020  0.6292
   7123SM    NF 9248   3.220   0.941  16.088  0.1221  0.4276  0.1120
   7123SM   HNF 9249   3.304   0.914  16.043 -0.7956 -1.7487 -0.4270
   7123SM   C2S 9250   3.219   1.060  16.173 -0.2711  0.2334 -0.0880
   7123SM   H2S 9251   3.142   1.130  16.135 -0.2691  0.8717  1.0637
   7123SM   C3S 9252   3.356   1.140  16.154 -0.0166  0.3476 -0.1618
   7123SM   H3S 9253   3.438   1.092  16.212  1.8966  2.0240 -1.3641
   7123SM    O3 9254   3.346   1.265  16.225 -0.5280  0.0470 -0.0144
   7123SM   HO3 9255   3.266   1.258  16.278 -1.0200  1.0233 -0.5966
   7123SM   C4S 9256   3.402   1.145  16.010 -0.0628  0.9399  0.3379
   7123SM   H4S 9257   3.465   1.060  15.980 -1.9976 -0.6585  0.5709
   7123SM   C5S 9258   3.387   1.240  15.917 -0.4508  0.2998  0.3976
   7123SM   H5S 9259   3.338   1.335  15.943  0.7211  1.5723 -1.7406
   7123SM   C6S 9260   3.436   1.230  15.775 -0.4059  0.1745 -0.0366
   7123SM   H6S 9261   3.353   1.205  15.705  1.3219  0.0085 -2.1180
   7123SM   H6T 9262   3.506   1.144  15.768 -0.3984  0.2458 -0.8959
   7123SM   C7S 9263   3.501   1.358  15.716  0.2141 -0.5739 -0.1038
   7123SM   H7S 9264   3.603   1.385  15.751 -0.4541  1.2081  0.5478
   7123SM   H7T 9265   3.434   1.442  15.744  1.9311  1.3058 -1.3881
   7123SM   C8S 9266   3.503   1.342  15.563 -0.1730 -0.5385  0.4365
   7123SM   H8S 9267   3.403   1.306  15.533 -2.0030  2.6899  2.1050
   7123SM   H8T 9268   3.581   1.265  15.543 -0.5745 -1.1655  1.2352
   7123SM   C9S 9269   3.547   1.469  15.485 -0.3770 -0.7541  0.3318
   7123SM   H9S 9270   3.628   1.516  15.545 -0.1977  2.7571 -2.2815
   7123SM   H9T 9271   3.462   1.541  15.482 -0.6637 -1.1093 -0.2606
   7123SM  C10S 9272   3.605   1.444  15.341 -0.2238 -0.7020  0.4345
   7123SM  H10S 9273   3.522   1.400  15.281  0.5769 -0.9914 -0.4822
   7123SM  H10T 9274   3.692   1.376  15.355  1.0434  0.2527 -2.1407
   7123SM  C11S 9275   3.648   1.566  15.258  0.3305  0.0775 -0.5492
   7123SM  H11S 9276   3.699   1.648  15.313 -2.7355  1.3022  0.6517
   7123SM  H11T 9277   3.565   1.621  15.210 -0.1984 -0.5790 -0.4062
   7123SM  C12S 9278   3.738   1.541  15.132  0.7970  0.1576 -0.4797
   7123SM  H12S 9279   3.695   1.447  15.092 -0.8356  1.3113 -1.5104
   7123SM  H12T 9280   3.836   1.500  15.166  0.8968  1.4279  0.8530
   7123SM  C13S 9281   3.739   1.643  15.022 -0.3950  0.5635 -0.5403
   7123SM  H13S 9282   3.769   1.746  15.053 -1.1867  0.7639 -0.4270
   7123SM  H13T 9283   3.632   1.655  14.995 -1.4136 -1.1817  2.2333
   7123SM  C14S 9284   3.826   1.588  14.905 -0.4672 -0.3494  0.4490
   7123SM  H14S 9285   3.785   1.612  14.804  0.2249 -2.0634 -0.2712
   7123SM  H14T 9286   3.840   1.478  14.913  0.8578 -0.1721  0.7439
   7123SM  C15S 9287   3.970   1.636  14.897  0.1263  0.3589 -0.3972
   7123SM  H15S 9288   4.034   1.579  14.826 -0.5975 -0.9615 -0.0190
   7123SM  H15T 9289   4.020   1.604  14.991  0.9631 -0.4259 -1.0954
   7123SM  C16S 9290   3.987   1.789  14.875  0.1117  0.1102 -0.4906
   7123SM  H16S 9291   3.936   1.836  14.962  1.3541 -1.9570  1.4586
   7123SM  H16T 9292   3.940   1.813  14.778 -1.5460  0.5330  0.3751
   7123SM  C17S 9293   4.134   1.824  14.888 -0.3769 -0.0526  0.9775
   7123SM  H17S 9294   4.182   1.748  14.822 -2.2950  0.3942 -1.0499
   7123SM  H17T 9295   4.168   1.820  14.993 -0.3354 -0.2070  0.9598
   7123SM  C18S 9296   4.159   1.961  14.831  0.0357 -0.2798  0.2972
   7123SM  H18S 9297   4.133   1.956  14.723  1.1903 -0.2536  0.0015
   7123SM  H18T 9298   4.257   2.006  14.856  0.2085  0.7415 -1.9590
   7123SM  H18U 9299   4.078   2.020  14.880 -1.9055 -1.2320 -1.5902
   7123SM   C1F 9300   3.117   0.861  16.059  0.3923 -0.0812  0.1313
   7123SM    OF 9301   3.008   0.871  16.111 -0.0019 -0.2575  0.1996
   7123SM   C2F 9302   3.146   0.745  15.965 -0.1979 -0.4435  0.0501
   7123SM   H2F 9303   3.151   0.655  16.030  0.6471  0.4983  1.3384
   7123SM   H2G 9304   3.247   0.753  15.919 -0.4609  1.4860 -0.2902
   7123SM   C3F 9305   3.035   0.713  15.857 -0.2063 -0.3060 -0.5460
   7123SM   H3F 9306   2.935   0.725  15.904 -0.3689 -0.7419 -0.7722
   7123SM   H3G 9307   3.049   0.612  15.813  3.8082 -1.4272  2.6343
   7123SM   C4F 9308   3.045   0.816  15.748  0.4482  0.5852  0.5432
   7123SM   H4F 9309   3.031   0.917  15.793 -0.7666 -0.1869  1.9708
   7123SM   H4G 9310   2.961   0.792  15.680  0.5122  1.2525  0.2193
   7123SM   C5F 9311   3.176   0.826  15.677  0.6060  0.1052  0.3507
   7123SM   H5F 9312   3.217   0.728  15.644  1.1308 -0.3779  2.3263
   7123SM   H5G 9313   3.252   0.880  15.736  0.1507  1.8480 -0.5909
   7123SM   C6F 9314   3.146   0.909  15.551 -0.9105 -0.1471  0.2570
   7123SM   H6F 9315   3.097   1.005  15.579  2.5100  1.3079  1.8944
   7123SM   H6G 9316   3.070   0.857  15.490 -1.1649  1.2053 -0.6203
   7123SM   C7F 9317   3.276   0.951  15.471 -0.1914  0.2893  0.5877
   7123SM   H7F 9318   3.321   0.858  15.431  0.4807 -0.6292  3.2426
   7123SM   H7G 9319   3.358   0.992  15.534  0.8567 -0.4218 -0.2854
   7123SM   C8F 9320   3.242   1.052  15.361  0.2455 -0.1800 -0.3930
   7123SM   H8F 9321   3.186   1.144  15.390 -1.7980 -1.2648 -0.6892
   7123SM   H8G 9322   3.176   0.995  15.292  0.0140 -0.3626 -0.0268
   7123SM   C9F 9323   3.370   1.097  15.281  0.3418 -0.1108  0.2147
   7123SM   H9F 9324   3.422   1.002  15.256 -0.8089 -0.6549 -0.1759
   7123SM   H9G 9325   3.431   1.158  15.351 -0.4241  1.6905 -0.6370
   7123SM  C10F 9326   3.337   1.173  15.152  0.2947 -0.1624  0.2867
   7123SM  H10F 9327   3.308   1.276  15.181 -1.1848 -0.2462 -0.7297
   7123SM  H10G 9328   3.239   1.132  15.118  0.2863 -1.9285  2.2634
   7123SM  C11F 9329   3.455   1.172  15.047  0.3698  0.2517 -0.0804
   7123SM  H11F 9330   3.492   1.068  15.047 -0.7254 -0.1531  0.4229
   7123SM  H11G 9331   3.540   1.227  15.093 -0.8954  1.1641  1.2639
   7123SM  C12F 9332   3.427   1.226  14.906  1.1971 -0.0080 -0.0879
   7123SM  H12F 9333   3.376   1.322  14.927 -4.2844 -2.9072  2.0218
   7123SM  H12G 9334   3.353   1.170  14.844  2.5499 -1.3371 -0.5610
   7123SM  C13F 9335   3.549   1.230  14.815 -0.7550  0.0682  0.3874
   7123SM  H13F 9336   3.585   1.133  14.774  3.7619  1.7302 -0.2448
   7123SM  H13G 9337   3.619   1.286  14.881  0.3859 -0.9112  0.0479
   7123SM  C14F 9338   3.534   1.313  14.684  0.3175 -0.1094  0.1223
   7123SM  H14F 9339   3.466   1.268  14.609 -0.3370 -0.5229  0.9497
   7123SM  H14G 9340   3.635   1.312  14.638  0.3023  0.1876  0.0822
   7123SM  C15F 9341   3.499   1.461  14.711 -0.1606 -0.4376  0.5844
   7123SM  H15F 9342   3.587   1.513  14.754  0.0966  0.8028 -1.3322
   7123SM  H15G 9343   3.410   1.482  14.774 -0.0519 -0.4525  0.7415
   7123SM  C16F 9344   3.467   1.532  14.575  0.3392 -0.3118  0.1012
   7123SM  H16F 9345   3.512   1.483  14.486  0.1200  1.0093 -0.7673
   7123SM  H16G 9346   3.520   1.630  14.568  2.1795 -1.3570 -1.5795
   7123SM  C17F 9347   3.316   1.554  14.553 -0.3423  0.5075  0.2137
   7123SM  H17F 9348   3.279   1.616  14.637 -2.4999  3.5898 -2.7347
   7123SM  H17G 9349   3.276   1.450  14.559  2.9648 -0.8723  0.5435
   7123SM  C18F 9350   3.286   1.625  14.425  0.0157  0.8391  0.6566
   7123SM  H18F 9351   3.358   1.709  14.423  2.2790 -0.9548 -1.8574
   7123SM  H18G 9352   3.184   1.667  14.431 -0.6269 -0.2901 -1.2861
   7123SM  C19F 9353   3.299   1.534  14.305 -0.3845 -0.3789 -0.6260
   7123SM  H19F 9354   3.218   1.458  14.304 -0.2495 -0.5276 -0.3691
   7123SM  H19G 9355   3.391   1.473  14.313  0.6704  1.4109  2.1284
   7123SM  C20F 9356   3.304   1.607  14.170 -0.0315  0.2941 -0.0136
   7123SM  H20F 9357   3.392   1.675  14.173 -1.5657  2.3964  3.5375
   7123SM  H20G 9358   3.207   1.655  14.146  0.2012  0.3595 -0.8814
   7123SM  C21F 9359   3.334   1.512  14.054  0.2181 -0.4360 -0.7354
   7123SM  H21F 9360   3.251   1.438  14.044  1.6602 -1.9571 -1.9765
   7123SM  H21G 9361   3.423   1.461  14.094 -0.4252 -2.1782 -1.4205
   7123SM  C22F 9362   3.372   1.587  13.924  0.3656  0.6005 -0.3092
   7123SM  H22F 9363   3.475   1.619  13.948  0.5007 -0.2870  0.3608
   7123SM  H22G 9364   3.307   1.677  13.915 -2.1691 -1.0982 -0.1346
   7123SM  C23F 9365   3.376   1.496  13.799  0.1211 -0.3694 -1.0697
   7123SM  H23F 9366   3.447   1.410  13.802  1.6388  0.8235 -1.6187
   7123SM  H23G 9367   3.413   1.553  13.711  0.1988  1.8740  0.3466
   7123SM  H23H 9368   3.273   1.465  13.772  0.2051  0.3401 -2.2740
   7223SM     N 9369   5.303   4.063  16.841 -0.8852 -0.2813 -0.1734
   7223SM   C15 9370   5.258   4.106  16.976 -0.3736  0.0164 -0.7470
   7223SM  H15A 9371   5.325   4.165  17.037 -1.7241  0.8562 -0.0254
   7223SM  H15B 9372   5.226   4.019  17.031 -2.2758  0.8367 -0.4405
   7223SM  H15C 9373   5.167   4.164  16.963 -0.5558 -0.3416 -1.0831
   7223SM   C14 9374   5.193   3.987  16.772 -0.6203  1.1474 -0.0937
   7223SM  H14A 9375   5.161   3.906  16.837  0.5577  1.1802  0.5458
   7223SM  H14B 9376   5.230   3.955  16.676 -0.7931  1.6385 -0.3265
   7223SM  H14C 9377   5.111   4.058  16.767 -1.7136 -0.0988 -4.2429
   7223SM   C13 9378   5.309   4.183  16.750  0.4113  0.1209 -0.1304
   7223SM  H13A 9379   5.328   4.140  16.653  1.6360  1.5298 -0.5614
   7223SM  H13B 9380   5.391   4.248  16.776 -1.5451  2.0504  1.6885
   7223SM  H13C 9381   5.214   4.235  16.749 -0.9192 -2.1472  0.9765
   7223SM   C12 9382   5.425   3.979  16.845  0.0681  0.3311 -0.1489
   7223SM  H12A 9383   5.397   3.895  16.906 -0.0540  0.7024  0.3060
   7223SM  H12B 9384   5.498   4.025  16.910  0.4530 -1.6830  0.9033
   7223SM   C11 9385   5.480   3.924  16.715 -0.0824  0.0616  0.2183
   7223SM  H11A 9386   5.400   3.878  16.652  0.8452  1.0159 -1.7585
   7223SM  H11B 9387   5.552   3.841  16.732 -0.7142 -0.2096  1.6961
   7223SM     P 9388   5.674   4.091  16.660 -0.2084  0.0085  0.8452
   7223SM   O13 9389   5.700   4.206  16.573  0.9000 -0.1568 -0.2142
   7223SM   O14 9390   5.695   4.109  16.801  0.8874 -0.2718  0.2839
   7223SM   O11 9391   5.781   3.979  16.607  0.0099 -0.3700  0.3383
   7223SM   O12 9392   5.536   4.029  16.632  0.5638 -0.0575  0.0609
   7223SM   C1S 9393   5.764   3.892  16.497 -0.1581  0.4887 -0.2412
   7223SM   H1S 9394   5.657   3.886  16.468 -0.2716 -1.3166  0.4195
   7223SM   H1T 9395   5.804   3.795  16.533 -0.4987  0.8026  1.0392
   7223SM    NF 9396   5.848   3.816  16.273  0.0728 -0.3765  0.6504
   7223SM   HNF 9397   5.936   3.770  16.265  0.2779 -0.1933  1.7354
   7223SM   C2S 9398   5.844   3.928  16.366 -0.1405 -0.8739  0.1091
   7223SM   H2S 9399   5.781   4.008  16.322 -1.9239 -2.6113 -0.6917
   7223SM   C3S 9400   5.979   4.003  16.395  0.5731 -0.2185  0.1634
   7223SM   H3S 9401   6.045   3.940  16.460 -0.5206 -0.6923  0.8454
   7223SM    O3 9402   5.966   4.126  16.471 -0.2953  0.4693  0.2691
   7223SM   HO3 9403   5.871   4.130  16.483 -0.5528 -1.5616 -0.6786
   7223SM   C4S 9404   6.049   4.041  16.266  0.5741  0.3274  0.2270
   7223SM   H4S 9405   6.029   4.142  16.228  1.3690  0.4824  0.1953
   7223SM   C5S 9406   6.143   3.968  16.207 -0.0130  0.3025  0.1453
   7223SM   H5S 9407   6.171   3.868  16.243 -2.2760 -0.7678 -0.8587
   7223SM   C6S 9408   6.216   4.013  16.087  0.1322 -0.4310 -0.3323
   7223SM   H6S 9409   6.176   3.956  16.001  0.0983 -2.3731  0.9036
   7223SM   H6T 9410   6.324   3.987  16.094  0.4522  0.4539 -1.6280
   7223SM   C7S 9411   6.230   4.169  16.056 -0.1946 -0.3272  0.4758
   7223SM   H7S 9412   6.293   4.221  16.131 -0.4243  1.5865 -0.6000
   7223SM   H7T 9413   6.135   4.226  16.060 -0.2232 -0.4085  1.1265
   7223SM   C8S 9414   6.297   4.192  15.923 -0.0317 -0.4771 -0.4492
   7223SM   H8S 9415   6.238   4.139  15.846 -0.9151 -0.7650  0.4048
   7223SM   H8T 9416   6.402   4.155  15.923 -0.3494 -1.3859 -0.6458
   7223SM   C9S 9417   6.310   4.347  15.890  0.4028  0.0610 -0.5491
   7223SM   H9S 9418   6.386   4.389  15.959  2.0036 -2.9736 -0.2792
   7223SM   H9T 9419   6.210   4.390  15.910 -0.6494 -2.5263  0.1827
   7223SM  C10S 9420   6.344   4.364  15.740 -0.3041 -0.6325 -0.3514
   7223SM  H10S 9421   6.254   4.315  15.697  0.0589 -1.2903 -0.3801
   7223SM  H10T 9422   6.439   4.310  15.717  0.2248  0.5327 -0.9764
   7223SM  C11S 9423   6.361   4.513  15.711 -0.2482  0.6535 -0.0632
   7223SM  H11S 9424   6.435   4.563  15.778  0.2000  1.4299 -1.1119
   7223SM  H11T 9425   6.267   4.571  15.705 -0.7430  0.1953  2.2871
   7223SM  C12S 9426   6.415   4.528  15.568 -0.4755 -0.3918  0.1565
   7223SM  H12S 9427   6.338   4.508  15.490  1.7972 -0.1267 -2.3268
   7223SM  H12T 9428   6.492   4.451  15.545  1.8375  2.2494 -1.5385
   7223SM  C13S 9429   6.465   4.671  15.538 -0.1764  0.5843 -0.0817
   7223SM  H13S 9430   6.538   4.693  15.618 -0.2731 -1.3410  0.5889
   7223SM  H13T 9431   6.382   4.743  15.556  0.5334  1.4286 -0.0931
   7223SM  C14S 9432   6.526   4.679  15.406  0.5335  0.0790  0.8225
   7223SM  H14S 9433   6.466   4.618  15.335 -2.0068  3.0481  0.1764
   7223SM  H14T 9434   6.629   4.639  15.390  0.8503  1.9095 -3.0725
   7223SM  C15S 9435   6.533   4.827  15.347 -0.1866 -1.1038 -0.1726
   7223SM  H15S 9436   6.574   4.906  15.413  0.0180  0.7057 -2.3290
   7223SM  H15T 9437   6.431   4.858  15.316 -0.4150 -1.2713  0.4086
   7223SM  C16S 9438   6.625   4.831  15.223  0.1789 -0.0813 -0.0593
   7223SM  H16S 9439   6.598   4.735  15.173 -1.5796  0.2848  0.1327
   7223SM  H16T 9440   6.729   4.821  15.260  0.4254  0.0778 -0.6883
   7223SM  C17S 9441   6.612   4.959  15.139  0.4745  0.4020  0.8279
   7223SM  H17S 9442   6.650   5.038  15.208 -0.2756  0.6014  1.0238
   7223SM  H17T 9443   6.506   4.992  15.135  0.7492  1.3469  1.0088
   7223SM  C18S 9444   6.683   4.959  15.002  0.0535 -0.0761  0.3844
   7223SM  H18S 9445   6.649   5.036  14.931  0.9655  1.2390  1.3151
   7223SM  H18T 9446   6.656   4.860  14.958 -1.1799  0.2758  0.3394
   7223SM  H18U 9447   6.794   4.962  15.015  0.1236 -1.0713  0.1408
   7223SM   C1F 9448   5.736   3.773  16.213  0.3500  0.0824 -0.4771
   7223SM    OF 9449   5.631   3.830  16.234  0.1409 -0.1711  0.3259
   7223SM   C2F 9450   5.743   3.647  16.125  0.1642 -0.3471 -0.7659
   7223SM   H2F 9451   5.653   3.589  16.154 -0.0419  0.5422  0.4329
   7223SM   H2G 9452   5.826   3.583  16.160 -1.1636 -2.4174 -1.2238
   7223SM   C3F 9453   5.766   3.674  15.980 -0.4027 -0.8863 -0.3211
   7223SM   H3F 9454   5.687   3.733  15.929 -1.3973  0.0151  2.1080
   7223SM   H3G 9455   5.778   3.578  15.926 -0.6519  0.1586 -2.3038
   7223SM   C4F 9456   5.902   3.741  15.944  0.2600 -0.3132 -0.0588
   7223SM   H4F 9457   5.977   3.681  16.000 -1.6048 -1.7238  1.0440
   7223SM   H4G 9458   5.901   3.846  15.981 -0.7950 -1.9159  5.5010
   7223SM   C5F 9459   5.943   3.742  15.800  0.0848 -0.2891 -0.1283
   7223SM   H5F 9460   5.863   3.782  15.734 -0.2266 -2.0800 -0.9065
   7223SM   H5G 9461   5.975   3.643  15.763 -1.0567 -1.3641  1.5866
   7223SM   C6F 9462   6.069   3.821  15.788 -0.1930 -0.2693  0.0111
   7223SM   H6F 9463   6.132   3.807  15.879  0.2032 -2.0482 -0.5037
   7223SM   H6G 9464   6.050   3.929  15.807 -1.8253 -0.2781 -1.3353
   7223SM   C7F 9465   6.149   3.822  15.653  0.5675 -0.2229  0.2244
   7223SM   H7F 9466   6.073   3.851  15.578 -0.4897 -0.5971  1.1191
   7223SM   H7G 9467   6.202   3.729  15.622  0.4230 -0.3870  0.4687
   7223SM   C8F 9468   6.269   3.924  15.657  0.1246 -0.2948  0.4315
   7223SM   H8F 9469   6.336   3.896  15.741 -0.0770 -1.0427  0.3522
   7223SM   H8G 9470   6.214   4.012  15.697  1.4729  0.4943  0.5900
   7223SM   C9F 9471   6.336   3.955  15.517  0.0019  0.3767  0.1023
   7223SM   H9F 9472   6.261   3.947  15.436  1.8808  1.2023 -1.8070
   7223SM   H9G 9473   6.417   3.879  15.507 -1.6215 -1.5858  1.1155
   7223SM  C10F 9474   6.399   4.095  15.508 -0.4550 -0.1473 -0.2621
   7223SM  H10F 9475   6.481   4.110  15.582 -1.0302  0.6648  0.2303
   7223SM  H10G 9476   6.330   4.181  15.514 -3.2239 -2.2780  0.6099
   7223SM  C11F 9477   6.466   4.107  15.368  0.4284 -0.6091 -0.0119
   7223SM  H11F 9478   6.394   4.079  15.288  1.2362 -1.3756 -0.5010
   7223SM  H11G 9479   6.545   4.029  15.376 -0.1240 -1.0488  1.4917
   7223SM  C12F 9480   6.540   4.237  15.336  0.2708 -0.1326 -0.5388
   7223SM  H12F 9481   6.616   4.262  15.413  0.0088  0.5147 -0.4796
   7223SM  H12G 9482   6.475   4.325  15.356  2.4552  0.9530  2.4590
   7223SM  C13F 9483   6.605   4.244  15.198 -0.2574 -0.1464 -0.1770
   7223SM  H13F 9484   6.520   4.243  15.127 -0.6985  1.8644  0.2761
   7223SM  H13G 9485   6.673   4.157  15.186  1.3736  1.1715 -0.9053
   7223SM  C14F 9486   6.682   4.372  15.174 -0.2076 -0.4737 -0.5528
   7223SM  H14F 9487   6.756   4.399  15.252 -0.5572  0.6347 -0.5845
   7223SM  H14G 9488   6.613   4.458  15.160 -0.3037 -0.6356 -1.0948
   7223SM  C15F 9489   6.767   4.363  15.047  0.6683  0.2892 -0.0230
   7223SM  H15F 9490   6.696   4.320  14.974  2.2072 -0.8729 -0.8826
   7223SM  H15G 9491   6.855   4.297  15.058  0.2025 -0.2736  0.4397
   7223SM  C16F 9492   6.799   4.504  15.000 -0.9900  0.3353  0.2497
   7223SM  H16F 9493   6.835   4.566  15.085  0.7269  1.8397 -1.4875
   7223SM  H16G 9494   6.703   4.556  14.978  0.1258  2.4198  0.0887
   7223SM  C17F 9495   6.889   4.502  14.876 -0.5529  0.6220 -0.6523
   7223SM  H17F 9496   6.834   4.439  14.803 -0.8514 -2.4873  2.0532
   7223SM  H17G 9497   6.988   4.457  14.899 -0.3837  1.9303  1.3561
   7223SM  C18F 9498   6.910   4.642  14.823 -0.5207  0.0701  0.1784
   7223SM  H18F 9499   7.007   4.688  14.853 -0.1905 -0.1366 -0.5590
   7223SM  H18G 9500   6.837   4.719  14.856  1.2087  1.0902  1.8220
   7223SM  C19F 9501   6.902   4.640  14.667  0.9958 -0.1403  0.4502
   7223SM  H19F 9502   6.797   4.604  14.655  0.9156 -0.1311  1.0926
   7223SM  H19G 9503   6.972   4.576  14.609 -0.9479 -0.4370 -1.7271
   7223SM  C20F 9504   6.898   4.785  14.604 -0.4390 -0.0915  0.2320
   7223SM  H20F 9505   6.997   4.827  14.633  0.7148 -3.1650  1.1111
   7223SM  H20G 9506   6.820   4.841  14.659  0.7494  0.8635  1.0126
   7223SM  C21F 9507   6.879   4.793  14.454  0.1449  0.3905  0.3213
   7223SM  H21F 9508   6.930   4.704  14.411  1.8533  1.4276  0.1115
   7223SM  H21G 9509   6.917   4.891  14.420  1.6419  0.0814  1.0024
   7223SM  C22F 9510   6.732   4.798  14.417 -0.3961  0.0284  0.2773
   7223SM  H22F 9511   6.680   4.876  14.476  1.1048  0.2127  1.3953
   7223SM  H22G 9512   6.688   4.698  14.439  0.2712 -1.0056 -2.6199
   7223SM  C23F 9513   6.719   4.825  14.265 -0.3299  0.3638 -0.6272
   7223SM  H23F 9514   6.775   4.746  14.211  0.4993  0.4396  0.0958
   7223SM  H23G 9515   6.764   4.921  14.235  0.1186  0.6858  0.9541
   7223SM  H23H 9516   6.617   4.820  14.220 -0.1980 -0.2150 -0.8640
   7323SM     N 9517   3.518   2.925  16.685 -0.5479 -0.6200 -0.6192
   7323SM   C15 9518   3.466   2.788  16.709  0.3100  0.1520 -0.1380
   7323SM  H15A 9519   3.360   2.792  16.728  0.3097 -1.6386  0.3747
   7323SM  H15B 9520   3.498   2.744  16.802 -2.3169 -0.7044  0.4483
   7323SM  H15C 9521   3.485   2.727  16.622 -0.1409  0.8171 -0.7198
   7323SM   C14 9522   3.482   2.979  16.551 -0.3013  0.0736 -0.0137
   7323SM  H14A 9523   3.377   2.991  16.530  0.1631  0.3506 -2.5843
   7323SM  H14B 9524   3.537   2.922  16.478  1.2197  0.0863  1.0804
   7323SM  H14C 9525   3.521   3.080  16.546  0.2294 -0.1760 -2.1256
   7323SM   C13 9526   3.451   3.015  16.783 -0.4991 -0.6317  0.1799
   7323SM  H13A 9527   3.464   2.981  16.884 -2.4487 -0.4165  0.5470
   7323SM  H13B 9528   3.348   3.020  16.750 -0.1038  0.3032 -1.0057
   7323SM  H13C 9529   3.493   3.114  16.786  0.0319 -0.8780  1.0616
   7323SM   C12 9530   3.668   2.925  16.703 -0.1818 -0.7324  0.1900
   7323SM  H12A 9531   3.715   2.864  16.627  0.2556  2.0108 -1.9164
   7323SM  H12B 9532   3.693   2.889  16.801 -2.0212 -0.3996  0.8145
   7323SM   C11 9533   3.726   3.070  16.687  0.1399 -0.4129  0.7676
   7323SM  H11A 9534   3.832   3.066  16.718 -0.3898  0.6263  2.9251
   7323SM  H11B 9535   3.679   3.146  16.752 -0.2525  0.2638 -0.2675
   7323SM     P 9536   3.777   3.244  16.492  0.2473 -0.3033 -0.2143
   7323SM   O13 9537   3.674   3.324  16.432  0.0772 -0.3437  0.2233
   7323SM   O14 9538   3.855   3.306  16.600  0.3362  0.0739  0.3101
   7323SM   O11 9539   3.888   3.187  16.390 -0.3230 -0.7294  0.5433
   7323SM   O12 9540   3.714   3.115  16.548  0.1750  0.0220  0.7714
   7323SM   C1S 9541   3.862   3.072  16.316  0.3554  0.2180 -0.0846
   7323SM   H1S 9542   3.768   3.024  16.349  0.5700 -0.5719 -0.5984
   7323SM   H1T 9543   3.937   2.994  16.341  0.9824  0.5338 -0.9455
   7323SM    NF 9544   3.834   2.967  16.104 -0.2018  0.3882 -0.1245
   7323SM   HNF 9545   3.914   2.921  16.066  0.0910  3.1262 -3.2963
   7323SM   C2S 9546   3.862   3.093  16.162  0.4366 -0.7560 -1.2386
   7323SM   H2S 9547   3.784   3.171  16.146  0.5149  0.5218  3.1335
   7323SM   C3S 9548   4.005   3.154  16.115 -0.0790  1.0665  0.0873
   7323SM   H3S 9549   4.081   3.078  16.146 -0.6244 -0.3240 -1.8236
   7323SM    O3 9550   4.034   3.275  16.176 -0.4896 -0.4208  0.3769
   7323SM   HO3 9551   3.955   3.298  16.226  1.7126  2.5656  2.8725
   7323SM   C4S 9552   4.015   3.169  15.971  0.1114  0.1904  1.0953
   7323SM   H4S 9553   4.083   3.102  15.917 -0.8415 -0.5159  0.7526
   7323SM   C5S 9554   3.934   3.249  15.891  0.5646 -0.1567 -0.2468
   7323SM   H5S 9555   3.869   3.328  15.930 -0.8226 -1.1890 -0.3714
   7323SM   C6S 9556   3.938   3.252  15.744 -0.5368  0.4284  1.0332
   7323SM   H6S 9557   3.904   3.356  15.721 -1.2838  0.1867  1.0312
   7323SM   H6T 9558   3.867   3.181  15.697  2.4203 -0.8324 -1.9529
   7323SM   C7S 9559   4.075   3.236  15.679 -0.5135 -0.1275 -0.6377
   7323SM   H7S 9560   4.125   3.141  15.707  1.8186  1.1211 -0.3753
   7323SM   H7T 9561   4.139   3.321  15.710 -2.1388  1.2549 -0.8822
   7323SM   C8S 9562   4.078   3.246  15.519 -0.3197 -0.1157 -0.6713
   7323SM   H8S 9563   4.050   3.348  15.484 -1.8280 -0.2042  0.1629
   7323SM   H8T 9564   4.009   3.166  15.485 -0.1551 -1.1639  1.3253
   7323SM   C9S 9565   4.220   3.205  15.457 -0.4644  0.4363 -0.4600
   7323SM   H9S 9566   4.269   3.128  15.521  1.3177  2.1471  0.3265
   7323SM   H9T 9567   4.286   3.294  15.458 -1.9429  1.5535 -0.4709
   7323SM  C10S 9568   4.216   3.156  15.313  0.6418 -0.5354  0.3928
   7323SM  H10S 9569   4.144   3.218  15.256  1.6902 -0.7303 -1.2128
   7323SM  H10T 9570   4.162   3.059  15.312 -1.7383  0.7238 -1.2258
   7323SM  C11S 9571   4.346   3.149  15.242 -0.6309 -0.0894  0.2180
   7323SM  H11S 9572   4.417   3.069  15.272 -1.1652 -1.5976 -2.2626
   7323SM  H11T 9573   4.412   3.238  15.248  0.7184 -0.8977 -1.7273
   7323SM  C12S 9574   4.331   3.139  15.086  0.2670 -0.1667  0.7638
   7323SM  H12S 9575   4.421   3.117  15.024 -0.6779 -0.0226 -0.7105
   7323SM  H12T 9576   4.288   3.235  15.052  0.1398 -0.5196 -0.0964
   7323SM  C13S 9577   4.229   3.026  15.045 -0.2412  0.1459 -0.2330
   7323SM  H13S 9578   4.125   3.065  15.050 -0.8987 -1.3520 -1.3760
   7323SM  H13T 9579   4.238   2.946  15.121 -0.8486 -0.3310 -0.6543
   7323SM  C14S 9580   4.240   2.961  14.905  0.0011 -0.0054  0.4862
   7323SM  H14S 9581   4.179   2.869  14.893 -3.7913  2.2541  0.9138
   7323SM  H14T 9582   4.345   2.929  14.884 -0.3037 -0.4466 -0.4656
   7323SM  C15S 9583   4.205   3.054  14.793  0.0224  0.3295 -0.0412
   7323SM  H15S 9584   4.259   3.150  14.809 -0.4729  0.6778 -0.4456
   7323SM  H15T 9585   4.096   3.071  14.807  0.0798  0.4037  0.3250
   7323SM  C16S 9586   4.228   2.991  14.658  0.7509 -0.3797 -0.0596
   7323SM  H16S 9587   4.180   2.891  14.656  0.2859 -0.1518 -0.6744
   7323SM  H16T 9588   4.335   2.965  14.644  0.7414  0.0187 -0.9535
   7323SM  C17S 9589   4.177   3.073  14.535 -0.1299 -0.1886  0.0502
   7323SM  H17S 9590   4.203   3.009  14.449  0.4296  0.8951 -0.6112
   7323SM  H17T 9591   4.227   3.171  14.520 -2.3870  0.9885 -0.3384
   7323SM  C18S 9592   4.022   3.091  14.536  0.2584  0.1872 -0.2566
   7323SM  H18S 9593   3.976   2.992  14.556  0.8767  0.0928  0.8097
   7323SM  H18T 9594   3.984   3.130  14.439 -0.8913 -2.1690 -0.8237
   7323SM  H18U 9595   3.988   3.158  14.619  2.0073  1.5265 -0.5584
   7323SM   C1F 9596   3.711   2.922  16.087 -0.1472  0.0602 -0.6834
   7323SM    OF 9597   3.617   2.961  16.163  0.4198 -0.3903  0.4774
   7323SM   C2F 9598   3.687   2.814  15.981 -0.2172 -0.7280 -0.2938
   7323SM   H2F 9599   3.690   2.715  16.031  2.2218  0.0751  1.3085
   7323SM   H2G 9600   3.765   2.824  15.902  0.4048  1.4018  0.5175
   7323SM   C3F 9601   3.547   2.825  15.906 -1.4894 -0.2930  0.2423
   7323SM   H3F 9602   3.531   2.920  15.851 -1.5141 -0.9392 -0.8881
   7323SM   H3G 9603   3.463   2.818  15.978  0.0921 -0.8777  2.1245
   7323SM   C4F 9604   3.540   2.713  15.800  0.1334 -0.4703  0.1217
   7323SM   H4F 9605   3.450   2.740  15.741 -0.2027 -0.2662  0.7240
   7323SM   H4G 9606   3.526   2.608  15.835  2.4431 -1.8778 -2.7172
   7323SM   C5F 9607   3.663   2.711  15.706 -0.4617  0.6011 -0.3063
   7323SM   H5F 9608   3.630   2.631  15.636 -2.3491  1.2495 -0.2264
   7323SM   H5G 9609   3.748   2.676  15.768 -0.2984 -0.4868 -1.1225
   7323SM   C6F 9610   3.677   2.846  15.633 -0.3475 -0.1875 -0.1300
   7323SM   H6F 9611   3.696   2.925  15.709  1.0080 -1.7460  1.2260
   7323SM   H6G 9612   3.580   2.859  15.581  0.5743  1.4844 -1.4932
   7323SM   C7F 9613   3.788   2.840  15.526 -0.3235  0.1283 -0.1190
   7323SM   H7F 9614   3.875   2.800  15.584 -1.9152 -2.0773  0.9017
   7323SM   H7G 9615   3.816   2.937  15.479  0.1000 -1.1185 -2.5734
   7323SM   C8F 9616   3.767   2.740  15.412  0.6195  0.3712 -0.2132
   7323SM   H8F 9617   3.675   2.769  15.357  1.5771  1.5826 -1.2206
   7323SM   H8G 9618   3.742   2.634  15.435  2.2554  0.0414  0.1417
   7323SM   C9F 9619   3.869   2.759  15.298 -0.2483 -0.0663  0.1856
   7323SM   H9F 9620   3.963   2.704  15.320  0.3448  1.6011  2.1422
   7323SM   H9G 9621   3.895   2.867  15.295 -2.7087  0.5621 -1.5308
   7323SM  C10F 9622   3.817   2.731  15.158 -0.1882 -0.4813 -0.2957
   7323SM  H10F 9623   3.714   2.768  15.137 -0.5989 -1.3189  0.2105
   7323SM  H10G 9624   3.805   2.621  15.147  1.4882 -0.6086 -1.1565
   7323SM  C11F 9625   3.915   2.787  15.054 -0.7783 -0.7215  0.6501
   7323SM  H11F 9626   4.015   2.744  15.075  0.6327  1.8832 -0.3494
   7323SM  H11G 9627   3.939   2.895  15.065  0.0037 -0.8941  0.6797
   7323SM  C12F 9628   3.885   2.761  14.908  0.1165  0.6553  0.3166
   7323SM  H12F 9629   3.890   2.650  14.906 -0.8475  0.6012 -2.0961
   7323SM  H12G 9630   3.968   2.804  14.849 -1.1353  1.4624 -0.9224
   7323SM  C13F 9631   3.756   2.818  14.851 -0.0804  0.0269  0.6526
   7323SM  H13F 9632   3.781   2.926  14.852  1.6709 -0.3343 -0.0349
   7323SM  H13G 9633   3.661   2.797  14.906 -0.0239  0.3222  0.8675
   7323SM  C14F 9634   3.731   2.781  14.698  0.2348  0.2637 -0.4058
   7323SM  H14F 9635   3.801   2.699  14.670 -0.0079 -1.1544  2.6671
   7323SM  H14G 9636   3.769   2.873  14.648 -0.2216  1.0760  0.7049
   7323SM  C15F 9637   3.593   2.760  14.648 -0.3899 -0.4077  0.0415
   7323SM  H15F 9638   3.604   2.765  14.537  2.8614  3.4911  0.3343
   7323SM  H15G 9639   3.528   2.845  14.676 -1.2432 -1.1389  0.3365
   7323SM  C16F 9640   3.531   2.622  14.682  0.3240  0.2660  0.2510
   7323SM  H16F 9641   3.489   2.627  14.785 -0.6264  1.8131 -0.1770
   7323SM  H16G 9642   3.620   2.556  14.674  1.0290  1.3995 -2.1189
   7323SM  C17F 9643   3.418   2.574  14.594 -0.0520  0.4451  0.2928
   7323SM  H17F 9644   3.352   2.660  14.571  0.6523  0.8684 -0.1817
   7323SM  H17G 9645   3.351   2.502  14.645 -1.1536 -1.6155 -3.5896
   7323SM  C18F 9646   3.457   2.525  14.452 -0.0444 -0.0579 -0.4481
   7323SM  H18F 9647   3.528   2.439  14.451 -0.3612 -0.3180 -1.1648
   7323SM  H18G 9648   3.511   2.607  14.400  0.5237  0.4547  0.9065
   7323SM  C19F 9649   3.343   2.499  14.351  0.2652 -0.2537  0.1009
   7323SM  H19F 9650   3.291   2.593  14.322  0.9333 -0.0308 -0.3994
   7323SM  H19G 9651   3.260   2.446  14.403  0.2719 -1.4609 -1.0484
   7323SM  C20F 9652   3.387   2.422  14.225  0.1948  0.8068  0.1193
   7323SM  H20F 9653   3.448   2.472  14.147  1.3617 -0.0664  0.4396
   7323SM  H20G 9654   3.288   2.405  14.177 -0.7452 -1.7238  2.6583
   7323SM  C21F 9655   3.453   2.283  14.258  0.8811  0.1587 -0.2903
   7323SM  H21F 9656   3.552   2.307  14.302  1.1013 -0.4267 -0.4658
   7323SM  H21G 9657   3.470   2.229  14.162  3.4147 -2.0056  1.2324
   7323SM  C22F 9658   3.350   2.195  14.333 -0.8522 -0.1280  0.1127
   7323SM  H22F 9659   3.254   2.208  14.280 -0.0735 -1.6157 -1.7429
   7323SM  H22G 9660   3.335   2.231  14.438 -2.5849  0.8433 -0.4343
   7323SM  C23F 9661   3.380   2.051  14.338 -0.6167 -0.1065 -0.4038
   7323SM  H23F 9662   3.443   2.042  14.430 -1.1507  0.6562  0.0514
   7323SM  H23G 9663   3.434   2.021  14.246 -0.3145  2.0976 -1.0096
   7323SM  H23H 9664   3.293   1.985  14.359 -1.6970  0.7257 -2.0760
   7423SM     N 9665   6.986   6.237  16.997 -0.0239  0.0671  0.2352
   7423SM   C15 9666   7.114   6.154  16.987 -0.0541  0.1862 -0.1232
   7423SM  H15A 9667   7.095   6.071  16.920 -0.5281  0.1673  0.0284
   7423SM  H15B 9668   7.138   6.128  17.089  2.9658 -0.4212 -0.9086
   7423SM  H15C 9669   7.189   6.222  16.950 -1.2016  0.2822 -2.4584
   7423SM   C14 9670   6.884   6.146  17.066  0.1390 -0.0723 -0.3652
   7423SM  H14A 9671   6.872   6.050  17.019  1.2392 -0.9128  0.9702
   7423SM  H14B 9672   6.787   6.193  17.068  0.1391 -0.0715 -0.3818
   7423SM  H14C 9673   6.921   6.130  17.167 -0.3829  0.9829  0.0076
   7423SM   C13 9674   7.023   6.353  17.078 -0.5670 -0.5494  0.0832
   7423SM  H13A 9675   7.075   6.326  17.169  0.7373 -0.9700 -0.7611
   7423SM  H13B 9676   6.935   6.394  17.125 -0.6610 -0.0375 -0.5202
   7423SM  H13C 9677   7.081   6.435  17.036 -0.1731  0.8823  3.1345
   7423SM   C12 9678   6.940   6.279  16.857 -0.1933  0.1532 -0.0972
   7423SM  H12A 9679   7.020   6.340  16.817 -0.7814  1.0845  0.1192
   7423SM  H12B 9680   6.852   6.340  16.875 -0.7675 -0.6060 -0.2657
   7423SM   C11 9681   6.902   6.159  16.762 -0.3793  0.2137 -0.1329
   7423SM  H11A 9682   6.857   6.208  16.673  1.4262  1.7889 -0.2513
   7423SM  H11B 9683   6.833   6.089  16.814  3.2029 -1.4025  2.8990
   7423SM     P 9684   7.027   5.971  16.630  0.0018  0.0640 -0.1476
   7423SM   O13 9685   7.025   5.850  16.709 -0.2066 -0.6990 -0.0652
   7423SM   O14 9686   6.923   5.980  16.522  0.2232  0.2691  0.2079
   7423SM   O11 9687   7.170   5.977  16.566 -0.2123 -0.6985  0.4183
   7423SM   O12 9688   7.022   6.094  16.723  0.4684 -0.6278 -0.1426
   7423SM   C1S 9689   7.245   5.862  16.524 -0.9431  0.1068  0.4689
   7423SM   H1S 9690   7.215   5.775  16.585 -1.7726  0.0331 -0.0316
   7423SM   H1T 9691   7.353   5.879  16.545 -1.0124  0.1350  0.8052
   7423SM    NF 9692   7.275   5.694  16.352 -0.5079 -0.3906  0.8151
   7423SM   HNF 9693   7.372   5.683  16.334 -0.0752  0.3416  2.4968
   7423SM   C2S 9694   7.228   5.827  16.371  0.1024 -0.5212 -0.0446
   7423SM   H2S 9695   7.118   5.828  16.353 -0.4342 -0.8473  2.7763
   7423SM   C3S 9696   7.298   5.935  16.281  0.3785 -0.7252 -0.2802
   7423SM   H3S 9697   7.405   5.931  16.311  0.7725  1.9051 -1.0571
   7423SM    O3 9698   7.272   6.069  16.315 -0.0552  0.2182 -0.5870
   7423SM   HO3 9699   7.228   6.055  16.400  0.4007 -4.3767 -0.8193
   7423SM   C4S 9700   7.287   5.900  16.133 -0.5870 -0.3559 -0.4576
   7423SM   H4S 9701   7.182   5.894  16.100 -0.8146  0.4397  0.0903
   7423SM   C5S 9702   7.388   5.883  16.042  0.5451  0.1504 -0.5626
   7423SM   H5S 9703   7.492   5.895  16.077  0.1567 -0.6941  0.9564
   7423SM   C6S 9704   7.358   5.845  15.898 -0.1957 -0.0527  0.4911
   7423SM   H6S 9705   7.377   5.922  15.821  0.0029 -0.6606 -0.0817
   7423SM   H6T 9706   7.254   5.807  15.889  1.0810 -3.8683 -0.2585
   7423SM   C7S 9707   7.440   5.724  15.846 -0.1681 -0.0145  0.2354
   7423SM   H7S 9708   7.411   5.638  15.910 -2.0525  1.0645  0.9270
   7423SM   H7T 9709   7.548   5.747  15.863  0.5274 -0.2585 -3.2464
   7423SM   C8S 9710   7.429   5.700  15.688  0.2699  0.4466 -0.0459
   7423SM   H8S 9711   7.474   5.788  15.637  0.3359 -0.3070 -1.3361
   7423SM   H8T 9712   7.322   5.717  15.663 -0.0272  3.0648  2.4691
   7423SM   C9S 9713   7.490   5.566  15.656 -0.6667  0.0131 -0.1762
   7423SM   H9S 9714   7.440   5.483  15.709  0.2782 -0.6538 -0.3047
   7423SM   H9T 9715   7.597   5.558  15.683 -0.5099 -1.1671 -1.0663
   7423SM  C10S 9716   7.483   5.527  15.508  0.0532  0.4172  0.1222
   7423SM  H10S 9717   7.385   5.478  15.496 -1.0971  1.8564  2.7404
   7423SM  H10T 9718   7.574   5.466  15.487  1.4562  2.0732  1.1068
   7423SM  C11S 9719   7.476   5.635  15.396  0.2339 -0.3503 -0.4789
   7423SM  H11S 9720   7.576   5.683  15.400  0.3676 -0.6659 -0.0085
   7423SM  H11T 9721   7.392   5.705  15.414 -0.3325 -0.6893 -1.7126
   7423SM  C12S 9722   7.443   5.567  15.260  0.1730 -0.2774 -0.3983
   7423SM  H12S 9723   7.337   5.534  15.250  0.1896 -0.4672  0.0274
   7423SM  H12T 9724   7.503   5.475  15.239 -1.6212 -1.6907  0.3518
   7423SM  C13S 9725   7.464   5.664  15.147  0.6623 -0.4799 -0.1073
   7423SM  H13S 9726   7.572   5.687  15.139  0.8442 -0.8177  1.0735
   7423SM  H13T 9727   7.404   5.755  15.165  1.2588 -0.1448  0.2115
   7423SM  C14S 9728   7.427   5.613  15.013  0.2159  0.2396  0.3240
   7423SM  H14S 9729   7.325   5.568  15.017 -0.1225  0.8233 -1.0884
   7423SM  H14T 9730   7.501   5.541  14.971 -0.3510 -1.9738  2.8093
   7423SM  C15S 9731   7.428   5.724  14.906 -0.0113 -0.1842 -0.2275
   7423SM  H15S 9732   7.533   5.752  14.881  0.3108 -1.4941 -0.4515
   7423SM  H15T 9733   7.376   5.812  14.948  3.1460  1.5912  0.3071
   7423SM  C16S 9734   7.361   5.692  14.767 -0.5215 -0.5460 -0.2994
   7423SM  H16S 9735   7.351   5.793  14.722 -2.3173  0.9077  2.9950
   7423SM  H16T 9736   7.259   5.668  14.804  0.1147  0.2855  2.1894
   7423SM  C17S 9737   7.419   5.587  14.681  0.4247  0.2326  0.1675
   7423SM  H17S 9738   7.354   5.584  14.591 -1.8787 -0.6764  1.7568
   7423SM  H17T 9739   7.405   5.491  14.735  3.2804  0.3324  1.2966
   7423SM  C18S 9740   7.579   5.598  14.664 -0.1671 -0.5649  0.9010
   7423SM  H18S 9741   7.624   5.608  14.765  2.5126  0.4554 -0.3012
   7423SM  H18T 9742   7.618   5.684  14.604 -0.0740  0.0105  1.7689
   7423SM  H18U 9743   7.610   5.502  14.618 -0.8654  0.3547 -1.6677
   7423SM   C1F 9744   7.191   5.588  16.365  0.3859  0.1675 -0.7559
   7423SM    OF 9745   7.093   5.595  16.437 -0.1970  0.2660 -0.6979
   7423SM   C2F 9746   7.231   5.459  16.290  0.2607  0.0917  0.0426
   7423SM   H2F 9747   7.274   5.392  16.367  1.4520  1.6452  0.7900
   7423SM   H2G 9748   7.312   5.484  16.219 -1.4679  1.8311 -1.4540
   7423SM   C3F 9749   7.112   5.395  16.225 -0.4783  0.1857  1.1709
   7423SM   H3F 9750   7.028   5.396  16.298 -1.8975  0.4089 -0.3967
   7423SM   H3G 9751   7.138   5.289  16.207 -1.2606  0.0649  0.7364
   7423SM   C4F 9752   7.058   5.469  16.108  0.3378  0.2246  0.2509
   7423SM   H4F 9753   7.058   5.578  16.129  1.9015 -0.1047  2.1833
   7423SM   H4G 9754   6.951   5.441  16.102  0.4904 -0.2938 -0.1706
   7423SM   C5F 9755   7.112   5.441  15.973  0.1448  0.1736 -0.2067
   7423SM   H5F 9756   7.083   5.338  15.944  1.0287 -0.3448  0.6738
   7423SM   H5G 9757   7.223   5.451  15.980  0.0507  0.4528  1.0399
   7423SM   C6F 9758   7.063   5.543  15.872 -0.3996 -0.5924  0.6440
   7423SM   H6F 9759   7.112   5.639  15.898 -3.1984  0.5607  2.0769
   7423SM   H6G 9760   6.952   5.548  15.873 -0.4733 -1.7841  0.5842
   7423SM   C7F 9761   7.101   5.518  15.724  0.2247  0.3040  0.8262
   7423SM   H7F 9762   7.038   5.430  15.699  1.9980 -0.3585 -1.6931
   7423SM   H7G 9763   7.208   5.490  15.712 -0.2773 -1.2697 -0.2382
   7423SM   C8F 9764   7.046   5.631  15.623 -0.8349  0.8250  0.4210
   7423SM   H8F 9765   7.112   5.719  15.639  0.8667 -0.5129  1.0286
   7423SM   H8G 9766   6.943   5.658  15.655 -0.8569 -2.7645  4.1012
   7423SM   C9F 9767   7.065   5.599  15.472  0.5638  0.3737  1.1769
   7423SM   H9F 9768   6.996   5.518  15.442 -0.0247  1.2759  0.0242
   7423SM   H9G 9769   7.173   5.576  15.461  0.5668 -0.3374  2.5066
   7423SM  C10F 9770   7.030   5.727  15.388 -0.3907 -0.1376 -0.2008
   7423SM  H10F 9771   7.079   5.821  15.423 -1.4235  1.0618 -1.8210
   7423SM  H10G 9772   6.926   5.761  15.411 -0.2701 -0.4008  0.7614
   7423SM  C11F 9773   7.060   5.714  15.237 -0.6223  0.0283  0.2434
   7423SM  H11F 9774   6.995   5.629  15.209 -1.5562  1.4940 -2.3826
   7423SM  H11G 9775   7.167   5.687  15.219 -0.3767  1.2557 -0.2647
   7423SM  C12F 9776   7.008   5.831  15.153 -0.4971 -0.2421 -0.4012
   7423SM  H12F 9777   6.913   5.869  15.197 -1.0522 -2.9539  1.0125
   7423SM  H12G 9778   6.981   5.791  15.053 -0.6071  0.9687 -0.8712
   7423SM  C13F 9779   7.105   5.949  15.150  0.3737  0.5413  0.3087
   7423SM  H13F 9780   7.197   5.907  15.106 -0.3914 -1.5734  0.6284
   7423SM  H13G 9781   7.111   5.983  15.256  2.2256 -1.1618  0.8020
   7423SM  C14F 9782   7.051   6.056  15.052  0.0278 -0.2659 -0.1669
   7423SM  H14F 9783   7.099   6.153  15.078  0.1774 -0.1251 -0.9589
   7423SM  H14G 9784   6.952   6.077  15.097  0.7848  1.1265  0.9532
   7423SM  C15F 9785   7.060   6.015  14.906 -0.7526 -0.2667  0.3225
   7423SM  H15F 9786   7.033   5.909  14.891  0.6439 -0.7879  1.3629
   7423SM  H15G 9787   7.164   6.026  14.868 -1.7546  0.1857 -2.5063
   7423SM  C16F 9788   6.987   6.106  14.807  0.9354  0.5367  0.3024
   7423SM  H16F 9789   7.018   6.211  14.824 -0.8306  0.6474  3.7868
   7423SM  H16G 9790   6.884   6.103  14.850  0.5000 -0.6929 -0.7485
   7423SM  C17F 9791   6.985   6.060  14.656  0.6113  0.1451 -0.0231
   7423SM  H17F 9792   6.937   5.960  14.650  2.3051 -0.6434 -1.6261
   7423SM  H17G 9793   7.088   6.043  14.618  0.8605  0.1292  0.6576
   7423SM  C18F 9794   6.889   6.154  14.568  0.2489  0.1943 -0.3925
   7423SM  H18F 9795   6.788   6.158  14.614  1.2717 -2.1888  2.3799
   7423SM  H18G 9796   6.883   6.111  14.465  0.0045  2.2473 -1.2759
   7423SM  C19F 9797   6.933   6.300  14.555  0.3130  0.3825  0.4495
   7423SM  H19F 9798   7.024   6.296  14.492  0.4750  2.5114  0.4850
   7423SM  H19G 9799   6.975   6.348  14.647 -1.2352  3.4936 -0.3187
   7423SM  C20F 9800   6.834   6.397  14.491  0.6548 -0.3573 -0.2540
   7423SM  H20F 9801   6.869   6.499  14.467 -1.7351  0.7155  0.4727
   7423SM  H20G 9802   6.760   6.397  14.574  3.8612  0.6892  2.8146
   7423SM  C21F 9803   6.766   6.351  14.359 -0.4348  0.5242 -0.0463
   7423SM  H21F 9804   6.709   6.445  14.338  0.1958  1.0028  0.3392
   7423SM  H21G 9805   6.682   6.278  14.364  0.5050 -0.5738  0.1268
   7423SM  C22F 9806   6.856   6.301  14.241 -0.4940 -0.0145 -0.2938
   7423SM  H22F 9807   6.793   6.300  14.149  1.3310  0.9727 -1.6267
   7423SM  H22G 9808   6.892   6.197  14.255 -2.5205 -0.9061 -1.3334
   7423SM  C23F 9809   6.975   6.397  14.226 -0.7398 -0.6767  0.0935
   7423SM  H23F 9810   6.946   6.503  14.209  0.1278 -0.4625 -0.0762
   7423SM  H23G 9811   7.032   6.367  14.136  0.0472  1.6120 -0.2438
   7423SM  H23H 9812   7.045   6.404  14.313  0.2377  1.2160 -0.7769
   7523SM     N 9813   7.139   7.370  16.470 -0.3902  0.3272  0.1737
   7523SM   C15 9814   7.236   7.260  16.495 -0.7039  0.7837 -0.3764
   7523SM  H15A 9815   7.331   7.288  16.450 -0.0460 -2.7031 -1.4849
   7523SM  H15B 9816   7.206   7.169  16.445 -1.8118  1.6659 -1.3577
   7523SM  H15C 9817   7.245   7.231  16.598  1.1121  1.8617 -0.1777
   7523SM   C14 9818   7.006   7.327  16.520 -0.8040 -0.0815 -0.0195
   7523SM  H14A 9819   6.944   7.415  16.510  0.9885  1.1630 -0.7300
   7523SM  H14B 9820   6.999   7.293  16.622 -0.4354  0.5614  0.2242
   7523SM  H14C 9821   6.971   7.254  16.448 -2.2759  1.2101 -0.6657
   7523SM   C13 9822   7.183   7.488  16.552  0.0769  0.7449 -0.9694
   7523SM  H13A 9823   7.112   7.569  16.560  0.1646  0.7477 -0.0869
   7523SM  H13B 9824   7.277   7.533  16.521  0.5713  0.2982 -0.1501
   7523SM  H13C 9825   7.195   7.452  16.653  0.1389 -2.7189 -2.0941
   7523SM   C12 9826   7.123   7.416  16.326  0.0304  0.2321 -0.4518
   7523SM  H12A 9827   7.104   7.327  16.268  0.2862 -2.6771  3.4561
   7523SM  H12B 9828   7.218   7.454  16.292  0.1312 -0.7073 -1.2608
   7523SM   C11 9829   7.012   7.515  16.286 -0.5654 -0.0619  0.1814
   7523SM  H11A 9830   7.040   7.536  16.180  0.8727 -0.5956  0.4329
   7523SM  H11B 9831   7.018   7.610  16.343 -0.6307 -0.5246  0.9603
   7523SM     P 9832   6.756   7.539  16.254  0.1997  0.0168  0.1885
   7523SM   O13 9833   6.641   7.450  16.282  0.2832  0.7969 -0.3555
   7523SM   O14 9834   6.745   7.681  16.304 -0.0240  0.3149 -0.1622
   7523SM   O11 9835   6.769   7.543  16.100 -0.1877 -0.0018  0.2648
   7523SM   O12 9836   6.884   7.461  16.290  1.2946 -0.4092 -0.7962
   7523SM   C1S 9837   6.756   7.431  16.011 -0.2187 -0.0984  0.3603
   7523SM   H1S 9838   6.658   7.379  16.020 -0.3725 -0.2240 -1.6670
   7523SM   H1T 9839   6.831   7.352  16.034  1.4024  1.3883  0.3852
   7523SM    NF 9840   6.780   7.364  15.771  0.5805 -0.5622 -0.4054
   7523SM   HNF 9841   6.869   7.345  15.731  1.3848  0.8120  0.6331
   7523SM   C2S 9842   6.777   7.477  15.863 -0.2171  0.5211 -0.4102
   7523SM   H2S 9843   6.678   7.525  15.850 -0.3453  0.3931  0.0588
   7523SM   C3S 9844   6.896   7.573  15.844 -0.3336 -0.4220 -0.6427
   7523SM   H3S 9845   6.994   7.534  15.880 -0.1413  0.4689 -0.1670
   7523SM    O3 9846   6.890   7.684  15.923 -0.4340 -0.8286 -0.4741
   7523SM   HO3 9847   6.831   7.658  15.994 -0.0315 -0.4625  0.0052
   7523SM   C4S 9848   6.912   7.623  15.706 -0.2105  0.1447  0.4172
   7523SM   H4S 9849   6.825   7.681  15.672 -0.0327 -0.6902 -1.6203
   7523SM   C5S 9850   7.017   7.597  15.625 -0.5962  0.5865 -0.0464
   7523SM   H5S 9851   7.089   7.528  15.671 -1.7316  0.9056  2.3981
   7523SM   C6S 9852   7.029   7.632  15.476  0.1325 -0.2408 -1.1603
   7523SM   H6S 9853   7.127   7.685  15.469  0.6001 -1.0342 -0.7463
   7523SM   H6T 9854   6.950   7.706  15.451 -0.5086 -0.7783 -0.7598
   7523SM   C7S 9855   7.017   7.515  15.381 -0.3914  0.2634 -0.2471
   7523SM   H7S 9856   6.924   7.455  15.387  0.2065 -0.6177  0.3873
   7523SM   H7T 9857   7.099   7.444  15.402 -1.7210 -0.6530  2.0882
   7523SM   C8S 9858   7.024   7.578  15.243 -0.3060 -0.2996  0.3859
   7523SM   H8S 9859   7.109   7.649  15.237 -0.1404 -0.2966  2.1458
   7523SM   H8T 9860   6.932   7.640  15.236  0.9368  1.5690 -0.0584
   7523SM   C9S 9861   7.016   7.480  15.123 -0.4433  0.6395  0.6069
   7523SM   H9S 9862   6.919   7.426  15.122 -0.7581  1.2012 -0.2996
   7523SM   H9T 9863   7.091   7.400  15.136  0.6590  1.0798 -2.3032
   7523SM  C10S 9864   7.040   7.559  14.992 -0.1672 -0.6006  0.1028
   7523SM  H10S 9865   7.149   7.580  14.985  0.0176 -2.0070 -3.3831
   7523SM  H10T 9866   6.981   7.651  15.010  1.9882  0.4120  2.6934
   7523SM  C11S 9867   6.996   7.481  14.869 -0.2825 -0.0522  0.0189
   7523SM  H11S 9868   6.905   7.423  14.895 -0.3630 -0.7001 -1.5886
   7523SM  H11T 9869   7.074   7.410  14.835  0.8824  0.8465  0.7224
   7523SM  C12S 9870   6.977   7.578  14.754  0.4602 -0.7727  0.5653
   7523SM  H12S 9871   7.069   7.637  14.740  0.6667 -0.8632  1.4669
   7523SM  H12T 9872   6.888   7.640  14.779  1.9411  0.9321  1.7686
   7523SM  C13S 9873   6.954   7.507  14.621 -0.0059  0.0404 -0.3502
   7523SM  H13S 9874   6.897   7.415  14.644 -0.3252  0.8416  2.3406
   7523SM  H13T 9875   7.044   7.461  14.576 -0.0222  0.3669 -0.7246
   7523SM  C14S 9876   6.866   7.593  14.529 -0.6617  0.7163 -0.4923
   7523SM  H14S 9877   6.913   7.691  14.505  1.2550 -0.1890 -0.6087
   7523SM  H14T 9878   6.774   7.595  14.592 -0.0758  0.9582  0.3621
   7523SM  C15S 9879   6.831   7.528  14.392 -0.7633  0.6322 -0.1208
   7523SM  H15S 9880   6.743   7.580  14.349 -0.9207  1.3796  1.0488
   7523SM  H15T 9881   6.825   7.419  14.414  0.4746  0.5054 -0.3427
   7523SM  C16S 9882   6.940   7.532  14.290  0.1730  0.5273  0.8401
   7523SM  H16S 9883   7.040   7.509  14.334  0.2892  0.9673  0.8119
   7523SM  H16T 9884   6.952   7.635  14.250 -1.7355  0.4211 -0.1256
   7523SM  C17S 9885   6.925   7.436  14.171 -0.2373  0.7902 -0.7884
   7523SM  H17S 9886   6.971   7.482  14.081  0.1975  0.7435 -0.5934
   7523SM  H17T 9887   6.818   7.421  14.144 -0.3348  0.1810 -0.1128
   7523SM  C18S 9888   6.981   7.298  14.211  0.1780 -0.2419 -0.0039
   7523SM  H18S 9889   6.915   7.256  14.290 -1.2129 -0.0150 -1.0135
   7523SM  H18T 9890   7.087   7.303  14.244  0.2834  3.0178 -0.5293
   7523SM  H18U 9891   6.953   7.231  14.128 -1.0524 -0.6827  0.7436
   7523SM   C1F 9892   6.675   7.286  15.755 -0.1146  0.1751 -0.0150
   7523SM    OF 9893   6.565   7.313  15.804  0.2525  0.5450 -0.0983
   7523SM   C2F 9894   6.697   7.158  15.676 -0.8077  0.0631  0.1077
   7523SM   H2F 9895   6.758   7.078  15.722 -0.8140 -1.7045 -2.6830
   7523SM   H2G 9896   6.774   7.189  15.601  0.5307 -1.4273  0.8102
   7523SM   C3F 9897   6.573   7.096  15.599  0.1329 -0.1048 -0.0572
   7523SM   H3F 9898   6.523   7.171  15.535 -1.6840 -1.8796 -0.8250
   7523SM   H3G 9899   6.507   7.066  15.684 -0.6757  0.5512 -0.4323
   7523SM   C4F 9900   6.602   6.976  15.514 -0.1956 -0.6139 -0.0456
   7523SM   H4F 9901   6.649   6.907  15.587  1.4863 -0.5227 -0.9862
   7523SM   H4G 9902   6.689   7.007  15.453  1.4719 -0.7717  2.1263
   7523SM   C5F 9903   6.478   6.913  15.449  0.5955  0.4605  0.1419
   7523SM   H5F 9904   6.458   6.988  15.370 -0.8241 -0.2000 -0.1690
   7523SM   H5G 9905   6.396   6.905  15.524 -1.8222  0.8279 -2.2868
   7523SM   C6F 9906   6.510   6.782  15.376 -0.0242 -0.6724 -0.6056
   7523SM   H6F 9907   6.555   6.706  15.443  1.7585  0.0027 -0.9736
   7523SM   H6G 9908   6.596   6.805  15.309 -0.1165  1.0909 -0.1738
   7523SM   C7F 9909   6.391   6.718  15.310  0.0158 -0.0199  0.1617
   7523SM   H7F 9910   6.305   6.747  15.374  1.9186 -2.6466  4.3596
   7523SM   H7G 9911   6.396   6.607  15.320 -1.1621 -0.2887 -1.7159
   7523SM   C8F 9912   6.366   6.758  15.166 -0.1653  0.0698  0.3013
   7523SM   H8F 9913   6.465   6.754  15.114 -0.7930  0.7844 -1.0038
   7523SM   H8G 9914   6.329   6.862  15.157 -0.4367 -0.1688 -1.9038
   7523SM   C9F 9915   6.258   6.669  15.094  0.2990 -0.2035 -0.7393
   7523SM   H9F 9916   6.161   6.665  15.147 -0.0670 -0.8830 -1.4364
   7523SM   H9G 9917   6.301   6.566  15.100  0.5576 -0.0580  0.1055
   7523SM  C10F 9918   6.245   6.707  14.942 -0.4475 -0.0019 -0.2572
   7523SM  H10F 9919   6.332   6.695  14.874 -0.7659 -0.3122 -0.6196
   7523SM  H10G 9920   6.205   6.810  14.935 -0.9462  0.0313  2.2419
   7523SM  C11F 9921   6.139   6.614  14.876 -0.6055 -0.2898 -0.7605
   7523SM  H11F 9922   6.038   6.627  14.921  0.2357 -0.6658  1.3342
   7523SM  H11G 9923   6.176   6.513  14.901  0.6576  0.1275 -0.8629
   7523SM  C12F 9924   6.127   6.641  14.726  0.1047 -0.0378  0.8944
   7523SM  H12F 9925   6.206   6.586  14.671  0.1164 -1.0108  1.8433
   7523SM  H12G 9926   6.145   6.749  14.704  1.5088 -0.5736 -0.8340
   7523SM  C13F 9927   5.988   6.604  14.663 -0.5333 -0.0981  1.0525
   7523SM  H13F 9928   5.980   6.652  14.563  2.4222 -0.2032  0.6644
   7523SM  H13G 9929   5.911   6.649  14.729 -1.9477  0.2089 -0.7323
   7523SM  C14F 9930   5.963   6.449  14.658 -0.1915  0.4430  1.6005
   7523SM  H14F 9931   6.055   6.398  14.622 -1.2440 -0.6118  0.2898
   7523SM  H14G 9932   5.898   6.439  14.569  0.7087  1.0718  0.8544
   7523SM  C15F 9933   5.892   6.381  14.775 -0.4209 -0.3624  0.2140
   7523SM  H15F 9934   5.960   6.360  14.860 -0.8538  0.9748  0.9130
   7523SM  H15G 9935   5.857   6.278  14.748  3.2147 -1.3833 -1.2824
   7523SM  C16F 9936   5.774   6.448  14.827  0.4600 -0.0935 -0.2878
   7523SM  H16F 9937   5.794   6.540  14.886  1.8526 -0.5536 -0.0218
   7523SM  H16G 9938   5.716   6.373  14.885  1.0301 -2.7565 -2.9133
   7523SM  C17F 9939   5.674   6.480  14.714 -0.2296  0.1183  0.0826
   7523SM  H17F 9940   5.673   6.397  14.640  1.9142 -0.3353  0.4841
   7523SM  H17G 9941   5.705   6.573  14.663  0.2326  0.0377  0.2115
   7523SM  C18F 9942   5.528   6.482  14.757 -0.6202 -0.0011 -0.2499
   7523SM  H18F 9943   5.513   6.564  14.830 -0.2997 -0.3443  0.2075
   7523SM  H18G 9944   5.501   6.384  14.802 -0.2864  0.1814  0.3545
   7523SM  C19F 9945   5.435   6.502  14.639 -0.1569 -0.0192 -0.3571
   7523SM  H19F 9946   5.487   6.559  14.559  0.2011  1.1634  0.6981
   7523SM  H19G 9947   5.356   6.571  14.676  0.8132  1.1898 -0.4847
   7523SM  C20F 9948   5.375   6.369  14.588 -0.3072 -0.2554 -0.2682
   7523SM  H20F 9949   5.322   6.322  14.673 -2.2033 -1.1406 -1.8583
   7523SM  H20G 9950   5.451   6.296  14.553  0.3259  0.6159 -0.7474
   7523SM  C21F 9951   5.273   6.396  14.469  0.1867  0.2074 -0.4530
   7523SM  H21F 9952   5.326   6.442  14.383  1.2079 -1.4047 -0.7373
   7523SM  H21G 9953   5.187   6.457  14.504 -3.2244 -1.8888 -4.3050
   7523SM  C22F 9954   5.216   6.275  14.401  0.3857 -0.0992 -0.2060
   7523SM  H22F 9955   5.153   6.308  14.315 -0.7477  3.6410  1.8178
   7523SM  H22G 9956   5.151   6.224  14.475  0.5708 -1.9102 -1.2489
   7523SM  C23F 9957   5.313   6.171  14.349 -0.1167 -0.4434  0.2879
   7523SM  H23F 9958   5.377   6.214  14.269  1.2698 -0.3169  1.4162
   7523SM  H23G 9959   5.255   6.087  14.305  1.9442 -1.6305 -0.2975
   7523SM  H23H 9960   5.388   6.125  14.417 -0.7214 -0.1392  1.1702
   7623SM     N 9961   0.393   7.490  16.639  0.5449 -0.3434  0.2560
   7623SM   C15 9962   0.306   7.613  16.634  0.0149  0.0731  0.7879
   7623SM  H15A 9963   0.379   7.689  16.658  0.3283  0.7558 -1.9901
   7623SM  H15B 9964   0.230   7.611  16.710 -0.0349 -0.4744  0.7295
   7623SM  H15C 9965   0.264   7.624  16.535  1.8316  3.2385  0.2522
   7623SM   C14 9966   0.451   7.497  16.773 -0.2080 -0.6145  0.2628
   7623SM  H14A 9967   0.395   7.543  16.853 -1.3154 -1.4076 -0.0322
   7623SM  H14B 9968   0.531   7.568  16.760 -0.7734  0.0951  0.6402
   7623SM  H14C 9969   0.500   7.405  16.804 -1.8818 -1.6371  0.0334
   7623SM   C13 9970   0.302   7.373  16.630  0.4588  0.1247 -0.1220
   7623SM  H13A 9971   0.362   7.285  16.644  0.0494 -0.4343 -1.6858
   7623SM  H13B 9972   0.261   7.381  16.531  1.6880  0.3568 -0.6186
   7623SM  H13C 9973   0.230   7.370  16.712 -1.6133  2.3735 -1.7253
   7623SM   C12 9974   0.492   7.487  16.521  0.0497 -0.3686 -0.5966
   7623SM  H12A 9975   0.539   7.390  16.529 -1.9004 -1.2705  0.4288
   7623SM  H12B 9976   0.571   7.557  16.541 -0.7873  1.1737 -2.3455
   7623SM   C11 9977   0.428   7.505  16.381 -0.3145 -0.6291 -0.7960
   7623SM  H11A 9978   0.508   7.495  16.304 -0.2555  1.2373 -1.0239
   7623SM  H11B 9979   0.405   7.613  16.376  0.3367 -0.4304  0.1587
   7623SM     P 9980   0.192   7.483  16.284  0.0161 -0.2814 -0.0295
   7623SM   O13 9981   0.092   7.371  16.285  0.1502 -0.6235  0.0499
   7623SM   O14 9982   0.152   7.614  16.340 -0.1170 -0.1241  0.4789
   7623SM   O11 9983   0.231   7.517  16.140 -0.2291  0.7941 -0.3705
   7623SM   O12 9984   0.325   7.426  16.350 -0.0561  0.1703  0.0032
   7623SM   C1S 9985   0.139   7.490  16.029  0.6339  0.7105  0.1934
   7623SM   H1S 9986   0.044   7.543  16.052 -0.1252 -0.6421  0.2604
   7623SM   H1T 9987   0.120   7.382  16.013 -0.0906  0.7816  0.5620
   7623SM    NF 9988   0.084   7.537  15.794  0.5348 -0.0184 -0.2457
   7623SM   HNF 9989   0.074   7.451  15.745 -1.1637 -0.5492  0.9283
   7623SM   C2S 9990   0.188   7.550  15.894 -0.1564 -0.5862 -0.9092
   7623SM   H2S 9991   0.205   7.659  15.908  0.8255 -0.6459 -1.5701
   7623SM   C3S 9992   0.320   7.502  15.854 -0.6533  0.5782  0.2244
   7623SM   H3S 9993   0.317   7.395  15.824 -1.0683 -0.0895  2.4196
   7623SM    O3 9994   0.417   7.503  15.957 -0.1071 -0.9166 -0.0891
   7623SM   HO3 9995   0.358   7.514  16.031  0.8298  0.9376  0.4590
   7623SM   C4S 9996   0.364   7.568  15.724 -0.3013 -0.1341 -0.4889
   7623SM   H4S 9997   0.362   7.502  15.636  1.4040 -0.5728 -0.2422
   7623SM   C5S 9998   0.409   7.695  15.711  0.1360  0.5817 -0.4630
   7623SM   H5S 9999   0.402   7.768  15.794 -0.2680 -1.2542  1.2092
   7623SM   C6S10000   0.437   7.756  15.577  0.6699 -0.1706 -0.0967
   7623SM   H6S10001   0.359   7.835  15.569  0.3633 -0.3155  1.2243
   7623SM   H6T10002   0.410   7.685  15.496 -1.0641  1.4556 -1.0434
   7623SM   C7S10003   0.572   7.817  15.576  0.3984  0.9772 -0.3767
   7623SM   H7S10004   0.647   7.749  15.622 -0.1621  1.7155  1.7542
   7623SM   H7T10005   0.575   7.905  15.644 -1.0655 -0.0408  1.0857
   7623SM   C8S10006   0.611   7.863  15.439  0.3038 -0.1328  0.3453
   7623SM   H8S10007   0.704   7.924  15.437  2.1868 -2.7463  1.9204
   7623SM   H8T10008   0.524   7.912  15.391  1.1932  0.0409 -1.1565
   7623SM   C9S10009   0.661   7.751  15.343 -0.0761 -1.4970  0.4604
   7623SM   H9S10010   0.571   7.696  15.309 -0.1914 -0.9178 -0.2044
   7623SM   H9T10011   0.738   7.689  15.394  1.0064 -0.8369 -0.3127
   7623SM  C10S10012   0.712   7.819  15.214  0.7345 -0.0048  0.3951
   7623SM  H10S10013   0.753   7.745  15.142  0.8022  1.3794 -1.0501
   7623SM  H10T10014   0.802   7.876  15.246  0.4923  1.6740 -1.7076
   7623SM  C11S10015   0.628   7.924  15.131 -0.1241  0.2899  0.1534
   7623SM  H11S10016   0.579   8.005  15.188  1.2017  1.0982  0.2034
   7623SM  H11T10017   0.539   7.872  15.091 -1.2338  1.8560  0.5152
   7623SM  C12S10018   0.700   7.995  15.010  0.2018 -0.0230 -0.5953
   7623SM  H12S10019   0.737   7.914  14.944  0.6596  0.0027 -0.3721
   7623SM  H12T10020   0.786   8.054  15.050 -1.4840  0.8159  2.0168
   7623SM  C13S10021   0.608   8.100  14.942 -0.2263  0.0602 -0.8317
   7623SM  H13S10022   0.565   8.161  15.024 -0.4675 -0.6949 -0.3878
   7623SM  H13T10023   0.517   8.062  14.891 -1.0074  1.5467 -0.6143
   7623SM  C14S10024   0.678   8.192  14.839 -0.8005 -0.5066  0.0174
   7623SM  H14S10025   0.594   8.258  14.809  1.7157  2.7949 -0.3797
   7623SM  H14T10026   0.716   8.123  14.761  1.3209 -1.5932  1.9035
   7623SM  C15S10027   0.790   8.267  14.903  0.0023  0.0181 -0.1568
   7623SM  H15S10028   0.881   8.205  14.917 -1.4513 -2.7957 -2.2406
   7623SM  H15T10029   0.755   8.303  15.002  0.8824 -0.3876  0.3110
   7623SM  C16S10030   0.834   8.391  14.824  0.5931  0.6483 -0.2301
   7623SM  H16S10031   0.900   8.452  14.889  2.2994 -1.8077  0.5188
   7623SM  H16T10032   0.744   8.450  14.799  1.3508  1.3478 -1.3644
   7623SM  C17S10033   0.912   8.357  14.706  0.4327  0.2290 -0.5161
   7623SM  H17S10034   0.864   8.273  14.652  1.3406 -0.1133 -0.8099
   7623SM  H17T10035   1.014   8.316  14.722  0.0396 -0.8471 -0.7212
   7623SM  C18S10036   0.931   8.478  14.607 -0.2140  0.0387 -0.1491
   7623SM  H18S10037   0.964   8.568  14.663  0.5844 -0.9500  1.0251
   7623SM  H18T10038   0.837   8.497  14.551 -0.1810 -0.4714 -0.3799
   7623SM  H18U10039   1.012   8.447  14.538 -0.0287  0.8007 -0.2755
   7623SM   C1F10040  -0.026   7.607  15.795  0.8695 -0.6453  0.0997
   7623SM    OF10041  -0.043   7.695  15.878 -0.0844 -0.2735 -0.7081
   7623SM   C2F10042  -0.136   7.579  15.698 -0.2445  0.1680 -0.2140
   7623SM   H2F10043  -0.229   7.628  15.733  1.0026  1.2188  1.8546
   7623SM   H2G10044  -0.153   7.470  15.693  0.7822 -0.1393  1.8554
   7623SM   C3F10045  -0.108   7.647  15.561 -0.1040  0.3381  0.2174
   7623SM   H3F10046   0.002   7.638  15.546 -0.0199  0.6472  0.6317
   7623SM   H3G10047  -0.133   7.755  15.562 -1.5747  0.0200  0.0061
   7623SM   C4F10048  -0.184   7.583  15.449 -0.2101  0.3812 -0.1448
   7623SM   H4F10049  -0.292   7.602  15.464 -0.1381 -0.3012  1.3877
   7623SM   H4G10050  -0.171   7.473  15.463 -0.1340  0.2980 -0.8291
   7623SM   C5F10051  -0.138   7.632  15.312 -0.0797  0.2837  0.7703
   7623SM   H5F10052  -0.034   7.591  15.304 -0.7390 -1.4478  0.6752
   7623SM   H5G10053  -0.134   7.743  15.314  0.9954  0.2593  0.8366
   7623SM   C6F10054  -0.218   7.582  15.193  0.7230 -0.2032 -0.2590
   7623SM   H6F10055  -0.309   7.643  15.171  0.7816 -0.1709 -0.4101
   7623SM   H6G10056  -0.270   7.488  15.221 -0.3095  0.0581 -1.2251
   7623SM   C7F10057  -0.127   7.585  15.066 -0.3136 -0.0223 -0.4386
   7623SM   H7F10058  -0.043   7.517  15.090 -0.3103 -0.0565 -0.5448
   7623SM   H7G10059  -0.101   7.693  15.065  1.6013 -0.4510  0.1854
   7623SM   C8F10060  -0.193   7.542  14.934  0.0886 -0.4077 -0.7823
   7623SM   H8F10061  -0.290   7.595  14.919  0.9939  1.5327 -0.1131
   7623SM   H8G10062  -0.211   7.432  14.929 -1.2257 -0.1898 -1.3656
   7623SM   C9F10063  -0.106   7.584  14.816  0.2927  0.3136  0.2781
   7623SM   H9F10064  -0.004   7.544  14.835  0.3133  0.8080  1.2451
   7623SM   H9G10065  -0.096   7.694  14.805  0.6477  0.3894  1.2495
   7623SM  C10F10066  -0.168   7.518  14.686 -0.4148 -0.9455  0.0037
   7623SM  H10F10067  -0.274   7.544  14.665  0.0398  0.1074 -1.1323
   7623SM  H10G10068  -0.175   7.411  14.712 -1.5919 -1.3184 -1.6463
   7623SM  C11F10069  -0.088   7.563  14.564 -0.4531  1.4635  0.0969
   7623SM  H11F10070   0.020   7.536  14.563 -1.2209 -2.5029  2.5619
   7623SM  H11G10071  -0.106   7.673  14.572 -1.9735  1.2492 -0.1739
   7623SM  C12F10072  -0.147   7.531  14.434 -0.0992  0.3477 -0.4994
   7623SM  H12F10073  -0.258   7.539  14.426 -0.4708 -3.0937 -0.3731
   7623SM  H12G10074  -0.139   7.422  14.412  0.4238 -0.3663  2.6941
   7623SM  C13F10075  -0.084   7.610  14.320  0.2737 -0.5966  0.4397
   7623SM  H13F10076   0.025   7.611  14.342  0.5890 -1.8997 -0.9064
   7623SM  H13G10077  -0.134   7.709  14.330 -1.5994 -1.0002 -3.3148
   7623SM  C14F10078  -0.118   7.536  14.185  0.8492 -0.3257  0.4193
   7623SM  H14F10079  -0.228   7.548  14.180  0.7809  1.3621  3.5465
   7623SM  H14G10080  -0.078   7.433  14.191  0.0635 -0.5719  1.7142
   7623SM  C15F10081  -0.058   7.605  14.062  0.5672 -0.1367 -0.5095
   7623SM  H15F10082   0.042   7.636  14.098  0.4388 -1.9134  1.6249
   7623SM  H15G10083  -0.099   7.704  14.033  0.5208 -0.6446 -2.2434
   7623SM  C16F10084  -0.060   7.503  13.948 -1.0867 -0.8718  0.4662
   7623SM  H16F10085  -0.166   7.474  13.936 -0.8717 -1.2600 -0.6183
   7623SM  H16G10086  -0.016   7.408  13.986  1.0957 -0.3981 -0.6770
   7623SM  C17F10087   0.015   7.536  13.825  0.5521 -0.3368 -0.1233
   7623SM  H17F10088   0.119   7.560  13.854  0.3712 -0.1752  0.4123
   7623SM  H17G10089  -0.017   7.630  13.774  2.3706  1.6463  2.1557
   7623SM  C18F10090   0.029   7.413  13.738  0.1905 -0.3467  0.6681
   7623SM  H18F10091   0.062   7.336  13.810  0.3786 -0.7679  0.1359
   7623SM  H18G10092   0.111   7.407  13.663 -0.4301  1.0121 -0.1761
   7623SM  C19F10093  -0.102   7.367  13.673 -0.1878  0.5523 -0.8831
   7623SM  H19F10094  -0.133   7.437  13.593 -1.3343 -0.2567 -1.1830
   7623SM  H19G10095  -0.184   7.367  13.747  0.9809 -3.2216  0.6698
   7623SM  C20F10096  -0.075   7.228  13.616  0.6168  0.3201 -0.1465
   7623SM  H20F10097  -0.025   7.162  13.690 -1.8471 -1.4166  0.1074
   7623SM  H20G10098  -0.000   7.234  13.534 -1.6204 -0.7710 -2.4006
   7623SM  C21F10099  -0.204   7.170  13.565  0.5980  0.4864  0.1690
   7623SM  H21F10100  -0.242   7.249  13.496  1.4355  1.2467  0.5585
   7623SM  H21G10101  -0.285   7.165  13.641  1.3813 -1.7151  0.9518
   7623SM  C22F10102  -0.205   7.037  13.486  0.3617 -0.7377  0.2538
   7623SM  H22F10103  -0.149   6.955  13.536  1.5366  0.6198  1.2216
   7623SM  H22G10104  -0.141   7.056  13.396 -0.3323  4.3196  0.5519
   7623SM  C23F10105  -0.343   6.994  13.439  0.3705  0.3281  0.3108
   7623SM  H23F10106  -0.343   6.915  13.361 -3.9552  0.5344 -0.1534
   7623SM  H23G10107  -0.404   7.078  13.397 -0.1400  0.3897  1.1401
   7623SM  H23H10108  -0.392   6.941  13.524  1.8668 -1.6702 -0.0062
   7723SM     N10109   7.472   3.921  16.471  0.4645  0.3301  0.1798
   7723SM   C1510110   7.463   4.004  16.593 -0.6589  0.0158 -0.1554
   7723SM  H15A10111   7.500   3.958  16.683  0.7227 -0.0827 -0.7386
   7723SM  H15B10112   7.361   4.038  16.603 -1.7528 -1.5964 -3.9425
   7723SM  H15C10113   7.516   4.097  16.575  0.9324 -0.9556 -0.7359
   7723SM   C1410114   7.363   3.815  16.471  0.0251 -0.6193  0.6553
   7723SM  H14A10115   7.386   3.732  16.536  2.2165 -1.6783 -1.3378
   7723SM  H14B10116   7.365   3.769  16.374  0.6875 -2.5753  1.5604
   7723SM  H14C10117   7.270   3.866  16.493  0.1368 -0.2552  0.3000
   7723SM   C1310118   7.457   4.007  16.347  0.1254 -0.2708 -0.1337
   7723SM  H13A10119   7.359   4.050  16.359 -0.8264 -2.0388 -1.2682
   7723SM  H13B10120   7.449   3.946  16.258 -0.3228  2.1404 -1.8438
   7723SM  H13C10121   7.525   4.091  16.344 -1.0036  0.6930  0.5079
   7723SM   C1210122   7.597   3.848  16.460 -0.9713 -0.1553  0.2214
   7723SM  H12A10123   7.682   3.914  16.449  0.6897 -2.3835 -1.5163
   7723SM  H12B10124   7.589   3.785  16.372  0.4572  0.5540 -0.4464
   7723SM   C1110125   7.652   3.759  16.570  0.5783 -0.2672  0.0095
   7723SM  H11A10126   7.678   3.828  16.654  1.6732 -1.9709  1.1433
   7723SM  H11B10127   7.748   3.712  16.540  0.9160 -1.3990  2.5818
   7723SM     P10128   7.584   3.504  16.584 -0.4749 -0.0292 -0.2675
   7723SM   O1310129   7.687   3.451  16.679 -0.0846 -0.4647 -0.1887
   7723SM   O1410130   7.454   3.446  16.585  0.1374  0.2007  0.1461
   7723SM   O1110131   7.644   3.504  16.438  0.3102 -0.9588  0.2766
   7723SM   O1210132   7.560   3.660  16.614  0.0322 -0.2451 -0.3987
   7723SM   C1S10133   7.545   3.518  16.334 -0.2306  0.4438 -0.5088
   7723SM   H1S10134   7.473   3.601  16.348  0.3736  0.9204 -0.1930
   7723SM   H1T10135   7.504   3.416  16.318  0.4163  0.2377 -0.8557
   7723SM    NF10136   7.530   3.566  16.091 -0.1605  0.4767 -0.0787
   7723SM   HNF10137   7.508   3.488  16.032  1.6503  1.2122 -1.8248
   7723SM   C2S10138   7.624   3.555  16.202  0.0156 -0.0463 -0.7682
   7723SM   H2S10139   7.658   3.654  16.239  2.2849 -1.7117  2.0345
   7723SM   C3S10140   7.745   3.460  16.177  0.2195 -0.1250  0.3045
   7723SM   H3S10141   7.708   3.356  16.160 -1.2043  0.4898 -0.5192
   7723SM    O310142   7.841   3.449  16.282 -0.6652 -0.8511  0.1918
   7723SM   HO310143   7.786   3.470  16.357 -1.6873 -0.9510 -0.5203
   7723SM   C4S10144   7.828   3.513  16.069  0.1409  0.0019  0.0885
   7723SM   H4S10145   7.866   3.616  16.083  3.5144 -0.8018 -1.8356
   7723SM   C5S10146   7.847   3.449  15.954 -0.1277 -0.5232  0.2428
   7723SM   H5S10147   7.803   3.348  15.943 -0.8964  0.0160 -2.4754
   7723SM   C6S10148   7.920   3.496  15.827  0.0829 -0.3062 -0.6499
   7723SM   H6S10149   7.982   3.414  15.786  0.2993 -0.6294  0.2839
   7723SM   H6T10150   7.985   3.585  15.845  0.3999 -0.5624 -0.5225
   7723SM   C7S10151   7.825   3.538  15.714  0.1287 -0.3670  0.2528
   7723SM   H7S10152   7.890   3.583  15.636 -0.9604  2.4399  0.8285
   7723SM   H7T10153   7.758   3.620  15.749  4.2790  2.9911  1.1359
   7723SM   C8S10154   7.749   3.422  15.642  0.1128 -0.3377 -0.3507
   7723SM   H8S10155   7.664   3.395  15.708 -0.8970  0.0754 -1.4409
   7723SM   H8T10156   7.817   3.334  15.633 -0.3430 -0.6366 -0.9531
   7723SM   C9S10157   7.689   3.456  15.506 -0.0706 -0.3960 -0.3619
   7723SM   H9S10158   7.770   3.513  15.455  1.1688 -0.4740  1.4221
   7723SM   H9T10159   7.601   3.522  15.524  0.7957  0.2497  1.8789
   7723SM  C10S10160   7.659   3.340  15.422 -0.1578  0.7366  0.4028
   7723SM  H10S10161   7.586   3.263  15.454 -0.3060 -0.0537 -1.6775
   7723SM  H10T10162   7.760   3.296  15.416  0.3970  1.8867  0.9218
   7723SM  C11S10163   7.634   3.389  15.276  0.2566 -0.7454 -0.3943
   7723SM  H11S10164   7.701   3.473  15.249 -0.6539 -0.3069 -1.3025
   7723SM  H11T10165   7.530   3.425  15.266  1.1516  1.5678 -2.2228
   7723SM  C12S10166   7.662   3.279  15.173 -0.1708 -0.1251 -0.4295
   7723SM  H12S10167   7.571   3.219  15.152 -0.8237  0.5082  0.5187
   7723SM  H12T10168   7.747   3.214  15.202 -0.4170 -0.5997 -0.7627
   7723SM  C13S10169   7.710   3.334  15.035  0.2800  0.1349 -0.1335
   7723SM  H13S10170   7.800   3.398  15.044  0.6889 -0.3303 -0.8188
   7723SM  H13T10171   7.619   3.382  14.993 -0.2677 -0.5625  0.2089
   7723SM  C14S10172   7.746   3.219  14.940 -1.1259 -0.3809 -0.9581
   7723SM  H14S10173   7.655   3.154  14.940 -1.7570  0.4459  0.4135
   7723SM  H14T10174   7.832   3.164  14.984 -1.0462  0.3894 -0.1352
   7723SM  C15S10175   7.780   3.280  14.805  0.4978  0.4755  1.0957
   7723SM  H15S10176   7.709   3.364  14.789  0.8805  0.4861 -0.8757
   7723SM  H15T10177   7.755   3.206  14.726 -2.0475  1.1464  1.1864
   7723SM  C16S10178   7.926   3.337  14.801  0.5253  0.0470  0.4128
   7723SM  H16S10179   8.008   3.263  14.795  0.7886  0.1150  2.4152
   7723SM  H16T10180   7.940   3.389  14.898 -0.5211  3.2613 -0.9992
   7723SM  C17S10181   7.935   3.451  14.703  0.3432 -0.0610 -0.9233
   7723SM  H17S10182   8.031   3.503  14.725 -0.0350  0.1163  0.4098
   7723SM  H17T10183   7.849   3.521  14.716 -0.7969 -1.2247 -1.9456
   7723SM  C18S10184   7.934   3.394  14.557  0.1003  0.2815 -0.1921
   7723SM  H18S10185   8.004   3.308  14.553  0.3519  0.3910  1.2788
   7723SM  H18T10186   7.965   3.469  14.481 -0.0926 -0.5421 -1.0973
   7723SM  H18U10187   7.831   3.362  14.532 -0.3175  1.0058  0.5417
   7723SM   C1F10188   7.452   3.671  16.074 -0.7144  0.1006 -0.3591
   7723SM    OF10189   7.457   3.761  16.160 -0.8183  0.3305  0.2441
   7723SM   C2F10190   7.354   3.659  15.961 -0.3425 -0.0207  0.0223
   7723SM   H2F10191   7.294   3.753  15.963  2.1463  1.7033 -0.7378
   7723SM   H2G10192   7.296   3.567  15.983 -1.5147  1.2888  3.0621
   7723SM   C3F10193   7.413   3.641  15.819  0.3120 -0.7037  0.1403
   7723SM   H3F10194   7.334   3.596  15.755  1.5441 -2.3071 -0.3134
   7723SM   H3G10195   7.486   3.557  15.818 -0.5098 -1.4386  0.2315
   7723SM   C4F10196   7.451   3.775  15.755  0.2904  0.3148  0.0927
   7723SM   H4F10197   7.529   3.820  15.819  0.8281  0.0843 -0.3950
   7723SM   H4G10198   7.362   3.842  15.760  0.1607  0.4898 -2.8364
   7723SM   C5F10199   7.502   3.770  15.602  0.3789 -0.8851 -0.4319
   7723SM   H5F10200   7.594   3.709  15.592  0.1065 -1.2656 -0.6566
   7723SM   H5G10201   7.522   3.876  15.576  0.4188 -1.1557 -1.5330
   7723SM   C6F10202   7.396   3.727  15.508  0.0200 -0.6381  1.0144
   7723SM   H6F10203   7.305   3.788  15.523 -1.0800 -0.9441 -3.0789
   7723SM   H6G10204   7.373   3.619  15.513  1.6511 -1.0370  0.5993
   7723SM   C7F10205   7.434   3.742  15.359 -0.1918  0.0443 -0.5358
   7723SM   H7F10206   7.527   3.683  15.344 -0.3866 -1.0461  1.9633
   7723SM   H7G10207   7.462   3.846  15.333 -0.5523 -0.1591 -1.7630
   7723SM   C8F10208   7.322   3.688  15.264  0.8038 -0.0069  0.3835
   7723SM   H8F10209   7.222   3.717  15.302  0.5301 -2.6715  1.9355
   7723SM   H8G10210   7.313   3.578  15.266 -0.8564  0.0622 -0.6792
   7723SM   C9F10211   7.326   3.723  15.112 -0.0024  0.0720  0.0453
   7723SM   H9F10212   7.301   3.831  15.121  1.5174  0.3020  2.2731
   7723SM   H9G10213   7.251   3.657  15.062  1.4711 -2.3325  0.8269
   7723SM  C10F10214   7.464   3.710  15.049  0.2313 -0.1949 -0.1765
   7723SM  H10F10215   7.505   3.607  15.053 -0.9343 -0.7516 -1.8940
   7723SM  H10G10216   7.531   3.771  15.114 -0.1852 -0.2167  0.2777
   7723SM  C11F10217   7.452   3.757  14.905 -0.2820 -0.0344 -0.9488
   7723SM  H11F10218   7.403   3.857  14.903  0.8989  0.5659 -1.0401
   7723SM  H11G10219   7.384   3.688  14.850 -1.6055 -0.3320  0.9875
   7723SM  C12F10220   7.576   3.750  14.815  0.2768 -0.8027  0.1502
   7723SM  H12F10221   7.604   3.645  14.795  1.3565 -0.5780  0.4196
   7723SM  H12G10222   7.661   3.805  14.862 -1.2783  0.5779  1.4934
   7723SM  C13F10223   7.545   3.790  14.666 -1.1540  0.7944  0.3420
   7723SM  H13F10224   7.524   3.899  14.665 -0.1887  1.0119  1.3703
   7723SM  H13G10225   7.457   3.733  14.629  0.7695 -1.8469 -0.5229
   7723SM  C14F10226   7.668   3.756  14.579  0.2487  0.1136 -0.4497
   7723SM  H14F10227   7.669   3.645  14.566  0.5999  0.1444 -0.6924
   7723SM  H14G10228   7.769   3.780  14.618  0.3965  0.0249 -0.7742
   7723SM  C15F10229   7.660   3.807  14.437  0.0244  0.3294  0.5001
   7723SM  H15F10230   7.648   3.917  14.427 -0.5839  0.1680 -0.8776
   7723SM  H15G10231   7.572   3.759  14.387  0.6993  1.2512 -1.6895
   7723SM  C16F10232   7.778   3.749  14.356 -0.6986  0.3190  0.1341
   7723SM  H16F10233   7.795   3.643  14.384  0.0370 -0.4079 -2.7671
   7723SM  H16G10234   7.867   3.807  14.390 -1.5065  1.7107 -0.0361
   7723SM  C17F10235   7.763   3.760  14.203 -0.3682  0.0715  0.5247
   7723SM  H17F10236   7.755   3.865  14.167  1.7196 -0.9278 -3.4642
   7723SM  H17G10237   7.675   3.708  14.158 -0.1151 -0.7944  0.9941
   7723SM  C18F10238   7.887   3.701  14.132 -0.0884  0.8847 -0.0398
   7723SM  H18F10239   7.891   3.715  14.022  2.1965  0.1247 -0.1040
   7723SM  H18G10240   7.883   3.591  14.147  0.6562  0.9856  1.0941
   7723SM  C19F10241   8.027   3.756  14.170  0.0502 -0.1728 -0.2821
   7723SM  H19F10242   8.024   3.772  14.280 -2.6381  0.9970 -0.4448
   7723SM  H19G10243   8.030   3.856  14.120  0.2189 -1.0130 -2.0392
   7723SM  C20F10244   8.134   3.659  14.127 -0.8113  0.5368  0.3625
   7723SM  H20F10245   8.119   3.630  14.021  2.4026  1.6991 -0.5327
   7723SM  H20G10246   8.126   3.565  14.185  0.7693 -1.1332 -1.9403
   7723SM  C21F10247   8.281   3.715  14.140  0.2557 -0.1213 -0.3400
   7723SM  H21F10248   8.303   3.740  14.246  0.2842 -1.3410 -0.0416
   7723SM  H21G10249   8.296   3.803  14.074  0.4548  1.0616  1.2384
   7723SM  C22F10250   8.385   3.614  14.092  0.0531 -0.0169 -0.2345
   7723SM  H22F10251   8.360   3.576  13.990  0.0297 -1.2651  0.2199
   7723SM  H22G10252   8.378   3.535  14.170 -1.9746 -0.1636 -0.4976
   7723SM  C23F10253   8.535   3.667  14.088 -0.1595 -0.1865 -0.2457
   7723SM  H23F10254   8.562   3.720  14.182  0.5994  1.2407 -1.2279
   7723SM  H23G10255   8.555   3.723  13.994 -0.0376  1.2290  0.5783
   7723SM  H23H10256   8.594   3.574  14.100 -1.8570 -1.3332 -0.5596
   7823SM     N10257   0.840   0.993  16.953  0.2036 -0.5652  0.0436
   7823SM   C1510258   0.933   1.094  16.897 -0.1167  0.2422 -0.1292
   7823SM  H15A10259   1.034   1.063  16.919 -0.2549  0.6648  1.2011
   7823SM  H15B10260   0.926   1.193  16.940  2.6635  1.3404 -1.8624
   7823SM  H15C10261   0.924   1.099  16.789  0.8376  0.7054 -0.1952
   7823SM   C1410262   0.873   0.982  17.101 -0.3652  0.6808  0.4213
   7823SM  H14A10263   0.964   0.924  17.103 -2.4870 -2.9488  0.5132
   7823SM  H14B10264   0.801   0.930  17.163 -1.6325  2.4596  0.5113
   7823SM  H14C10265   0.893   1.080  17.141 -3.4757  1.8849 -0.6521
   7823SM   C1310266   0.702   1.046  16.946  0.3638  0.2867  0.0348
   7823SM  H13A10267   0.672   1.074  16.846 -1.1313  5.2352  1.5356
   7823SM  H13B10268   0.697   1.136  17.006  0.0172 -0.3757  1.0189
   7823SM  H13C10269   0.627   0.976  16.978 -0.5102 -0.1083 -2.6118
   7823SM   C1210270   0.855   0.859  16.890 -0.6342  0.3578 -0.1556
   7823SM  H12A10271   0.776   0.793  16.924  0.8036 -0.1373  2.4401
   7823SM  H12B10272   0.944   0.809  16.924 -0.3669 -0.6825 -2.2209
   7823SM   C1110273   0.862   0.853  16.737 -0.3556 -0.2110 -0.7185
   7823SM  H11A10274   0.783   0.917  16.691  0.8602  2.2193  0.4093
   7823SM  H11B10275   0.821   0.751  16.719 -1.7446  0.4124 -1.2338
   7823SM     P10276   1.015   0.902  16.540 -0.3476 -0.0819  0.0672
   7823SM   O1310277   0.926   1.008  16.480 -0.1408 -0.0919 -0.3063
   7823SM   O1410278   1.164   0.908  16.517 -0.0191  0.1602  0.4823
   7823SM   O1110279   0.973   0.764  16.482  0.3448  0.1902  0.1387
   7823SM   O1210280   0.996   0.889  16.694  0.4488  0.9319  0.2632
   7823SM   C1S10281   0.847   0.730  16.418  0.1207 -0.4625  0.0686
   7823SM   H1S10282   0.784   0.818  16.396 -1.1048 -0.9788  1.2747
   7823SM   H1T10283   0.791   0.655  16.479 -1.8473 -1.1324 -2.4284
   7823SM    NF10284   0.779   0.692  16.173 -0.8814 -0.2733  0.2365
   7823SM   HNF10285   0.747   0.608  16.130 -2.0463  0.4968 -0.4844
   7823SM   C2S10286   0.883   0.675  16.278  0.1569 -0.1129  0.3331
   7823SM   H2S10287   0.969   0.737  16.245 -0.0611 -0.2636 -0.5321
   7823SM   C3S10288   0.919   0.522  16.308  0.2146 -0.0944 -0.3549
   7823SM   H3S10289   0.824   0.468  16.325 -0.0692 -0.2273 -2.1658
   7823SM    O310290   1.004   0.508  16.424  0.0378 -0.2881 -0.3028
   7823SM   HO310291   1.004   0.596  16.463  0.6305 -0.6742  0.6063
   7823SM   C4S10292   0.978   0.442  16.190 -0.2228 -0.5489  0.4051
   7823SM   H4S10293   0.915   0.399  16.112 -0.6080 -0.1127  0.4699
   7823SM   C5S10294   1.110   0.415  16.175 -0.1309  0.7161  0.0604
   7823SM   H5S10295   1.179   0.451  16.253  0.9712 -1.1821  0.0351
   7823SM   C6S10296   1.173   0.344  16.060  0.5460  0.4238 -0.5370
   7823SM   H6S10297   1.231   0.256  16.096 -1.8407 -0.6934  0.7993
   7823SM   H6T10298   1.236   0.407  15.994  2.5465 -2.3974 -1.5715
   7823SM   C7S10299   1.070   0.273  15.962 -0.7531 -0.5726 -0.4118
   7823SM   H7S10300   1.003   0.355  15.925 -0.1934  0.3280  0.5053
   7823SM   H7T10301   1.011   0.199  16.021 -1.9032  2.4857  2.6418
   7823SM   C8S10302   1.139   0.198  15.855  0.0800  0.2527 -0.5363
   7823SM   H8S10303   1.210   0.125  15.899 -1.9785 -0.2078  2.3034
   7823SM   H8T10304   1.204   0.264  15.793  2.9466  0.5427  2.5319
   7823SM   C9S10305   1.035   0.116  15.767 -0.7268  0.0154  0.2784
   7823SM   H9S10306   0.969   0.197  15.728  1.2743  0.9892 -1.3245
   7823SM   H9T10307   0.983   0.043  15.832 -2.2767  0.0043 -0.9172
   7823SM  C10S10308   1.096   0.040  15.657 -0.2912  0.0652  0.4609
   7823SM  H10S10309   1.163  -0.041  15.693  1.4475 -0.1035 -2.7515
   7823SM  H10T10310   1.160   0.097  15.586  1.1326 -0.6055  1.1509
   7823SM  C11S10311   0.992  -0.018  15.561 -0.3338  0.0213  0.1287
   7823SM  H11S10312   0.935   0.073  15.532  0.9037  1.3995  1.8425
   7823SM  H11T10313   0.930  -0.088  15.621  0.5709 -1.6525 -0.8085
   7823SM  C12S10314   1.046  -0.087  15.438  0.4759  0.1480  0.1312
   7823SM  H12S10315   0.968  -0.156  15.399  0.3192  1.0681 -1.2184
   7823SM  H12T10316   1.127  -0.157  15.469 -0.4996 -0.6275  0.9930
   7823SM  C13S10317   1.091   0.008  15.323 -0.7933 -0.3053 -0.2606
   7823SM  H13S10318   1.201   0.011  15.341 -0.5123 -0.2607 -1.8360
   7823SM  H13T10319   1.048   0.108  15.344  0.4772  0.6424 -1.8976
   7823SM  C14S10320   1.062  -0.042  15.180  0.7364  0.9956 -0.1739
   7823SM  H14S10321   0.955  -0.070  15.191  0.0644  2.6781 -1.8292
   7823SM  H14T10322   1.130  -0.127  15.159 -0.1990  0.3759 -0.7410
   7823SM  C15S10323   1.073   0.074  15.078 -0.0850 -0.0606  0.5193
   7823SM  H15S10324   1.166   0.129  15.104 -0.6330  1.0485  0.1845
   7823SM  H15T10325   0.984   0.141  15.086 -1.0554 -1.3361  0.6958
   7823SM  C16S10326   1.080   0.032  14.935  0.6496  0.5047  0.0317
   7823SM  H16S10327   0.984   0.003  14.888  0.8381  0.9618 -0.6544
   7823SM  H16T10328   1.140  -0.061  14.925 -0.4792 -0.0946 -1.4971
   7823SM  C17S10329   1.153   0.135  14.847  0.4919 -0.5602  0.4272
   7823SM  H17S10330   1.253   0.158  14.891  0.2913  0.9913  0.1266
   7823SM  H17T10331   1.091   0.225  14.863 -0.0632 -0.7165 -0.7532
   7823SM  C18S10332   1.160   0.104  14.695 -0.3709 -0.2490  0.3680
   7823SM  H18S10333   1.201   0.192  14.643 -0.6808 -0.9407 -1.0953
   7823SM  H18T10334   1.058   0.083  14.656  0.1594 -0.9767 -0.6811
   7823SM  H18U10335   1.223   0.015  14.672  0.7008 -0.1762  2.6584
   7823SM   C1F10336   0.745   0.817  16.126 -0.0546  0.2314 -0.6694
   7823SM    OF10337   0.816   0.917  16.132 -0.4260  0.1115 -0.2061
   7823SM   C2F10338   0.601   0.835  16.071  0.5002 -0.1624 -0.1143
   7823SM   H2F10339   0.527   0.866  16.148  0.5658  0.5306 -0.3182
   7823SM   H2G10340   0.570   0.737  16.031 -1.6720  1.0510 -1.6069
   7823SM   C3F10341   0.602   0.944  15.966  0.0905  0.0953  0.3429
   7823SM   H3F10342   0.687   0.930  15.896 -1.7279 -0.6334 -1.8633
   7823SM   H3G10343   0.611   1.046  16.010  2.0630 -1.4254  3.7881
   7823SM   C4F10344   0.479   0.926  15.872 -0.2394  0.3063 -0.3222
   7823SM   H4F10345   0.385   0.940  15.928 -0.3113  0.5874 -0.5132
   7823SM   H4G10346   0.478   0.822  15.833 -2.3221 -0.5868  1.8990
   7823SM   C5F10347   0.483   1.015  15.746 -0.3165  0.2829 -0.6081
   7823SM   H5F10348   0.570   0.996  15.680  1.9146  0.5610  2.0525
   7823SM   H5G10349   0.502   1.117  15.786 -0.9515  0.7138 -1.3816
   7823SM   C6F10350   0.355   1.004  15.675 -0.1457 -0.1952  0.1259
   7823SM   H6F10351   0.275   1.020  15.751  0.6745 -2.2451  1.5001
   7823SM   H6G10352   0.349   0.900  15.637  1.8134  0.3429 -1.8992
   7823SM   C7F10353   0.345   1.100  15.559  0.1601 -0.0170  0.2357
   7823SM   H7F10354   0.423   1.177  15.575  0.1641 -0.3026  1.7851
   7823SM   H7G10355   0.251   1.158  15.569  0.5294  0.6897 -0.2925
   7823SM   C8F10356   0.357   1.027  15.423  0.5509  0.2500  0.2299
   7823SM   H8F10357   0.284   0.944  15.422  1.6843 -0.8527  2.3929
   7823SM   H8G10358   0.459   0.982  15.425  0.0599 -0.9271 -0.3583
   7823SM   C9F10359   0.334   1.115  15.299 -0.2896 -0.0196  0.8405
   7823SM   H9F10360   0.230   1.155  15.296 -0.8553 -1.3903  1.4030
   7823SM   H9G10361   0.329   1.053  15.207 -0.3939  0.0841  0.7752
   7823SM  C10F10362   0.430   1.228  15.278  0.0237 -0.2968  0.2552
   7823SM  H10F10363   0.535   1.194  15.296  0.4002  0.5918 -0.1778
   7823SM  H10G10364   0.412   1.315  15.344 -0.4991  0.3290 -0.6867
   7823SM  C11F10365   0.434   1.283  15.132  0.0696  0.9699 -0.2309
   7823SM  H11F10366   0.328   1.309  15.111 -0.1843 -0.9445 -1.5930
   7823SM  H11G10367   0.474   1.209  15.059 -0.6575  1.1653 -0.8425
   7823SM  C12F10368   0.518   1.411  15.110  0.0605  0.1813 -0.1434
   7823SM  H12F10369   0.498   1.427  15.002  0.1592 -0.8177 -0.3202
   7823SM  H12G10370   0.625   1.387  15.127 -0.3838 -0.6441  1.6698
   7823SM  C13F10371   0.483   1.524  15.203  0.0786  0.6396  0.2562
   7823SM  H13F10372   0.497   1.501  15.311 -0.0122 -0.9919 -0.0575
   7823SM  H13G10373   0.376   1.549  15.190  0.0835  0.0412 -1.0945
   7823SM  C14F10374   0.551   1.658  15.160 -0.0289 -0.0377  0.0284
   7823SM  H14F10375   0.645   1.645  15.101 -0.8058  2.0637 -1.8420
   7823SM  H14G10376   0.584   1.710  15.252 -0.6268  2.5520 -1.1352
   7823SM  C15F10377   0.460   1.750  15.079  0.1290 -0.0482 -0.7386
   7823SM  H15F10378   0.371   1.791  15.133  0.0149  1.3371 -1.9144
   7823SM  H15G10379   0.417   1.704  14.988 -0.8396 -1.2650  0.2931
   7823SM  C16F10380   0.536   1.872  15.044 -0.2459 -0.1018 -0.4052
   7823SM  H16F10381   0.628   1.863  14.982  0.0522  1.8132 -0.3168
   7823SM  H16G10382   0.569   1.932  15.132 -0.1089 -0.7241 -0.0271
   7823SM  C17F10383   0.445   1.964  14.963  0.1206  0.1748 -0.4632
   7823SM  H17F10384   0.365   2.006  15.029  0.0779 -0.5077 -0.0690
   7823SM  H17G10385   0.399   1.909  14.878  1.7896 -1.2966 -0.4660
   7823SM  C18F10386   0.513   2.092  14.908 -0.1869  0.0105  0.3569
   7823SM  H18F10387   0.480   2.127  14.808 -0.1587  0.3931  0.4805
   7823SM  H18G10388   0.616   2.058  14.882 -0.6116 -0.4089 -0.8349
   7823SM  C19F10389   0.510   2.219  14.997 -0.8034  0.2315  0.0832
   7823SM  H19F10390   0.504   2.186  15.103 -2.1326 -0.7114 -0.2533
   7823SM  H19G10391   0.412   2.271  14.986 -0.5116  1.0583  1.2489
   7823SM  C20F10392   0.625   2.323  14.982 -0.5240 -0.5411 -0.6336
   7823SM  H20F10393   0.585   2.422  15.014 -3.1766 -1.4862 -0.8554
   7823SM  H20G10394   0.646   2.338  14.874 -1.8849  0.9624 -0.7330
   7823SM  C21F10395   0.753   2.278  15.063  0.5135 -0.3552  0.2801
   7823SM  H21F10396   0.795   2.192  15.007  0.7423 -1.0176  1.4412
   7823SM  H21G10397   0.720   2.238  15.161  0.8883  0.4869  0.7566
   7823SM  C22F10398   0.844   2.395  15.089  0.0871  0.6545 -0.1822
   7823SM  H22F10399   0.793   2.474  15.148  0.6650  0.0761  1.1312
   7823SM  H22G10400   0.863   2.435  14.987  1.8281 -0.0163 -0.1680
   7823SM  C23F10401   0.978   2.349  15.154  0.5072 -0.4464  0.5171
   7823SM  H23F10402   1.022   2.268  15.092  1.3326  0.3046  0.1054
   7823SM  H23G10403   0.949   2.314  15.255 -0.7923  2.1300  1.1185
   7823SM  H23H10404   1.032   2.446  15.164 -0.7285  0.1636  1.6239
   7923SM     N10405   5.883   1.855  16.368 -0.3639 -0.0588  0.2972
   7923SM   C1510406   5.785   1.802  16.468  0.3079  0.1321 -0.4002
   7923SM  H15A10407   5.750   1.876  16.539 -1.6322 -2.1821  1.2430
   7923SM  H15B10408   5.817   1.714  16.521 -1.0075 -1.0241 -1.4297
   7923SM  H15C10409   5.693   1.772  16.420 -0.9022  0.4194  1.5847
   7923SM   C1410410   5.912   1.748  16.276  0.0784 -0.1584 -0.3646
   7923SM  H14A10411   5.936   1.659  16.332 -1.5951  0.5993  1.6913
   7923SM  H14B10412   5.982   1.776  16.199 -0.1437  2.6404  0.3415
   7923SM  H14C10413   5.822   1.722  16.222  0.5392  0.2711 -1.3615
   7923SM   C1310414   5.822   1.975  16.293  0.5886  0.2579 -0.3908
   7923SM  H13A10415   5.790   2.042  16.372 -2.4297 -1.5025  0.0217
   7923SM  H13B10416   5.733   1.955  16.237  0.4998  0.6514 -0.3936
   7923SM  H13C10417   5.889   2.030  16.229 -1.6246  3.7115  0.0125
   7923SM   C1210418   6.008   1.895  16.447  0.2347 -0.4579 -0.4137
   7923SM  H12A10419   6.036   1.810  16.507 -2.8489 -0.8379  0.6918
   7923SM  H12B10420   5.980   1.968  16.523  2.6513 -0.5624  0.6506
   7923SM   C1110421   6.120   1.977  16.376 -0.2487  0.4901  0.0472
   7923SM  H11A10422   6.187   2.004  16.460  2.0444 -0.6934 -1.3146
   7923SM  H11B10423   6.084   2.075  16.339 -1.4824 -0.0911 -0.3550
   7923SM     P10424   6.302   1.800  16.315 -0.0712  0.3799  0.3129
   7923SM   O1310425   6.429   1.838  16.253 -0.5873 -0.2238  0.6203
   7923SM   O1410426   6.305   1.771  16.464  0.2359  0.5037  0.4512
   7923SM   O1110427   6.260   1.665  16.246  0.1439 -0.1849 -0.1547
   7923SM   O1210428   6.184   1.899  16.279 -0.6327 -0.3083  0.3233
   7923SM   C1S10429   6.216   1.644  16.114  0.2542 -0.2004  0.2528
   7923SM   H1S10430   6.153   1.728  16.079  1.1034 -0.5443 -2.3707
   7923SM   H1T10431   6.152   1.553  16.114  1.2139 -0.8987  1.0742
   7923SM    NF10432   6.284   1.630  15.876 -0.7623  0.2398  0.2809
   7923SM   HNF10433   6.254   1.537  15.855 -1.4606  0.1537  1.5725
   7923SM   C2S10434   6.338   1.633  16.011  0.2099 -0.1439 -0.2295
   7923SM   H2S10435   6.395   1.727  16.030 -0.8129  0.7442 -1.3673
   7923SM   C3S10436   6.427   1.508  16.032  0.6909 -0.9485  0.6236
   7923SM   H3S10437   6.384   1.411  15.998  1.6069 -1.8083  1.8311
   7923SM    O310438   6.455   1.489  16.165 -0.1850  0.2241  0.1544
   7923SM   HO310439   6.395   1.546  16.212 -0.5985 -1.8043  2.2902
   7923SM   C4S10440   6.559   1.531  15.965  0.1880  0.5813  0.8043
   7923SM   H4S10441   6.633   1.592  16.018  1.1784  0.1314 -0.0300
   7923SM   C5S10442   6.603   1.460  15.861 -0.5893 -0.6768 -0.3128
   7923SM   H5S10443   6.536   1.390  15.809  0.5328 -2.3623  0.4603
   7923SM   C6S10444   6.742   1.484  15.804  0.0072 -0.1736  1.2346
   7923SM   H6S10445   6.772   1.392  15.750 -1.3034  1.3440 -2.4211
   7923SM   H6T10446   6.810   1.519  15.884 -0.8103  1.2437  1.3492
   7923SM   C7S10447   6.750   1.589  15.691  0.3376 -0.1615  0.4251
   7923SM   H7S10448   6.686   1.561  15.605  0.4997 -2.1253  0.9040
   7923SM   H7T10449   6.853   1.581  15.651  0.8491  0.6628  1.5286
   7923SM   C8S10450   6.728   1.733  15.741  0.0112 -0.5797  0.0107
   7923SM   H8S10451   6.791   1.749  15.832 -0.7060 -0.8385  0.5639
   7923SM   H8T10452   6.625   1.742  15.780  0.0666 -0.1617  0.0668
   7923SM   C9S10453   6.744   1.837  15.633 -0.5773 -0.2729 -0.1062
   7923SM   H9S10454   6.852   1.831  15.609 -0.3603  0.1109  0.7406
   7923SM   H9T10455   6.723   1.937  15.676 -1.0504 -1.2422  2.0802
   7923SM  C10S10456   6.655   1.815  15.507 -0.5768 -0.1174 -0.4422
   7923SM  H10S10457   6.676   1.715  15.464 -1.4420 -0.6508  0.3467
   7923SM  H10T10458   6.686   1.897  15.438  0.1043 -0.2302 -0.2793
   7923SM  C11S10459   6.499   1.825  15.535 -1.0365 -0.1510  0.0589
   7923SM  H11S10460   6.472   1.923  15.581 -2.0998  0.3089 -1.4591
   7923SM  H11T10461   6.468   1.745  15.605 -0.5588 -0.0867  0.3494
   7923SM  C12S10462   6.423   1.820  15.401 -0.2485 -0.6422 -0.2138
   7923SM  H12S10463   6.333   1.763  15.431 -1.9567  1.9756  0.0041
   7923SM  H12T10464   6.475   1.753  15.330  1.0214  0.7353 -0.6442
   7923SM  C13S10465   6.386   1.953  15.340 -0.8145 -0.0317  0.2342
   7923SM  H13S10466   6.479   2.015  15.341 -1.1841  0.5417 -0.2655
   7923SM  H13T10467   6.302   2.000  15.395 -0.6978 -2.0605  2.3103
   7923SM  C14S10468   6.327   1.931  15.202  0.4610  0.7037 -0.4306
   7923SM  H14S10469   6.251   2.011  15.185 -1.6859 -1.1198  0.1554
   7923SM  H14T10470   6.269   1.836  15.202  0.3844  0.7504 -0.5459
   7923SM  C15S10471   6.423   1.922  15.084 -0.0296  0.2126  0.0082
   7923SM  H15S10472   6.505   1.853  15.113 -0.6936 -0.1959  0.9872
   7923SM  H15T10473   6.464   2.022  15.059 -0.6405  0.2782 -0.7794
   7923SM  C16S10474   6.361   1.876  14.955 -0.1405  0.5145  0.5755
   7923SM  H16S10475   6.266   1.928  14.928 -0.1178  0.6931  0.8321
   7923SM  H16T10476   6.333   1.769  14.967  3.4074 -0.4881  0.8451
   7923SM  C17S10477   6.458   1.890  14.835 -0.2393 -0.5079 -0.0752
   7923SM  H17S10478   6.560   1.860  14.867 -0.1201  0.9077  0.9663
   7923SM  H17T10479   6.466   1.999  14.812 -2.4027 -0.1010  0.7750
   7923SM  C18S10480   6.411   1.817  14.704 -0.2179 -0.5433  0.1596
   7923SM  H18S10481   6.415   1.707  14.720 -0.5879 -0.6610 -0.4878
   7923SM  H18T10482   6.480   1.842  14.620  1.8568 -2.3969  1.2250
   7923SM  H18U10483   6.306   1.840  14.677 -0.7133 -0.5580  1.9770
   7923SM   C1F10484   6.232   1.733  15.818 -0.5015  0.0527  0.5574
   7923SM    OF10485   6.229   1.833  15.881 -0.5633 -0.3792 -0.3732
   7923SM   C2F10486   6.155   1.705  15.693  0.2867  0.0987  0.1470
   7923SM   H2F10487   6.063   1.644  15.704 -0.5375  1.4971  1.3171
   7923SM   H2G10488   6.221   1.651  15.623 -0.1819  2.9278 -2.7118
   7923SM   C3F10489   6.117   1.829  15.613 -0.4302 -0.1543  0.5845
   7923SM   H3F10490   6.093   1.794  15.511  3.4848  1.9853 -1.3263
   7923SM   H3G10491   6.201   1.902  15.607  0.8748 -1.5135  1.5541
   7923SM   C4F10492   5.988   1.901  15.670 -0.0425  0.3373  0.0124
   7923SM   H4F10493   6.015   1.969  15.753  0.5568  1.0296 -0.7216
   7923SM   H4G10494   5.923   1.822  15.712  1.7509 -0.1593  2.0408
   7923SM   C5F10495   5.906   1.985  15.563  0.3273 -0.4302  0.1226
   7923SM   H5F10496   5.865   1.916  15.485  0.6517 -3.1659  2.2071
   7923SM   H5G10497   5.976   2.054  15.511 -1.7078  0.4262 -1.6588
   7923SM   C6F10498   5.790   2.057  15.630  0.0047  0.3918 -0.0900
   7923SM   H6F10499   5.834   2.137  15.693  2.7758 -0.0828 -1.2670
   7923SM   H6G10500   5.746   1.980  15.697 -1.5116 -2.6288 -4.1723
   7923SM   C7F10501   5.676   2.106  15.541 -0.5516 -0.1012 -0.4785
   7923SM   H7F10502   5.604   2.155  15.610  0.1565 -1.5497  1.3469
   7923SM   H7G10503   5.636   2.018  15.486  0.8533 -2.5618  2.1750
   7923SM   C8F10504   5.730   2.214  15.450 -0.1041 -0.0013  0.0538
   7923SM   H8F10505   5.783   2.159  15.369 -2.0283 -0.5215 -0.9087
   7923SM   H8G10506   5.796   2.286  15.503  0.0782 -1.4067  1.8305
   7923SM   C9F10507   5.606   2.281  15.387 -0.0951  0.0364 -0.3868
   7923SM   H9F10508   5.513   2.261  15.445  0.9795  0.8309  1.7233
   7923SM   H9G10509   5.581   2.247  15.284  1.4616 -0.6708 -0.5547
   7923SM  C10F10510   5.626   2.435  15.376 -0.5010  0.4279  0.2600
   7923SM  H10F10511   5.677   2.441  15.278  0.4503  2.6943  0.8166
   7923SM  H10G10512   5.692   2.469  15.459 -0.3564  0.4586  0.1345
   7923SM  C11F10513   5.489   2.499  15.375 -0.4267  0.1389 -0.1453
   7923SM  H11F10514   5.427   2.464  15.460 -1.4042 -1.6395 -1.5215
   7923SM  H11G10515   5.441   2.461  15.283  1.0121  0.9013 -1.2515
   7923SM  C12F10516   5.494   2.652  15.381  0.3169 -0.6101  0.7948
   7923SM  H12F10517   5.537   2.704  15.292 -1.3659  0.4640  0.5547
   7923SM  H12G10518   5.541   2.676  15.478  1.2358  0.0430  0.2053
   7923SM  C13F10519   5.348   2.703  15.394 -0.2234 -0.0711 -0.3997
   7923SM  H13F10520   5.370   2.811  15.409 -0.9937  0.2999 -1.7206
   7923SM  H13G10521   5.306   2.661  15.487 -1.7106  0.0099 -1.0068
   7923SM  C14F10522   5.260   2.677  15.276  0.0003 -0.2056 -0.5807
   7923SM  H14F10523   5.154   2.700  15.302  0.5427  1.9485 -0.1663
   7923SM  H14G10524   5.261   2.566  15.264  1.2085 -0.6065  2.3551
   7923SM  C15F10525   5.305   2.755  15.155  0.2222  0.5409 -0.6509
   7923SM  H15F10526   5.409   2.744  15.118  0.6737  1.0398  0.4501
   7923SM  H15G10527   5.288   2.861  15.185  0.3267  1.2018 -2.7098
   7923SM  C16F10528   5.219   2.715  15.028  0.3464 -0.8779  0.0648
   7923SM  H16F10529   5.110   2.731  15.048  0.5076 -2.6877  2.9428
   7923SM  H16G10530   5.223   2.605  15.014  2.0569 -0.8488  0.1373
   7923SM  C17F10531   5.272   2.782  14.907 -0.4836 -0.5296  0.0787
   7923SM  H17F10532   5.374   2.747  14.883 -0.5440  0.1132 -1.1698
   7923SM  H17G10533   5.272   2.892  14.928  0.8608 -0.7115  1.1468
   7923SM  C18F10534   5.187   2.763  14.778 -0.0376 -0.7764  0.6246
   7923SM  H18F10535   5.174   2.863  14.733  0.2850 -0.9027  0.2521
   7923SM  H18G10536   5.082   2.730  14.795 -0.1988 -0.9023 -0.5709
   7923SM  C19F10537   5.259   2.677  14.678 -0.1889 -0.5075 -0.0785
   7923SM  H19F10538   5.357   2.726  14.659 -0.8890  1.2205  0.6295
   7923SM  H19G10539   5.212   2.682  14.577  2.1736  0.6345 -1.1997
   7923SM  C20F10540   5.280   2.531  14.722  0.3411 -0.4090 -0.4075
   7923SM  H20F10541   5.320   2.528  14.825 -3.0228 -1.6540  1.0247
   7923SM  H20G10542   5.346   2.475  14.653  0.4227  0.3443 -0.9552
   7923SM  C21F10543   5.150   2.445  14.735 -0.3805  0.2139  0.5247
   7923SM  H21F10544   5.089   2.460  14.827 -0.0426 -0.4093  0.8588
   7923SM  H21G10545   5.196   2.345  14.752 -0.3667  0.1002 -0.1554
   7923SM  C22F10546   5.079   2.422  14.600  0.9537 -0.0281 -0.6226
   7923SM  H22F10547   5.148   2.369  14.532  2.0185  0.0610  0.3683
   7923SM  H22G10548   5.040   2.519  14.561  0.6124 -0.6741 -1.9410
   7923SM  C23F10549   4.957   2.331  14.618  0.2955  0.0650 -0.7285
   7923SM  H23F10550   4.884   2.337  14.535 -0.4884  0.3857 -0.0312
   7923SM  H23G10551   4.900   2.353  14.710  2.9573  2.1424  0.5722
   7923SM  H23H10552   4.982   2.223  14.632 -1.3581 -0.2827 -0.2702
   8023SM     N10553   0.390   2.067  16.536 -0.8394  0.5670  0.1813
   8023SM   C1510554   0.347   1.991  16.408  0.1649 -0.1562  0.0192
   8023SM  H15A10555   0.436   1.966  16.352  1.7280  0.5029  2.0576
   8023SM  H15B10556   0.276   2.054  16.357  0.8462  0.7613  0.1733
   8023SM  H15C10557   0.296   1.902  16.440  0.7764 -1.0731 -1.4839
   8023SM   C1410558   0.453   1.956  16.613  0.4908  0.6791 -0.2492
   8023SM  H14A10559   0.497   1.997  16.703 -1.7417  0.1776  1.1685
   8023SM  H14B10560   0.526   1.902  16.556 -0.8309 -0.9675 -0.4665
   8023SM  H14C10561   0.391   1.875  16.649  1.4132  0.0802  0.0272
   8023SM   C1310562   0.489   2.178  16.499 -0.3972  0.8747  0.0071
   8023SM  H13A10563   0.433   2.251  16.443 -1.4041  0.9380  1.0629
   8023SM  H13B10564   0.569   2.141  16.437 -0.3182  1.9152 -0.5263
   8023SM  H13C10565   0.536   2.231  16.580 -0.5031 -0.6219  1.0997
   8023SM   C1210566   0.268   2.119  16.610  0.3732 -0.0073 -0.0090
   8023SM  H12A10567   0.211   2.176  16.538  0.7106  0.5542  0.1631
   8023SM  H12B10568   0.303   2.188  16.684 -2.3026  0.0653  1.3015
   8023SM   C1110569   0.173   2.014  16.679 -0.3763 -0.7364  0.0647
   8023SM  H11A10570   0.104   2.066  16.748 -0.6944  0.4718 -1.1158
   8023SM  H11B10571   0.235   1.945  16.740  3.2574  1.0992 -1.2735
   8023SM     P10572  -0.036   1.967  16.525 -0.4342  0.0236 -0.3416
   8023SM   O1310573  -0.116   1.844  16.512 -0.2855 -0.4333  0.1440
   8023SM   O1410574  -0.092   2.078  16.603 -0.1040  0.3440 -0.3658
   8023SM   O1110575   0.000   2.008  16.385 -0.0498 -0.5791  0.4871
   8023SM   O1210576   0.104   1.935  16.583 -0.1889 -0.3308  0.3438
   8023SM   C1S10577  -0.040   2.139  16.331  0.1580  0.3525 -0.0584
   8023SM   H1S10578   0.027   2.217  16.372  0.7905 -0.4571  0.5044
   8023SM   H1T10579  -0.143   2.172  16.359  0.3222  0.1124  0.8541
   8023SM    NF10580  -0.104   2.277  16.120 -0.3113 -0.5495 -0.2482
   8023SM   HNF10581  -0.190   2.269  16.070 -0.3496  0.6331 -0.4122
   8023SM   C2S10582  -0.040   2.155  16.176 -0.1433  0.4685 -0.0508
   8023SM   H2S10583   0.067   2.161  16.149  0.4607  1.2069  2.3013
   8023SM   C3S10584  -0.090   2.028  16.105  0.2154  0.0601 -0.8976
   8023SM   H3S10585  -0.200   2.034  16.116  0.3446  1.4271 -0.0548
   8023SM    O310586  -0.044   1.908  16.166 -0.3643  0.2752 -0.0909
   8023SM   HO310587  -0.031   1.934  16.257 -0.4973  2.0285 -0.5286
   8023SM   C4S10588  -0.060   2.010  15.958 -0.7843  0.6525  0.9679
   8023SM   H4S10589   0.041   2.041  15.928 -1.0080  0.6348  0.1775
   8023SM   C5S10590  -0.155   1.981  15.866  0.1998  1.3605  0.3177
   8023SM   H5S10591  -0.259   1.966  15.900  0.3945  1.3794  0.9347
   8023SM   C6S10592  -0.126   1.972  15.717 -0.7364 -0.1921 -0.5795
   8023SM   H6S10593  -0.119   1.867  15.680 -0.6352 -0.0239 -1.0428
   8023SM   H6T10594  -0.026   2.018  15.704 -0.5513 -0.7565 -1.2341
   8023SM   C7S10595  -0.222   2.060  15.638 -0.6329 -0.5427  0.4502
   8023SM   H7S10596  -0.324   2.016  15.636 -0.9293  0.1429  0.0517
   8023SM   H7T10597  -0.181   2.060  15.535 -1.3115  0.4021  0.1654
   8023SM   C8S10598  -0.230   2.209  15.678  0.3225 -0.2627  0.6602
   8023SM   H8S10599  -0.128   2.249  15.661 -1.0400  3.8522  1.1289
   8023SM   H8T10600  -0.271   2.221  15.781 -0.1735  0.8435  0.3401
   8023SM   C9S10601  -0.336   2.275  15.588 -0.0089  0.4406  0.8068
   8023SM   H9S10602  -0.367   2.365  15.645 -1.2072  1.6032 -1.5405
   8023SM   H9T10603  -0.424   2.208  15.579  0.6479 -0.4422  0.7433
   8023SM  C10S10604  -0.273   2.314  15.448  0.1314  0.3126 -0.5089
   8023SM  H10S10605  -0.262   2.222  15.386 -2.9993  0.0560 -0.8288
   8023SM  H10T10606  -0.183   2.379  15.448  0.1285  0.3253 -1.1097
   8023SM  C11S10607  -0.372   2.380  15.353 -0.5004 -0.0781  0.0655
   8023SM  H11S10608  -0.409   2.461  15.419  2.7244  2.6068 -1.1540
   8023SM  H11T10609  -0.447   2.302  15.325 -2.7400  2.4466 -1.5063
   8023SM  C12S10610  -0.309   2.436  15.224  0.3799 -0.2003  0.1450
   8023SM  H12S10611  -0.260   2.350  15.174  3.3327  1.2346  0.3358
   8023SM  H12T10612  -0.232   2.512  15.253  0.5407 -0.2329 -0.1930
   8023SM  C13S10613  -0.408   2.503  15.124 -0.5874 -0.7662  0.0506
   8023SM  H13S10614  -0.437   2.604  15.160  1.9356 -0.5919  1.8313
   8023SM  H13T10615  -0.500   2.440  15.125 -0.2218 -1.3195  1.7205
   8023SM  C14S10616  -0.363   2.520  14.972  0.3833 -0.8067 -0.4878
   8023SM  H14S10617  -0.258   2.552  14.983  0.3403 -0.6193 -0.6182
   8023SM  H14T10618  -0.436   2.591  14.928 -0.0353 -1.4923 -0.9083
   8023SM  C15S10619  -0.368   2.401  14.891 -0.2070 -0.4946 -0.3887
   8023SM  H15S10620  -0.475   2.376  14.876 -1.0238  1.6687  1.3654
   8023SM  H15T10621  -0.312   2.313  14.930  1.3502  0.8248  0.4393
   8023SM  C16S10622  -0.319   2.419  14.744 -0.1735  0.0443 -0.1603
   8023SM  H16S10623  -0.217   2.462  14.741  0.6549 -1.8147  0.1025
   8023SM  H16T10624  -0.374   2.502  14.694  1.9697  1.2158 -0.6586
   8023SM  C17S10625  -0.329   2.284  14.673 -0.7369  0.1712 -0.2654
   8023SM  H17S10626  -0.429   2.237  14.687 -0.4522 -0.6357 -0.8957
   8023SM  H17T10627  -0.260   2.210  14.719  0.2947  1.3313  0.1085
   8023SM  C18S10628  -0.283   2.297  14.527  0.6796  0.7755 -0.2549
   8023SM  H18S10629  -0.304   2.199  14.481 -0.7107  0.3516  1.1915
   8023SM  H18T10630  -0.173   2.315  14.521  0.3627  2.3012 -2.4435
   8023SM  H18U10631  -0.340   2.377  14.475  2.0045  1.5649 -0.5463
   8023SM   C1F10632  -0.072   2.407  16.154 -0.6161 -0.0375  1.0202
   8023SM    OF10633   0.015   2.441  16.233 -0.6149  0.0558 -1.3328
   8023SM   C2F10634  -0.169   2.514  16.100  0.5111 -0.3288 -0.7034
   8023SM   H2F10635  -0.133   2.614  16.132  0.3599 -0.4408 -0.1764
   8023SM   H2G10636  -0.272   2.504  16.140 -0.2464  1.6639 -1.9806
   8023SM   C3F10637  -0.181   2.520  15.950  0.2922 -0.4355  0.4812
   8023SM   H3F10638  -0.263   2.586  15.915  1.0589  0.2875  0.0021
   8023SM   H3G10639  -0.202   2.415  15.918  0.0735 -0.0950 -0.5484
   8023SM   C4F10640  -0.055   2.567  15.882 -0.0129  0.2393 -0.0256
   8023SM   H4F10641   0.025   2.495  15.909  0.0134  0.2735 -0.0120
   8023SM   H4G10642  -0.023   2.665  15.923  1.0876  1.2031 -2.8895
   8023SM   C5F10643  -0.055   2.582  15.731 -0.0997 -0.0121 -0.1987
   8023SM   H5F10644  -0.033   2.479  15.697  0.9827  0.3257 -0.5617
   8023SM   H5G10645   0.036   2.645  15.713 -0.4449  0.5038 -0.1646
   8023SM   C6F10646  -0.171   2.663  15.656  0.5060 -0.6521 -0.6342
   8023SM   H6F10647  -0.170   2.765  15.699 -0.1281 -0.6950 -0.5191
   8023SM   H6G10648  -0.272   2.625  15.680 -0.8194  2.2843 -1.1371
   8023SM   C7F10649  -0.169   2.675  15.502  0.5935  0.6819  0.8618
   8023SM   H7F10650  -0.271   2.673  15.459  1.1631 -0.4184 -0.5422
   8023SM   H7G10651  -0.127   2.583  15.456 -1.5990  0.2960 -0.4898
   8023SM   C8F10652  -0.097   2.806  15.455  0.2256  0.8867 -0.1009
   8023SM   H8F10653   0.007   2.802  15.495  0.4250  1.3825 -0.5505
   8023SM   H8G10654  -0.154   2.891  15.497 -0.4586 -0.5271  1.9863
   8023SM   C9F10655  -0.077   2.816  15.301  0.6851  0.2995  0.1073
   8023SM   H9F10656  -0.052   2.715  15.263  0.5982 -0.2328  1.4226
   8023SM   H9G10657   0.008   2.882  15.274  0.3622  0.8134  0.3269
   8023SM  C10F10658  -0.194   2.869  15.230 -0.6885 -0.1499 -0.2035
   8023SM  H10F10659  -0.219   2.970  15.270  1.2544 -0.3761  1.7736
   8023SM  H10G10660  -0.288   2.811  15.235 -1.2797  0.6668 -1.3758
   8023SM  C11F10661  -0.161   2.880  15.089  0.5792 -0.1461  0.4847
   8023SM  H11F10662  -0.169   2.783  15.034 -0.7471  0.3059 -0.1415
   8023SM  H11G10663  -0.059   2.920  15.071  0.3614 -0.1971 -1.0528
   8023SM  C12F10664  -0.250   2.980  15.010  0.2494 -0.1644  0.5416
   8023SM  H12F10665  -0.228   3.081  15.050 -1.3069  0.0327  0.9892
   8023SM  H12G10666  -0.354   2.945  15.027  0.6877 -0.9890  1.6269
   8023SM  C13F10667  -0.238   2.980  14.850 -0.5067 -0.1860 -0.0641
   8023SM  H13F10668  -0.138   3.015  14.816 -0.0658 -2.4987 -1.3638
   8023SM  H13G10669  -0.314   3.047  14.805  0.2978 -1.0758 -2.9589
   8023SM  C14F10670  -0.270   2.848  14.774 -0.2442 -0.1319 -0.2327
   8023SM  H14F10671  -0.368   2.815  14.814  0.7480 -1.3463  1.2692
   8023SM  H14G10672  -0.195   2.768  14.789  0.7252  1.0294  1.3516
   8023SM  C15F10673  -0.276   2.870  14.622  0.1686 -0.6080 -0.0860
   8023SM  H15F10674  -0.209   2.956  14.601 -0.6378  0.5245  1.6417
   8023SM  H15G10675  -0.381   2.899  14.600  0.2652  0.8108  1.1357
   8023SM  C16F10676  -0.225   2.748  14.538 -0.2228 -0.3611  0.7571
   8023SM  H16F10677  -0.291   2.659  14.549  0.2740 -1.1745 -1.9526
   8023SM  H16G10678  -0.120   2.723  14.562  0.2813  0.8698 -0.0660
   8023SM  C17F10679  -0.236   2.802  14.393  0.2543  0.6239  0.5990
   8023SM  H17F10680  -0.195   2.904  14.374 -1.6171  1.2242 -0.4616
   8023SM  H17G10681  -0.342   2.817  14.364  0.0983 -1.1093  0.1700
   8023SM  C18F10682  -0.177   2.709  14.289  0.1941  0.4749  0.3357
   8023SM  H18F10683  -0.236   2.619  14.317  0.2384  0.3642  0.0736
   8023SM  H18G10684  -0.069   2.684  14.287 -0.3225 -1.9944  0.2445
   8023SM  C19F10685  -0.216   2.737  14.146  0.0685 -0.2957  0.3741
   8023SM  H19F10686  -0.319   2.777  14.143  0.9042  2.0090 -0.7751
   8023SM  H19G10687  -0.216   2.650  14.077  0.1498 -0.3341  0.4230
   8023SM  C20F10688  -0.120   2.831  14.072  0.0213 -0.9982 -0.0525
   8023SM  H20F10689  -0.088   2.914  14.138 -0.0897 -0.7709 -0.2781
   8023SM  H20G10690  -0.169   2.884  13.987  1.1237  1.1887  0.5873
   8023SM  C21F10691   0.008   2.773  14.022 -0.2331  0.1462 -0.3724
   8023SM  H21F10692  -0.010   2.688  13.953  0.7114  1.3717 -2.2185
   8023SM  H21G10693   0.057   2.730  14.113  0.9574 -0.5362 -1.2956
   8023SM  C22F10694   0.105   2.870  13.946  0.7033  0.2484 -0.3379
   8023SM  H22F10695   0.050   2.900  13.854 -0.5986  0.7001  0.5488
   8023SM  H22G10696   0.201   2.824  13.914  1.0876 -1.6392  3.0091
   8023SM  C23F10697   0.143   2.999  14.028 -0.4821 -0.5550  0.7196
   8023SM  H23F10698   0.061   3.073  14.029  0.9016  1.0491  1.9826
   8023SM  H23G10699   0.233   3.051  13.988 -1.4295 -0.0002 -0.7648
   8023SM  H23H10700   0.163   2.962  14.131 -1.0428 -2.6776  0.1173
   8123SM     N10701   3.483   4.993  12.036  0.4169 -0.0364  0.8487
   8123SM   C1510702   3.378   4.932  11.951 -0.0786  0.3121 -0.1729
   8123SM  H15A10703   3.372   4.826  11.969  1.9809  0.2033  0.1422
   8123SM  H15B10704   3.391   4.951  11.846 -1.5855 -1.3218 -0.6937
   8123SM  H15C10705   3.279   4.960  11.983  0.0369 -2.1541  2.8753
   8123SM   C1410706   3.619   4.950  11.975 -0.3112 -0.2670  0.0783
   8123SM  H14A10707   3.706   4.977  12.033  0.5463 -2.2576 -0.2016
   8123SM  H14B10708   3.626   4.993  11.876 -2.6935  2.3596  0.9205
   8123SM  H14C10709   3.618   4.843  11.961 -0.1402  0.0036 -2.3647
   8123SM   C1310710   3.478   5.146  12.035  0.1584  0.4024 -0.0182
   8123SM  H13A10711   3.574   5.183  12.066  0.8954 -1.3139 -0.1034
   8123SM  H13B10712   3.393   5.196  12.079 -1.6027 -0.8272 -1.8206
   8123SM  H13C10713   3.481   5.184  11.934  1.3835 -0.2042 -0.2256
   8123SM   C1210714   3.478   4.950  12.181  0.0430 -0.0814  0.3522
   8123SM  H12A10715   3.559   5.000  12.233 -1.3084  0.6018  1.9076
   8123SM  H12B10716   3.487   4.842  12.188  0.3924 -0.1296 -0.6756
   8123SM   C1110717   3.346   4.981  12.258  0.2358 -0.1341  0.5165
   8123SM  H11A10718   3.340   5.085  12.296  2.0169  0.8176 -1.5589
   8123SM  H11B10719   3.361   4.929  12.355 -2.2430 -2.5955 -0.2703
   8123SM     P10720   3.166   4.804  12.223  0.2558 -0.5146 -0.0492
   8123SM   O1310721   3.034   4.805  12.146  0.2480 -0.0155 -0.3959
   8123SM   O1410722   3.266   4.702  12.186 -0.2880 -0.9153  0.4227
   8123SM   O1110723   3.126   4.781  12.370 -0.3168 -0.0348 -0.0935
   8123SM   O1210724   3.222   4.947  12.196  0.4999 -0.0138  0.2363
   8123SM   C1S10725   3.081   4.896  12.453 -0.5434  0.7530  0.0603
   8123SM   H1S10726   2.977   4.920  12.423 -0.5806 -0.5138 -0.9457
   8123SM   H1T10727   3.142   4.988  12.441  0.4836 -0.0284 -1.1400
   8123SM    NF10728   3.033   4.981  12.673  0.1592  0.1485  0.1339
   8123SM   HNF10729   3.083   5.057  12.714 -1.1521  1.3715 -0.4301
   8123SM   C2S10730   3.103   4.874  12.602  0.3213 -0.1088  0.0181
   8123SM   H2S10731   3.047   4.779  12.614 -1.5245  0.8185 -0.8797
   8123SM   C3S10732   3.251   4.845  12.642 -0.6796  0.7390  0.8715
   8123SM   H3S10733   3.320   4.929  12.618  0.6152 -0.4184  0.3770
   8123SM    O310734   3.322   4.749  12.561  0.4160 -0.4633 -0.6715
   8123SM   HO310735   3.254   4.718  12.500 -1.0381  0.6403  0.3217
   8123SM   C4S10736   3.263   4.791  12.782  0.4919  0.2268  0.3643
   8123SM   H4S10737   3.227   4.688  12.797  0.8420  0.2594  1.5269
   8123SM   C5S10738   3.277   4.875  12.886 -0.6548  0.5671 -0.2133
   8123SM   H5S10739   3.296   4.981  12.861 -0.8709  0.7531  0.3901
   8123SM   C6S10740   3.242   4.844  13.030 -0.1371 -0.6071  0.9516
   8123SM   H6S10741   3.282   4.926  13.092 -1.9596  0.8607  0.2724
   8123SM   H6T10742   3.288   4.748  13.062  0.2803 -1.1598 -1.1080
   8123SM   C7S10743   3.090   4.833  13.042 -0.2085  0.2733  0.4558
   8123SM   H7S10744   3.068   4.758  12.963  1.0868  1.8319 -1.4595
   8123SM   H7T10745   3.035   4.927  13.020 -1.8377 -0.7720 -0.1178
   8123SM   C8S10746   3.047   4.776  13.173  0.5478  0.0657 -0.5386
   8123SM   H8S10747   3.073   4.668  13.178 -1.2280 -0.4681 -1.7539
   8123SM   H8T10748   2.936   4.765  13.172  0.6502 -1.0369 -0.6220
   8123SM   C9S10749   3.107   4.844  13.303 -0.0984 -0.5611  0.2396
   8123SM   H9S10750   3.067   4.948  13.311 -1.2288 -1.0404  1.0835
   8123SM   H9T10751   3.217   4.859  13.298 -0.3713  1.4922 -1.8533
   8123SM  C10S10752   3.087   4.774  13.432 -0.3885  0.8168 -0.4024
   8123SM  H10S10753   3.151   4.683  13.431 -1.7126 -0.1898  1.4358
   8123SM  H10T10754   2.982   4.738  13.430 -0.1929  0.2784 -1.8499
   8123SM  C11S10755   3.136   4.858  13.556  0.8932  0.5957 -0.3797
   8123SM  H11S10756   3.079   4.953  13.558  0.0747  0.1089  0.2464
   8123SM  H11T10757   3.243   4.884  13.542  2.7192 -3.6437  3.1739
   8123SM  C12S10758   3.117   4.783  13.691 -0.4666  0.6606 -0.1551
   8123SM  H12S10759   3.199   4.709  13.699 -1.9959 -1.3129 -1.8365
   8123SM  H12T10760   3.030   4.716  13.705  0.1568 -0.4792 -1.4241
   8123SM  C13S10761   3.135   4.886  13.797  0.2413 -0.7217  0.2365
   8123SM  H13S10762   3.057   4.964  13.779  0.1003 -0.7497  0.7036
   8123SM  H13T10763   3.231   4.939  13.782 -0.6888  0.6562 -1.2069
   8123SM  C14S10764   3.121   4.825  13.942 -0.2374 -0.7184 -0.2152
   8123SM  H14S10765   3.191   4.741  13.956  1.2986  0.6756  0.8257
   8123SM  H14T10766   3.017   4.787  13.954 -0.4382 -0.6144 -1.4788
   8123SM  C15S10767   3.161   4.932  14.052  0.7841  0.1671 -0.7089
   8123SM  H15S10768   3.109   5.026  14.023  0.6978  0.0103 -1.0591
   8123SM  H15T10769   3.267   4.958  14.033  0.8758 -0.6751 -1.3553
   8123SM  C16S10770   3.138   4.900  14.200  0.5136  0.6275 -0.0003
   8123SM  H16S10771   3.039   4.850  14.206 -0.0059  1.5675 -0.5875
   8123SM  H16T10772   3.123   4.994  14.257  1.0927  2.0963 -2.1363
   8123SM  C17S10773   3.257   4.818  14.250  0.1305 -0.1318 -0.1219
   8123SM  H17S10774   3.353   4.869  14.229 -0.1562  0.3194 -0.3319
   8123SM  H17T10775   3.261   4.721  14.196  1.3184 -0.3172  0.2809
   8123SM  C18S10776   3.246   4.784  14.398  0.5291 -0.5870  0.2600
   8123SM  H18S10777   3.267   4.677  14.420 -0.2296 -1.3983 -2.5642
   8123SM  H18T10778   3.138   4.798  14.422 -0.3989  1.8500 -4.2428
   8123SM  H18U10779   3.301   4.854  14.464  0.2611 -1.0277  0.9694
   8123SM   C1F10780   2.900   4.996  12.666  0.3535  0.7125  0.1854
   8123SM    OF10781   2.842   4.891  12.647  0.0805 -0.0828  0.2570
   8123SM   C2F10782   2.836   5.129  12.689  0.2234 -0.2440  0.2188
   8123SM   H2F10783   2.857   5.185  12.596  3.4113 -0.3265  0.7835
   8123SM   H2G10784   2.894   5.182  12.768 -0.6094  2.2884 -0.7331
   8123SM   C3F10785   2.683   5.113  12.709 -0.3756 -0.5791  0.0402
   8123SM   H3F10786   2.631   5.070  12.620  0.0254 -0.5350 -0.2172
   8123SM   H3G10787   2.652   5.220  12.704 -0.2846 -0.5725 -0.4975
   8123SM   C4F10788   2.645   5.044  12.842 -0.5811 -0.1392  0.3588
   8123SM   H4F10789   2.650   4.935  12.824  1.1357 -0.1295  0.5859
   8123SM   H4G10790   2.538   5.064  12.862 -0.7400  2.2986 -2.2326
   8123SM   C5F10791   2.725   5.093  12.958  0.6969 -0.0327 -0.4543
   8123SM   H5F10792   2.725   5.204  12.963  0.1968 -0.0526  0.1100
   8123SM   H5G10793   2.833   5.067  12.954  0.7437 -0.1985  1.2098
   8123SM   C6F10794   2.677   5.025  13.083 -0.3247  0.2423 -0.1377
   8123SM   H6F10795   2.695   4.915  13.074 -0.4879  0.1214  0.8576
   8123SM   H6G10796   2.569   5.043  13.102 -0.5589  0.9698 -2.0120
   8123SM   C7F10797   2.768   5.062  13.205  0.2679 -0.0463  0.1770
   8123SM   H7F10798   2.775   5.172  13.219  0.2444  0.0436 -0.4985
   8123SM   H7G10799   2.876   5.040  13.191  0.3323 -0.0444  0.6329
   8123SM   C8F10800   2.718   4.997  13.340  0.7564 -0.0199  0.0578
   8123SM   H8F10801   2.722   4.887  13.329 -2.1072 -0.0005 -2.8974
   8123SM   H8G10802   2.610   5.023  13.348  0.9807  0.9409  0.1075
   8123SM   C9F10803   2.800   5.031  13.470 -0.1830  0.8340  0.0330
   8123SM   H9F10804   2.791   5.131  13.518  2.1212  0.7608  0.7161
   8123SM   H9G10805   2.906   5.009  13.444 -1.0261 -0.9230 -2.3376
   8123SM  C10F10806   2.765   4.933  13.581  0.1089 -0.0866 -0.5559
   8123SM  H10F10807   2.822   4.968  13.670  2.0373  0.0809 -1.8043
   8123SM  H10G10808   2.789   4.829  13.552  0.6960  0.5330 -2.3698
   8123SM  C11F10809   2.623   4.949  13.634  0.2002 -0.0957  0.3282
   8123SM  H11F10810   2.552   4.914  13.556  1.3695 -0.1309 -0.7560
   8123SM  H11G10811   2.602   5.056  13.654  2.0961  0.3446  0.1690
   8123SM  C12F10812   2.598   4.860  13.753  0.2697  0.3996  0.4725
   8123SM  H12F10813   2.682   4.876  13.824  1.5894  0.9727 -1.1671
   8123SM  H12G10814   2.612   4.759  13.708 -3.3379  0.4014 -0.9473
   8123SM  C13F10815   2.455   4.878  13.802 -0.3955 -0.0709 -0.5752
   8123SM  H13F10816   2.390   4.886  13.713 -0.1445  1.9806 -0.6306
   8123SM  H13G10817   2.441   4.979  13.847  0.4378 -1.0196  1.9735
   8123SM  C14F10818   2.406   4.780  13.904  0.1564 -0.3496 -0.6559
   8123SM  H14F10819   2.482   4.795  13.984 -1.1075 -0.0758  0.5375
   8123SM  H14G10820   2.390   4.677  13.866 -3.3908 -0.2535  0.1562
   8123SM  C15F10821   2.271   4.821  13.957 -0.1381  0.0315 -0.0603
   8123SM  H15F10822   2.196   4.830  13.876 -2.3529 -1.5615  1.7061
   8123SM  H15G10823   2.282   4.920  14.008 -1.7233  1.1982 -1.8456
   8123SM  C16F10824   2.214   4.713  14.052  0.1644  0.1637 -0.0310
   8123SM  H16F10825   2.303   4.668  14.102 -1.3260  0.4456  3.1177
   8123SM  H16G10826   2.160   4.638  13.991  0.1039 -1.0430  1.4239
   8123SM  C17F10827   2.119   4.779  14.158  0.6722  0.3450 -0.7706
   8123SM  H17F10828   2.088   4.693  14.222  2.8453  0.3052  0.3590
   8123SM  H17G10829   2.027   4.827  14.120  0.5309  0.4167 -0.3404
   8123SM  C18F10830   2.184   4.862  14.268  0.7879  0.2223 -0.3948
   8123SM  H18F10831   2.209   4.964  14.230  1.4971 -0.2989 -1.3567
   8123SM  H18G10832   2.283   4.815  14.289  0.2217 -1.2976 -1.0093
   8123SM  C19F10833   2.086   4.872  14.396  0.1997  0.0217  0.0014
   8123SM  H19F10834   2.069   4.769  14.434  1.1237  0.9471  3.1997
   8123SM  H19G10835   1.987   4.907  14.361 -1.4429 -3.4276  0.8270
   8123SM  C20F10836   2.134   4.965  14.507 -0.7373 -0.6964 -0.2195
   8123SM  H20F10837   2.043   4.986  14.567 -0.9716  0.5206 -0.9707
   8123SM  H20G10838   2.170   5.061  14.464  1.3722 -1.0226  0.7228
   8123SM  C21F10839   2.239   4.895  14.591  0.2579 -0.4072 -0.1133
   8123SM  H21F10840   2.339   4.882  14.544 -0.2572 -1.6451 -0.9253
   8123SM  H21G10841   2.206   4.794  14.624  1.2232 -0.4203  0.8891
   8123SM  C22F10842   2.250   4.988  14.716  0.2551 -0.7548  0.2245
   8123SM  H22F10843   2.151   5.006  14.765 -0.0737  3.2835 -1.5591
   8123SM  H22G10844   2.283   5.088  14.680 -0.5603 -0.4842  0.1870
   8123SM  C23F10845   2.352   4.954  14.827 -0.0926 -0.2114 -0.4580
   8123SM  H23F10846   2.325   5.016  14.915 -1.0798 -0.7605 -0.3631
   8123SM  H23G10847   2.454   4.986  14.795  0.4266  1.4067  2.4238
   8123SM  H23H10848   2.344   4.849  14.861 -0.6615  0.2409  0.8800
   8223SM     N10849   2.921   5.157  11.978 -0.1894 -0.0598  0.1545
   8223SM   C1510850   2.812   5.063  11.992  0.0701  0.0262  0.6528
   8223SM  H15A10851   2.839   4.960  12.011  1.6890  0.2094 -0.4827
   8223SM  H15B10852   2.748   5.079  11.907 -0.9637  2.9920  1.8367
   8223SM  H15C10853   2.748   5.093  12.074 -3.7950 -1.6868 -1.4614
   8223SM   C1410854   2.998   5.122  11.850  0.3566  0.1231  0.3275
   8223SM  H14A10855   2.948   5.167  11.766 -0.0845  1.8731  1.4598
   8223SM  H14B10856   3.012   5.015  11.846 -1.4773 -0.1287 -0.0075
   8223SM  H14C10857   3.091   5.176  11.862 -0.0107  1.0173 -0.7412
   8223SM   C1310858   2.863   5.302  11.963 -0.4806  0.5915  0.2029
   8223SM  H13A10859   2.926   5.384  11.996 -0.5646  0.6707  0.1689
   8223SM  H13B10860   2.767   5.309  12.013  0.1682 -0.5162  1.6829
   8223SM  H13C10861   2.853   5.322  11.857 -1.1117 -3.4177 -0.6339
   8223SM   C1210862   3.006   5.154  12.103 -0.2755  0.1720 -0.6286
   8223SM  H12A10863   3.046   5.057  12.129  2.3064  1.5372  0.9703
   8223SM  H12B10864   2.942   5.193  12.181 -1.0314 -1.1323 -0.5602
   8223SM   C1110865   3.128   5.247  12.108  0.8029  0.3908 -0.1962
   8223SM  H11A10866   3.181   5.233  12.011 -1.4739 -2.7844 -1.1224
   8223SM  H11B10867   3.200   5.197  12.176 -0.2290 -0.9301 -0.0369
   8223SM     P10868   3.040   5.419  12.278 -0.6597 -0.2591 -0.1649
   8223SM   O1310869   3.055   5.569  12.302 -0.3497  0.3236 -0.1545
   8223SM   O1410870   2.905   5.357  12.300  0.5303 -0.1610  0.1022
   8223SM   O1110871   3.146   5.337  12.370 -0.9145 -0.3357  0.4514
   8223SM   O1210872   3.098   5.383  12.140 -0.0355 -0.1337  0.2372
   8223SM   C1S10873   3.165   5.348  12.514 -0.6853 -0.5966  0.3255
   8223SM   H1S10874   3.090   5.282  12.562 -1.2059  0.5940  1.1754
   8223SM   H1T10875   3.141   5.450  12.550 -2.1578 -0.4522 -0.9771
   8223SM    NF10876   3.311   5.360  12.695 -0.6074 -0.3049  0.3976
   8223SM   HNF10877   3.351   5.447  12.722 -2.1666  0.7314 -0.5132
   8223SM   C2S10878   3.309   5.331  12.555 -0.0438  0.2175 -0.1309
   8223SM   H2S10879   3.325   5.221  12.548 -0.8397 -0.0873  2.0550
   8223SM   C3S10880   3.410   5.411  12.466 -0.2188 -0.2766  0.0762
   8223SM   H3S10881   3.381   5.518  12.461  0.8968 -0.0025 -1.3524
   8223SM    O310882   3.409   5.363  12.329 -0.1019 -0.4933  0.0775
   8223SM   HO310883   3.321   5.329  12.313 -0.8532  0.8976  1.0597
   8223SM   C4S10884   3.545   5.413  12.540 -0.0809 -0.1792 -0.0561
   8223SM   H4S10885   3.539   5.498  12.611 -1.2103  1.7367 -2.3078
   8223SM   C5S10886   3.659   5.337  12.537  1.0712 -0.1347 -0.3644
   8223SM   H5S10887   3.661   5.250  12.469  1.8719 -0.6507  0.2998
   8223SM   C6S10888   3.782   5.367  12.620 -0.6491 -0.5703  0.0587
   8223SM   H6S10889   3.876   5.379  12.562 -0.9543 -1.1856 -0.5773
   8223SM   H6T10890   3.817   5.288  12.690 -1.6691  1.1124  2.6215
   8223SM   C7S10891   3.777   5.493  12.712 -0.5119  0.1504 -0.3140
   8223SM   H7S10892   3.704   5.474  12.793  0.4462 -1.6774  0.1652
   8223SM   H7T10893   3.749   5.585  12.656 -0.7240 -1.0158 -2.1863
   8223SM   C8S10894   3.915   5.528  12.766  0.3955  0.4640 -0.4338
   8223SM   H8S10895   3.980   5.570  12.687 -1.2909  1.9042 -1.1266
   8223SM   H8T10896   3.959   5.434  12.805  0.3529 -0.9267 -3.4775
   8223SM   C9S10897   3.898   5.639  12.873 -0.1001  0.3315  0.3367
   8223SM   H9S10898   3.825   5.610  12.951  1.2038 -3.4453  0.3445
   8223SM   H9T10899   3.855   5.732  12.830  0.1829  0.2305 -0.1780
   8223SM  C10S10900   4.025   5.657  12.954  0.3901 -0.4203 -0.3757
   8223SM  H10S10901   4.103   5.703  12.889  0.5307  0.2596  0.2574
   8223SM  H10T10902   4.067   5.561  12.993  2.0066  1.1575  2.0779
   8223SM  C11S10903   4.015   5.759  13.074  0.9670 -0.5825 -0.0746
   8223SM  H11S10904   3.971   5.854  13.036  1.5706 -0.4392 -0.4405
   8223SM  H11T10905   4.122   5.774  13.101  1.2163 -1.2569 -0.6441
   8223SM  C12S10906   3.923   5.717  13.186 -0.2626 -0.2125 -0.0181
   8223SM  H12S10907   3.978   5.639  13.244 -1.2623 -0.1960  0.9957
   8223SM  H12T10908   3.820   5.684  13.161  0.2115  0.1189 -2.6638
   8223SM  C13S10909   3.909   5.824  13.293  0.2514 -0.0373 -0.3692
   8223SM  H13S10910   3.846   5.907  13.256 -1.7343 -0.7403  1.2610
   8223SM  H13T10911   4.002   5.884  13.306  0.0480  0.7077 -2.0393
   8223SM  C14S10912   3.857   5.762  13.425 -0.3910  0.2861  0.1093
   8223SM  H14S10913   3.943   5.716  13.478 -0.6945 -2.4303 -1.5533
   8223SM  H14T10914   3.795   5.670  13.413  1.1343 -1.1030  2.0716
   8223SM  C15S10915   3.789   5.858  13.519 -0.0265 -0.1917  0.3735
   8223SM  H15S10916   3.705   5.910  13.467 -0.8389 -0.9150  0.9360
   8223SM  H15T10917   3.861   5.941  13.536 -0.2837  0.4601 -1.4070
   8223SM  C16S10918   3.732   5.790  13.647  0.4374 -0.1856  0.6308
   8223SM  H16S10919   3.811   5.728  13.695 -0.4929 -2.0818 -0.1992
   8223SM  H16T10920   3.655   5.715  13.618 -0.5795  1.2391 -0.4809
   8223SM  C17S10921   3.664   5.882  13.747 -0.7028 -0.6357 -0.4905
   8223SM  H17S10922   3.575   5.934  13.705  0.5849  2.9023  0.7749
   8223SM  H17T10923   3.733   5.957  13.792 -0.4845 -0.3175 -1.3505
   8223SM  C18S10924   3.609   5.795  13.870 -0.2494  0.4540  0.4967
   8223SM  H18S10925   3.588   5.850  13.964 -0.8607 -0.8744  1.1640
   8223SM  H18T10926   3.685   5.719  13.899 -0.1278  1.2944  2.5680
   8223SM  H18U10927   3.516   5.752  13.827  0.8192 -0.7106 -0.7595
   8223SM   C1F10928   3.255   5.281  12.788 -0.0953  0.7543 -0.0711
   8223SM    OF10929   3.204   5.171  12.768 -0.3525  0.0700 -0.0912
   8223SM   C2F10930   3.268   5.342  12.927 -0.1446  0.5478  0.1392
   8223SM   H2F10931   3.199   5.428  12.942 -1.2827 -0.4377  0.7943
   8223SM   H2G10932   3.368   5.390  12.926  0.1589 -0.0830 -1.1567
   8223SM   C3F10933   3.243   5.243  13.031 -0.1744 -0.0001 -0.2789
   8223SM   H3F10934   3.312   5.156  13.026 -0.9507 -0.7492  1.3648
   8223SM   H3G10935   3.142   5.196  13.031  0.8017 -2.2903  1.3142
   8223SM   C4F10936   3.269   5.298  13.179 -0.6369  0.0084  0.3870
   8223SM   H4F10937   3.198   5.381  13.200  0.5839  1.1683  0.0892
   8223SM   H4G10938   3.372   5.340  13.176 -1.9183  3.6251  1.4142
   8223SM   C5F10939   3.255   5.188  13.283 -0.2654 -0.1937  0.4704
   8223SM   H5F10940   3.308   5.099  13.243 -0.9122 -0.0863 -0.6617
   8223SM   H5G10941   3.153   5.145  13.290  0.7242 -2.7627  0.1759
   8223SM   C6F10942   3.302   5.223  13.419  0.9377  0.4830 -0.3707
   8223SM   H6F10943   3.407   5.259  13.420  0.3396  2.5651 -2.4941
   8223SM   H6G10944   3.302   5.130  13.479 -4.8224  0.1782 -0.2630
   8223SM   C7F10945   3.224   5.329  13.488 -0.5683 -0.2799 -0.5461
   8223SM   H7F10946   3.125   5.287  13.515  0.2281 -0.3370  2.7437
   8223SM   H7G10947   3.230   5.421  13.426  0.1586  0.2426  0.2808
   8223SM   C8F10948   3.280   5.363  13.625  0.2025 -0.4936  0.1074
   8223SM   H8F10949   3.216   5.435  13.680  0.6320 -0.1502  0.1701
   8223SM   H8G10950   3.382   5.406  13.617  0.8976 -2.0963  0.0164
   8223SM   C9F10951   3.288   5.247  13.725  0.4499 -0.3848 -0.8270
   8223SM   H9F10952   3.360   5.174  13.684  1.1529 -0.7985  1.0290
   8223SM   H9G10953   3.189   5.200  13.742  1.1617 -1.8480 -0.5578
   8223SM  C10F10954   3.340   5.273  13.865  0.2944 -0.1716 -0.2859
   8223SM  H10F10955   3.423   5.347  13.864 -0.2623  0.4657 -1.6874
   8223SM  H10G10956   3.370   5.174  13.904 -0.1529 -0.5916 -0.9951
   8223SM  C11F10957   3.215   5.326  13.950 -0.5919 -0.0171  0.1973
   8223SM  H11F10958   3.141   5.243  13.951  1.1071 -1.7130  3.7500
   8223SM  H11G10959   3.158   5.411  13.907 -0.1874 -0.1277 -0.5750
   8223SM  C12F10960   3.256   5.363  14.097 -0.4083  0.5762  0.4494
   8223SM  H12F10961   3.328   5.447  14.084 -0.9589  0.9860  0.0196
   8223SM  H12G10962   3.295   5.279  14.159 -1.6143  1.3034  2.2637
   8223SM  C13F10963   3.136   5.411  14.182  0.2817  0.0736 -0.4458
   8223SM  H13F10964   3.161   5.414  14.290 -2.3394  0.0664  0.2394
   8223SM  H13G10965   3.061   5.329  14.174  0.0258  0.2490  0.1336
   8223SM  C14F10966   3.086   5.552  14.147  0.3634  0.7610  0.3183
   8223SM  H14F10967   3.036   5.545  14.048 -0.0869  1.2653  0.5023
   8223SM  H14G10968   3.176   5.617  14.142  0.4866  0.5394 -0.4384
   8223SM  C15F10969   2.983   5.609  14.243 -0.5748 -0.6958  0.0473
   8223SM  H15F10970   2.948   5.706  14.202  1.0470  0.3051  0.9416
   8223SM  H15G10971   3.018   5.638  14.345  2.2498  0.4763 -1.1717
   8223SM  C16F10972   2.857   5.520  14.274  0.0074  0.3488 -0.1182
   8223SM  H16F10973   2.893   5.433  14.332  0.8705  2.6315  3.0630
   8223SM  H16G10974   2.814   5.498  14.174  0.1601  0.6242 -0.2475
   8223SM  C17F10975   2.764   5.602  14.366 -0.2055  0.2661 -0.1226
   8223SM  H17F10976   2.737   5.691  14.306  0.0886  1.3535  1.2785
   8223SM  H17G10977   2.825   5.631  14.455  1.0628 -1.6113 -0.3262
   8223SM  C18F10978   2.637   5.529  14.406  0.2573  0.3577  0.2576
   8223SM  H18F10979   2.666   5.452  14.481 -0.1120  0.7909  0.8544
   8223SM  H18G10980   2.607   5.475  14.314  1.8064 -0.0419 -0.0362
   8223SM  C19F10981   2.519   5.624  14.456 -0.0446 -0.8193 -0.4082
   8223SM  H19F10982   2.438   5.559  14.493  0.6988 -1.4664  0.1082
   8223SM  H19G10983   2.490   5.691  14.372  0.5914 -1.7812 -1.4223
   8223SM  C20F10984   2.577   5.704  14.574  0.5105 -0.3531 -0.4826
   8223SM  H20F10985   2.664   5.768  14.547 -1.5441  2.3840 -1.0908
   8223SM  H20G10986   2.618   5.630  14.645  0.8573  0.5919  0.3242
   8223SM  C21F10987   2.472   5.796  14.646  0.0400 -0.4841 -0.0783
   8223SM  H21F10988   2.383   5.733  14.671 -0.6030 -0.6952 -2.5994
   8223SM  H21G10989   2.439   5.864  14.564  1.0503 -0.2485 -0.3025
   8223SM  C22F10990   2.539   5.877  14.754 -0.0124 -0.3943  0.2252
   8223SM  H22F10991   2.605   5.951  14.703  1.7798 -1.9755  0.1208
   8223SM  H22G10992   2.615   5.812  14.803 -0.8484 -2.5329 -1.1624
   8223SM  C23F10993   2.455   5.942  14.859 -0.3530  0.4835 -0.0471
   8223SM  H23F10994   2.515   6.017  14.915 -0.8437  1.2453 -0.5074
   8223SM  H23G10995   2.409   5.866  14.925  2.2591 -1.1005  0.0600
   8223SM  H23H10996   2.376   6.002  14.808  0.0437  1.0453 -0.0192
   8323SM     N10997   4.199   5.011  12.055 -0.0730  0.7771  0.3441
   8323SM   C1510998   4.183   4.980  11.911  0.0667  0.2088 -0.5993
   8323SM  H15A10999   4.088   5.001  11.865 -0.4130  1.8398  1.0211
   8323SM  H15B11000   4.203   4.875  11.893  1.4991  0.0484  1.5807
   8323SM  H15C11001   4.258   5.040  11.861 -0.7320  1.6610 -0.1033
   8323SM   C1411002   4.121   4.915  12.137  0.6857 -0.1349 -0.0515
   8323SM  H14A11003   4.130   4.925  12.244  3.1057 -3.1655  0.1683
   8323SM  H14B11004   4.158   4.818  12.109 -1.4099 -0.3716 -2.4208
   8323SM  H14C11005   4.016   4.922  12.112  0.8040 -0.3238 -0.6209
   8323SM   C1311006   4.340   5.010  12.096  0.0547 -0.0953 -0.2270
   8323SM  H13A11007   4.393   5.096  12.056 -1.7820  0.8329 -0.7815
   8323SM  H13B11008   4.396   4.926  12.059  1.0449  1.6544 -3.0957
   8323SM  H13C11009   4.339   5.016  12.204 -0.9833  2.3277 -0.3024
   8323SM   C1211010   4.152   5.155  12.075 -0.0301 -0.2615 -0.8319
   8323SM  H12A11011   4.230   5.222  12.042 -0.2120 -0.6921 -2.2017
   8323SM  H12B11012   4.147   5.182  12.179  0.2494 -1.5548 -0.4614
   8323SM   C1111013   4.012   5.191  12.007 -0.0064  0.3442 -0.5225
   8323SM  H11A11014   4.021   5.169  11.899 -0.4970 -2.6181 -0.0335
   8323SM  H11B11015   4.009   5.302  12.017 -3.4431  0.3788 -0.9642
   8323SM     P11016   3.839   5.185  12.195 -0.0136 -0.2089  0.6973
   8323SM   O1311017   3.940   5.232  12.287  0.1980  0.1327 -0.6649
   8323SM   O1411018   3.747   5.290  12.146 -0.5037 -0.1100  0.4087
   8323SM   O1111019   3.755   5.079  12.268 -0.2121 -0.4307 -0.2862
   8323SM   O1211020   3.904   5.117  12.064 -0.5666 -0.1969  0.1769
   8323SM   C1S11021   3.808   4.952  12.314 -0.8847 -0.1810  0.2200
   8323SM   H1S11022   3.906   4.921  12.272 -0.2471 -0.1482  1.6143
   8323SM   H1T11023   3.751   4.871  12.265  0.4472 -0.2117 -1.3373
   8323SM    NF11024   3.888   4.815  12.503  0.4037  0.6742 -0.0266
   8323SM   HNF11025   3.833   4.735  12.525 -0.3903  1.3637  0.5604
   8323SM   C2S11026   3.804   4.925  12.471 -0.4929 -0.6564  0.7008
   8323SM   H2S11027   3.849   5.016  12.517 -0.9473  1.2331 -2.3563
   8323SM   C3S11028   3.655   4.919  12.511  0.7512 -0.9661 -0.0600
   8323SM   H3S11029   3.603   4.829  12.471  0.1804 -1.9661  2.6948
   8323SM    O311030   3.588   5.034  12.464 -0.1819 -0.5233 -0.0232
   8323SM   HO311031   3.636   5.058  12.384 -1.0197 -1.4829 -0.8385
   8323SM   C4S11032   3.643   4.914  12.660  0.6497  0.1661  0.1122
   8323SM   H4S11033   3.563   4.850  12.701 -2.3669  2.2751 -2.0303
   8323SM   C5S11034   3.705   4.990  12.746  0.3479 -0.2578  0.4221
   8323SM   H5S11035   3.765   5.070  12.700  1.2761 -1.3652 -0.3440
   8323SM   C6S11036   3.694   5.014  12.892  0.4598  0.8092  0.2235
   8323SM   H6S11037   3.783   4.975  12.947  0.4854 -2.4530 -1.8532
   8323SM   H6T11038   3.608   4.956  12.931  2.3003 -2.4383 -0.1924
   8323SM   C7S11039   3.686   5.165  12.934  0.6051  0.2348 -0.1201
   8323SM   H7S11040   3.596   5.201  12.880 -0.7023 -2.8556 -0.2384
   8323SM   H7T11041   3.781   5.213  12.904  0.7890  0.7153  1.1852
   8323SM   C8S11042   3.669   5.188  13.088 -0.0546 -0.4671 -0.3504
   8323SM   H8S11043   3.748   5.135  13.145  1.7237  1.6410 -0.7288
   8323SM   H8T11044   3.576   5.146  13.131 -0.1672 -0.9488 -1.0332
   8323SM   C9S11045   3.700   5.341  13.122 -0.2321  0.0159 -0.3763
   8323SM   H9S11046   3.634   5.412  13.066  1.2922  1.5258 -0.3223
   8323SM   H9T11047   3.803   5.375  13.100 -0.4187  0.7478 -0.1479
   8323SM  C10S11048   3.660   5.380  13.264 -0.0671  0.1767  0.5085
   8323SM  H10S11049   3.578   5.309  13.290 -0.0302 -0.6380 -1.4091
   8323SM  H10T11050   3.624   5.485  13.270 -1.6196 -0.0886 -2.4393
   8323SM  C11S11051   3.776   5.354  13.367 -0.0593 -0.5937  0.1252
   8323SM  H11S11052   3.860   5.420  13.337  0.7394 -1.8321 -0.4662
   8323SM  H11T11053   3.810   5.248  13.369 -0.6037 -0.7947 -0.7977
   8323SM  C12S11054   3.715   5.397  13.504 -0.3216  0.1537  0.8986
   8323SM  H12S11055   3.616   5.348  13.519 -0.6079  0.9410  1.6408
   8323SM  H12T11056   3.688   5.504  13.489 -3.6784 -0.6614  0.2752
   8323SM  C13S11057   3.788   5.359  13.634  0.6422  0.1730  0.2645
   8323SM  H13S11058   3.887   5.409  13.633  0.7569 -0.0512  0.6244
   8323SM  H13T11059   3.816   5.252  13.645 -1.1349 -0.1386  2.3426
   8323SM  C14S11060   3.720   5.416  13.763 -0.8140 -0.6538  0.2614
   8323SM  H14S11061   3.615   5.395  13.736 -0.9614  0.5660 -0.1984
   8323SM  H14T11062   3.736   5.526  13.775 -2.2701 -0.4559  0.5555
   8323SM  C15S11063   3.753   5.343  13.892 -0.3398  0.0020  1.0105
   8323SM  H15S11064   3.860   5.341  13.924 -0.0820 -1.3777  0.1362
   8323SM  H15T11065   3.727   5.237  13.870 -1.6258  0.3675  0.6775
   8323SM  C16S11066   3.668   5.378  14.011  0.3355  0.0990 -0.7078
   8323SM  H16S11067   3.582   5.308  14.016  1.0125 -0.7493 -0.9042
   8323SM  H16T11068   3.630   5.482  13.999  0.8196  0.4209  0.4684
   8323SM  C17S11069   3.737   5.365  14.153  0.0740  0.2557  0.4716
   8323SM  H17S11070   3.831   5.425  14.148 -0.7036  1.4462 -0.3007
   8323SM  H17T11071   3.770   5.259  14.165 -1.7072 -0.7661 -2.4758
   8323SM  C18S11072   3.658   5.401  14.280 -0.1883 -0.0513  0.2856
   8323SM  H18S11073   3.727   5.417  14.365  0.6815  2.4621 -0.7945
   8323SM  H18T11074   3.577   5.327  14.299 -0.0565 -0.8796 -2.0335
   8323SM  H18U11075   3.609   5.499  14.264  2.3969  1.2938  0.1321
   8323SM   C1F11076   4.020   4.820  12.492  0.3928 -0.0301 -0.2667
   8323SM    OF11077   4.079   4.923  12.455 -0.0442 -0.2535  0.0922
   8323SM   C2F11078   4.103   4.702  12.530 -0.4028 -0.2952 -0.0132
   8323SM   H2F11079   4.167   4.677  12.444 -1.2346 -0.1118 -0.7018
   8323SM   H2G11080   4.044   4.610  12.550 -3.2743  0.7920 -2.5473
   8323SM   C3F11081   4.200   4.750  12.643 -0.1131 -0.2113  0.5532
   8323SM   H3F11082   4.257   4.837  12.605  0.9557  0.1226  2.8020
   8323SM   H3G11083   4.267   4.665  12.669 -0.0508 -0.4148 -0.2428
   8323SM   C4F11084   4.136   4.790  12.772  0.1329  0.4624  0.7381
   8323SM   H4F11085   4.091   4.692  12.797 -0.3433  0.0215 -1.6683
   8323SM   H4G11086   4.050   4.859  12.761 -0.4731 -0.3383  0.3755
   8323SM   C5F11087   4.223   4.838  12.890  0.5430 -0.0125  0.5250
   8323SM   H5F11088   4.160   4.852  12.980  1.3160  1.0923  0.9038
   8323SM   H5G11089   4.266   4.939  12.874 -0.0036  0.2432  0.6495
   8323SM   C6F11090   4.337   4.750  12.916 -0.7998  0.7811 -0.3695
   8323SM   H6F11091   4.397   4.804  12.994 -0.9713  1.5994 -0.7923
   8323SM   H6G11092   4.410   4.733  12.834 -1.0137  0.3951 -0.4789
   8323SM   C7F11093   4.307   4.605  12.970  0.2143 -0.6873  0.5726
   8323SM   H7F11094   4.401   4.549  12.989  0.8747  0.4671  0.8184
   8323SM   H7G11095   4.258   4.558  12.882  1.0803  1.3327 -1.0573
   8323SM   C8F11096   4.208   4.595  13.085 -0.1815  0.0633  0.0932
   8323SM   H8F11097   4.185   4.489  13.106  0.9530 -0.3725 -0.7994
   8323SM   H8G11098   4.111   4.641  13.055 -0.9204 -0.2597  1.8804
   8323SM   C9F11099   4.266   4.663  13.212  0.0996  0.2027 -0.4160
   8323SM   H9F11100   4.297   4.768  13.192 -1.7954  0.9070  0.1683
   8323SM   H9G11101   4.358   4.604  13.233 -0.7671 -1.2551 -0.6004
   8323SM  C10F11102   4.169   4.673  13.334 -0.4063 -1.5397 -0.2707
   8323SM  H10F11103   4.149   4.564  13.347 -0.0145 -1.5723  0.0545
   8323SM  H10G11104   4.083   4.742  13.317 -0.5593 -1.3361  1.1910
   8323SM  C11F11105   4.241   4.723  13.458 -0.4283  0.4287  0.6604
   8323SM  H11F11106   4.283   4.826  13.450  2.2793 -0.6825 -1.1208
   8323SM  H11G11107   4.334   4.662  13.461 -1.1248 -0.7149 -0.1566
   8323SM  C12F11108   4.155   4.708  13.585  0.0437  0.8896 -0.8146
   8323SM  H12F11109   4.099   4.614  13.569 -0.1207  0.5028  1.6001
   8323SM  H12G11110   4.092   4.800  13.585 -1.0152  0.1775 -0.6563
   8323SM  C13F11111   4.224   4.700  13.718 -0.0406  0.3660 -0.4597
   8323SM  H13F11112   4.290   4.787  13.737  0.2841 -0.5235  3.2984
   8323SM  H13G11113   4.291   4.614  13.739  0.1681  1.2313  3.1183
   8323SM  C14F11114   4.118   4.707  13.831  0.0222 -0.0290  0.1675
   8323SM  H14F11115   4.043   4.631  13.802  0.0856  0.3680 -1.0890
   8323SM  H14G11116   4.057   4.800  13.842 -1.3011 -0.7065 -1.1920
   8323SM  C15F11117   4.192   4.685  13.967 -0.3934 -1.0431  0.6636
   8323SM  H15F11118   4.223   4.785  14.006  0.7011 -0.3163 -1.7904
   8323SM  H15G11119   4.288   4.635  13.939 -1.1045 -0.5403 -3.3869
   8323SM  C16F11120   4.122   4.594  14.068 -0.1453 -0.6948  0.3610
   8323SM  H16F11121   4.017   4.627  14.085 -0.0212 -0.2958  0.3527
   8323SM  H16G11122   4.183   4.592  14.161 -0.0113 -2.1431  0.2710
   8323SM  C17F11123   4.129   4.448  14.021 -0.0648  0.1346  0.0919
   8323SM  H17F11124   4.238   4.426  14.016  0.4413  2.5456 -0.4906
   8323SM  H17G11125   4.087   4.449  13.918  2.0079 -0.0866 -0.7984
   8323SM  C18F11126   4.068   4.352  14.118  0.5705 -0.6561 -0.2241
   8323SM  H18F11127   3.960   4.376  14.131  0.6691  0.0382 -0.6413
   8323SM  H18G11128   4.100   4.365  14.224 -2.2693 -0.0321  0.6521
   8323SM  C19F11129   4.066   4.202  14.079 -0.5340  0.4998 -0.0712
   8323SM  H19F11130   4.008   4.149  14.157  0.4586 -0.0101  0.3382
   8323SM  H19G11131   4.165   4.152  14.070 -0.7244  0.4314 -3.1736
   8323SM  C20F11132   3.993   4.167  13.946  0.7997  0.4166  0.4938
   8323SM  H20F11133   4.037   4.241  13.876  1.2760  0.0302  0.3811
   8323SM  H20G11134   3.886   4.199  13.948  0.7760  0.3310  0.5827
   8323SM  C21F11135   4.024   4.028  13.889  0.1447  0.3728 -0.3272
   8323SM  H21F11136   3.995   3.949  13.961  0.0922  1.7001  1.1508
   8323SM  H21G11137   4.134   4.019  13.879  0.1314  0.9058 -1.0589
   8323SM  C22F11138   3.962   4.003  13.751 -0.5718  0.0090 -0.0558
   8323SM  H22F11139   4.012   4.075  13.683  1.1026 -0.4705  0.6047
   8323SM  H22G11140   3.854   4.030  13.750 -0.4562  0.5473 -1.8511
   8323SM  C23F11141   3.976   3.860  13.696 -0.2077  0.8316  0.3251
   8323SM  H23F11142   3.914   3.843  13.606  2.9694 -1.8548 -1.5647
   8323SM  H23G11143   3.927   3.790  13.767  1.7946 -1.5229 -0.4958
   8323SM  H23H11144   4.077   3.827  13.666 -0.3482  0.4148  0.3046
   8423SM     N11145   3.647   3.725  11.756 -0.4425  0.0055  0.6857
   8423SM   C1511146   3.509   3.669  11.768 -0.8809  0.0142 -0.0594
   8423SM  H15A11147   3.484   3.652  11.664  0.8594  0.0005 -0.5051
   8423SM  H15B11148   3.439   3.733  11.819 -0.0014  0.2227  0.9252
   8423SM  H15C11149   3.524   3.577  11.821  1.7820 -0.4807 -1.4853
   8423SM   C1411150   3.733   3.641  11.662 -0.1445 -0.2165  0.0641
   8423SM  H14A11151   3.826   3.692  11.642 -0.6960  0.7969  0.0135
   8423SM  H14B11152   3.688   3.636  11.564  1.3192 -2.2042 -0.5697
   8423SM  H14C11153   3.747   3.541  11.699 -1.6489  0.0342  1.4228
   8423SM   C1311154   3.637   3.863  11.690  0.4652  0.5155 -0.3723
   8423SM  H13A11155   3.541   3.905  11.714  0.5657  0.1095  0.8326
   8423SM  H13B11156   3.652   3.867  11.583 -1.9108 -3.2220 -1.0196
   8423SM  H13C11157   3.711   3.930  11.733 -0.0600  1.4998 -0.9665
   8423SM   C1211158   3.719   3.727  11.890 -0.3748 -0.7367 -0.2889
   8423SM  H12A11159   3.668   3.801  11.950  2.4054  0.3072  0.9513
   8423SM  H12B11160   3.820   3.763  11.880 -1.1556  0.9638 -3.1071
   8423SM   C1111161   3.740   3.599  11.970 -0.0360  0.0490 -0.2094
   8423SM  H11A11162   3.643   3.559  12.005 -0.0578 -0.9408 -1.3631
   8423SM  H11B11163   3.792   3.642  12.059  0.3384 -0.6917 -0.0588
   8423SM     P11164   3.954   3.451  11.913 -0.1400  0.1473 -0.1172
   8423SM   O1311165   3.979   3.312  11.865  0.1258  0.7323 -0.2403
   8423SM   O1411166   4.047   3.554  11.863 -0.2969 -0.2648 -0.1588
   8423SM   O1111167   3.966   3.451  12.067  1.0279 -0.3734  0.3984
   8423SM   O1211168   3.806   3.499  11.895  0.4421 -0.2993  0.7566
   8423SM   C1S11169   4.040   3.347  12.138 -0.5313  0.5971 -0.2617
   8423SM   H1S11170   4.146   3.345  12.105  0.0175 -2.9848  1.2402
   8423SM   H1T11171   4.005   3.243  12.126  2.4225 -0.2767 -2.3380
   8423SM    NF11172   4.090   3.263  12.355  0.1145  0.6143  0.0923
   8423SM   HNF11173   4.035   3.220  12.426  1.2800  0.5563  0.9944
   8423SM   C2S11174   4.041   3.383  12.286 -0.2251  0.8129  0.4717
   8423SM   H2S11175   4.109   3.467  12.314  0.2345  0.7931 -0.5309
   8423SM   C3S11176   3.908   3.424  12.344  0.3975 -0.4033 -0.2690
   8423SM   H3S11177   3.843   3.339  12.314  0.2152  0.0989 -1.3738
   8423SM    O311178   3.841   3.535  12.284  0.1264 -0.0184  0.5246
   8423SM   HO311179   3.895   3.552  12.207  0.0651  1.2890  0.7460
   8423SM   C4S11180   3.912   3.446  12.500  0.0462  0.1218 -0.7436
   8423SM   H4S11181   3.983   3.528  12.518  1.5186 -1.2141 -0.0744
   8423SM   C5S11182   3.835   3.403  12.603  0.0495 -0.2207  1.2208
   8423SM   H5S11183   3.742   3.348  12.579 -0.8819  1.7006  0.1329
   8423SM   C6S11184   3.835   3.445  12.750  0.3001  0.3625 -0.2925
   8423SM   H6S11185   3.896   3.372  12.808  2.4555  2.4637  0.2300
   8423SM   H6T11186   3.734   3.436  12.796  0.3657  2.8699  0.5211
   8423SM   C7S11187   3.897   3.586  12.769 -0.4741  0.1244  1.1880
   8423SM   H7S11188   3.843   3.664  12.710  0.2282  1.3847  2.1606
   8423SM   H7T11189   4.004   3.591  12.741 -1.0286 -0.1964 -1.2217
   8423SM   C8S11190   3.886   3.639  12.911  0.1812  0.9436 -1.0354
   8423SM   H8S11191   3.977   3.620  12.972 -0.4170  0.6233 -0.2182
   8423SM   H8T11192   3.804   3.595  12.972  1.8829  1.4311  1.7917
   8423SM   C9S11193   3.876   3.791  12.917 -1.2543  0.0599  0.3166
   8423SM   H9S11194   3.779   3.825  12.876 -0.5162  0.9441 -0.7657
   8423SM   H9T11195   3.949   3.840  12.848 -3.0559  2.0409 -0.2997
   8423SM  C10S11196   3.894   3.834  13.063  0.4223 -0.5861 -0.1156
   8423SM  H10S11197   3.989   3.794  13.105  0.6150  0.4118  0.4170
   8423SM  H10T11198   3.799   3.810  13.116  0.5137 -0.2866  0.1852
   8423SM  C11S11199   3.906   3.985  13.050 -0.2920 -0.3365 -0.0415
   8423SM  H11S11200   3.829   4.018  12.978 -1.4966 -0.8162  1.0014
   8423SM  H11T11201   4.007   3.994  13.003 -0.9845  2.3410 -1.1936
   8423SM  C12S11202   3.882   4.061  13.179 -0.1399  0.6541 -0.4690
   8423SM  H12S11203   3.781   4.032  13.216 -0.7782 -2.3971 -4.0730
   8423SM  H12T11204   3.874   4.168  13.150  0.2572  0.9989  0.6289
   8423SM  C13S11205   3.992   4.054  13.280  0.2345 -0.0088  0.0879
   8423SM  H13S11206   4.091   4.082  13.237 -0.1308  1.5898  0.2004
   8423SM  H13T11207   3.999   3.945  13.300  0.5382 -0.1099 -0.5340
   8423SM  C14S11208   3.971   4.138  13.407 -0.3835 -0.4337  0.2405
   8423SM  H14S11209   4.059   4.139  13.476  1.3516 -3.0390 -1.7407
   8423SM  H14T11210   3.896   4.091  13.474 -1.4034 -1.5578 -1.6327
   8423SM  C15S11211   3.910   4.278  13.382 -0.1938 -0.2115 -0.2718
   8423SM  H15S11212   3.806   4.270  13.343 -0.6947  0.4494  0.8768
   8423SM  H15T11213   3.959   4.334  13.299 -2.3153 -0.0551 -1.4944
   8423SM  C16S11214   3.906   4.377  13.510 -0.6986  0.4631  0.2976
   8423SM  H16S11215   3.879   4.476  13.469 -0.8869  0.3293  0.0959
   8423SM  H16T11216   4.005   4.372  13.561 -1.3013 -0.1048  1.4598
   8423SM  C17S11217   3.806   4.328  13.626  0.6280  0.0269 -0.4872
   8423SM  H17S11218   3.840   4.227  13.660  1.4969  0.1836 -0.8474
   8423SM  H17T11219   3.704   4.326  13.583  0.2528 -2.0296  0.3509
   8423SM  C18S11220   3.805   4.423  13.751 -0.1588 -0.1413 -0.5462
   8423SM  H18S11221   3.908   4.458  13.771 -0.8550  2.2417 -0.8230
   8423SM  H18T11222   3.764   4.374  13.842 -0.8825 -2.7219 -2.1564
   8423SM  H18U11223   3.757   4.520  13.726  1.9688  1.8648  2.5050
   8423SM   C1F11224   4.218   3.216  12.344  0.1795  0.8734  0.8005
   8423SM    OF11225   4.312   3.286  12.300  0.5969 -1.1858  0.0063
   8423SM   C2F11226   4.240   3.075  12.383 -0.0415  0.4127  0.0812
   8423SM   H2F11227   4.301   3.025  12.304 -1.0380  0.5332 -0.7812
   8423SM   H2G11228   4.139   3.032  12.373 -0.1142 -0.2126  2.7910
   8423SM   C3F11229   4.295   3.062  12.528 -0.1985  0.0416 -0.6634
   8423SM   H3F11230   4.397   3.103  12.546  0.3531 -1.6454  0.1985
   8423SM   H3G11231   4.312   2.957  12.557  0.3797 -0.0073 -1.1557
   8423SM   C4F11232   4.204   3.115  12.635  0.1284  0.1951  0.0885
   8423SM   H4F11233   4.108   3.059  12.635  2.1695 -3.7037  1.6909
   8423SM   H4G11234   4.178   3.221  12.614 -2.5839 -0.4548 -0.1275
   8423SM   C5F11235   4.268   3.103  12.776  0.3321  0.0843  0.1130
   8423SM   H5F11236   4.372   3.143  12.778  0.9408 -0.9505 -3.7478
   8423SM   H5G11237   4.278   2.994  12.796 -0.9307  0.2547  1.8755
   8423SM   C6F11238   4.182   3.167  12.883 -1.2389 -0.4352 -0.4721
   8423SM   H6F11239   4.081   3.121  12.883 -0.0168 -3.3130  0.3340
   8423SM   H6G11240   4.160   3.272  12.855  1.4477  0.3007 -0.0400
   8423SM   C7F11241   4.247   3.170  13.025  0.2725  0.6364 -0.1826
   8423SM   H7F11242   4.338   3.233  13.024  0.9148 -0.1147  2.5298
   8423SM   H7G11243   4.265   3.067  13.065 -0.1935  1.0201  1.0673
   8423SM   C8F11244   4.149   3.218  13.133  0.1129 -0.2760  0.4766
   8423SM   H8F11245   4.053   3.163  13.124  0.1526 -0.2030 -0.6353
   8423SM   H8G11246   4.126   3.325  13.114 -1.5942 -0.8974 -1.3053
   8423SM   C9F11247   4.196   3.196  13.278  0.2259 -0.3648 -0.4870
   8423SM   H9F11248   4.198   3.286  13.343 -2.5419 -0.6937  0.1692
   8423SM   H9G11249   4.297   3.151  13.265 -0.1824 -0.9310 -1.8492
   8423SM  C10F11250   4.105   3.096  13.349 -0.8164 -0.1246  0.5321
   8423SM  H10F11251   4.112   2.995  13.304  1.6022  0.0118  0.5135
   8423SM  H10G11252   3.998   3.126  13.351 -1.2443 -1.6460  1.8023
   8423SM  C11F11253   4.160   3.075  13.495 -0.4076  0.6860 -0.0733
   8423SM  H11F11254   4.147   3.168  13.554  1.6031  1.6081 -0.9804
   8423SM  H11G11255   4.270   3.056  13.492 -0.8192 -1.9324 -0.3900
   8423SM  C12F11256   4.092   2.961  13.576 -0.3571  0.7057  0.0739
   8423SM  H12F11257   4.131   2.871  13.523 -1.8840  0.8273 -1.3541
   8423SM  H12G11258   3.981   2.962  13.564 -0.3569  0.5210  0.0530
   8423SM  C13F11259   4.140   2.949  13.718  0.3344  0.1891 -0.3968
   8423SM  H13F11260   4.251   2.956  13.719  0.3933 -0.0005 -1.9734
   8423SM  H13G11261   4.099   2.851  13.750 -0.5447  0.5120 -0.5088
   8423SM  C14F11262   4.082   3.055  13.814  0.2862  0.8026 -0.6746
   8423SM  H14F11263   3.977   3.063  13.779  0.8736 -0.7392 -3.1011
   8423SM  H14G11264   4.136   3.151  13.797  0.7221  1.0948  1.9896
   8423SM  C15F11265   4.093   3.013  13.960  0.7380 -0.7411 -0.1989
   8423SM  H15F11266   4.036   2.919  13.978 -0.3413 -0.1534 -0.4811
   8423SM  H15G11267   4.029   3.086  14.015  1.6365 -2.2496  3.1485
   8423SM  C16F11268   4.238   3.001  14.012 -0.1078 -0.0755  0.1452
   8423SM  H16F11269   4.239   3.060  14.107 -1.5393  1.4699 -0.7309
   8423SM  H16G11270   4.308   3.039  13.935 -0.2561 -0.2717 -0.0847
   8423SM  C17F11271   4.264   2.847  14.039 -0.2935  0.1278 -0.0616
   8423SM  H17F11272   4.253   2.792  13.943  0.5419 -3.4126  1.6823
   8423SM  H17G11273   4.186   2.813  14.111 -1.0565  1.8509 -0.0167
   8423SM  C18F11274   4.405   2.823  14.102 -0.0126  0.0040 -0.4043
   8423SM  H18F11275   4.406   2.872  14.202 -0.1627  0.2437 -0.5177
   8423SM  H18G11276   4.480   2.874  14.038 -0.5708  0.2118 -0.9114
   8423SM  C19F11277   4.442   2.678  14.131 -0.1515 -0.0856 -0.3833
   8423SM  H19F11278   4.440   2.629  14.031 -0.6755  0.1214 -0.4781
   8423SM  H19G11279   4.358   2.644  14.194  0.2000 -0.2770 -0.0183
   8423SM  C20F11280   4.580   2.666  14.204  0.1056  0.2181 -0.0042
   8423SM  H20F11281   4.647   2.737  14.150 -0.7969  2.1447  1.2661
   8423SM  H20G11282   4.605   2.559  14.190 -0.7938  0.1026 -0.7571
   8423SM  C21F11283   4.568   2.696  14.352 -0.3591 -0.7450 -0.2487
   8423SM  H21F11284   4.501   2.623  14.402 -0.0610 -0.7939  0.0794
   8423SM  H21G11285   4.507   2.788  14.367 -1.3316 -1.5027  0.5284
   8423SM  C22F11286   4.697   2.705  14.429  0.7920  0.8400  0.2089
   8423SM  H22F11287   4.685   2.731  14.537  1.5352  0.8656  0.2886
   8423SM  H22G11288   4.748   2.796  14.392  0.2496  1.1180  0.1250
   8423SM  C23F11289   4.781   2.579  14.426  0.5982  0.9775 -0.3601
   8423SM  H23F11290   4.797   2.537  14.324 -1.8341 -0.4461 -0.2321
   8423SM  H23G11291   4.732   2.502  14.489 -1.2616  0.9447 -1.7547
   8423SM  H23H11292   4.882   2.591  14.471  0.9285  0.1858 -0.8575
   8523SM     N11293   5.884   3.669  11.927 -0.7990 -0.5392 -0.3139
   8523SM   C1511294   6.020   3.696  11.981 -0.7471 -0.1278 -0.5614
   8523SM  H15A11295   6.084   3.730  11.901 -0.0268 -1.1636 -0.4508
   8523SM  H15B11296   6.063   3.619  12.044 -3.4702 -0.9796  0.3876
   8523SM  H15C11297   6.018   3.779  12.051 -3.1637 -0.6542  0.0935
   8523SM   C1411298   5.846   3.791  11.847  0.3095  0.4369 -0.3954
   8523SM  H14A11299   5.928   3.818  11.782  1.5296 -0.4115  0.7421
   8523SM  H14B11300   5.829   3.874  11.915  0.4370  1.4212 -1.5265
   8523SM  H14C11301   5.758   3.765  11.792  0.3175  0.8324 -0.5971
   8523SM   C1311302   5.887   3.563  11.835 -0.0119 -0.1529 -0.2605
   8523SM  H13A11303   5.796   3.562  11.776  0.5934 -2.1611 -1.2311
   8523SM  H13B11304   5.907   3.477  11.897  3.3997  1.1427  0.6657
   8523SM  H13C11305   5.972   3.576  11.770 -0.0495  1.1243 -0.0831
   8523SM   C1211306   5.783   3.638  12.032 -0.2310 -0.5471  0.5823
   8523SM  H12A11307   5.795   3.536  12.064 -1.4884 -0.5481  1.0634
   8523SM  H12B11308   5.685   3.623  11.990  0.1132  0.2423 -0.5619
   8523SM   C1111309   5.768   3.731  12.150 -0.5800  0.4884 -0.8766
   8523SM  H11A11310   5.866   3.737  12.203  0.3037  1.5814 -2.5494
   8523SM  H11B11311   5.687   3.699  12.219 -0.4750  1.6947 -0.1607
   8523SM     P11312   5.589   3.896  12.063  0.5202 -0.2556  0.0350
   8523SM   O1311313   5.594   4.006  11.962  0.6686 -0.2274 -0.0989
   8523SM   O1411314   5.514   3.778  12.019  0.0442 -0.3672  0.4549
   8523SM   O1111315   5.520   3.948  12.201  0.5793 -0.4293  0.0781
   8523SM   O1211316   5.733   3.861  12.105  0.2798  0.3850 -0.8002
   8523SM   C1S11317   5.603   4.004  12.309  0.6315  0.3294  1.0281
   8523SM   H1S11318   5.662   4.092  12.275 -0.8489  1.3074  0.9098
   8523SM   H1T11319   5.678   3.929  12.342  0.2799 -0.1872  0.6800
   8523SM    NF11320   5.579   4.137  12.519 -0.1748 -0.0975  0.2043
   8523SM   HNF11321   5.579   4.103  12.613  0.6940  1.4162  0.7735
   8523SM   C2S11322   5.505   4.057  12.423  0.2461 -0.1106  0.2209
   8523SM   H2S11323   5.429   4.116  12.366 -2.4123 -4.5087 -1.2833
   8523SM   C3S11324   5.419   3.945  12.479 -0.0367  0.1297 -0.3427
   8523SM   H3S11325   5.491   3.875  12.528 -1.2938 -0.7873  0.2418
   8523SM    O311326   5.344   3.863  12.387  0.1736 -0.5432  0.5356
   8523SM   HO311327   5.400   3.874  12.310 -1.6252  0.8900 -0.6495
   8523SM   C4S11328   5.318   4.001  12.570  0.0043 -0.1463  0.1448
   8523SM   H4S11329   5.256   4.084  12.535 -2.6101 -2.7900 -2.0023
   8523SM   C5S11330   5.286   3.959  12.693  0.3424 -0.8908 -0.2507
   8523SM   H5S11331   5.329   3.870  12.741  0.4258 -1.8262 -1.9893
   8523SM   C6S11332   5.188   4.033  12.781 -0.2377 -0.3907  0.3171
   8523SM   H6S11333   5.140   3.958  12.847 -1.6694  0.3346  0.1383
   8523SM   H6T11334   5.107   4.081  12.722 -0.2405 -0.2204  0.4596
   8523SM   C7S11335   5.260   4.131  12.879  0.5048 -0.4142  0.3012
   8523SM   H7S11336   5.333   4.193  12.823 -3.3541  3.4732 -0.9671
   8523SM   H7T11337   5.300   4.076  12.967  1.8329 -1.4220 -0.8925
   8523SM   C8S11338   5.170   4.239  12.923 -0.0567 -0.7177 -0.0852
   8523SM   H8S11339   5.077   4.203  12.972 -0.4217 -1.1041 -1.0301
   8523SM   H8T11340   5.131   4.297  12.837 -0.2683 -0.2993  0.2889
   8523SM   C9S11341   5.242   4.348  13.020 -0.5800  0.4616 -0.0816
   8523SM   H9S11342   5.324   4.401  12.968 -0.0592  0.8909  1.1585
   8523SM   H9T11343   5.283   4.291  13.106 -0.7536  2.2064  1.2114
   8523SM  C10S11344   5.138   4.445  13.081 -0.7362  0.1094  0.4045
   8523SM  H10S11345   5.056   4.381  13.121 -0.2785 -0.3762  0.5686
   8523SM  H10T11346   5.110   4.504  12.991  0.8148  1.6153  0.8616
   8523SM  C11S11347   5.207   4.530  13.196  0.2078  0.0758 -0.6965
   8523SM  H11S11348   5.274   4.605  13.149  0.6680  0.3879  0.4144
   8523SM  H11T11349   5.270   4.462  13.257 -0.4353  1.2384  1.3985
   8523SM  C12S11350   5.112   4.595  13.296  0.0533  0.0811 -0.2460
   8523SM  H12S11351   5.030   4.525  13.322  0.4252  0.4267  2.1098
   8523SM  H12T11352   5.056   4.672  13.239 -0.7660  1.7459  2.6160
   8523SM  C13S11353   5.184   4.644  13.422 -0.7182  0.1724  0.2043
   8523SM  H13S11354   5.144   4.746  13.441 -1.5019 -0.0263 -0.2958
   8523SM  H13T11355   5.294   4.638  13.415 -0.8170 -1.8729 -0.2363
   8523SM  C14S11356   5.139   4.559  13.547  0.0136  0.3545 -0.0471
   8523SM  H14S11357   5.177   4.455  13.549 -1.7644 -0.3121  0.6527
   8523SM  H14T11358   5.028   4.551  13.548 -0.0788  1.4183  1.5522
   8523SM  C15S11359   5.184   4.628  13.676  0.0814  0.7862  0.2159
   8523SM  H15S11360   5.161   4.736  13.687  1.0319  1.0715 -0.4816
   8523SM  H15T11361   5.291   4.604  13.693 -0.3860  0.1229  2.5617
   8523SM  C16S11362   5.119   4.574  13.799  0.6987  1.1529  0.3721
   8523SM  H16S11363   5.154   4.472  13.826 -1.2043 -0.0467 -1.4050
   8523SM  H16T11364   5.011   4.551  13.790  1.2724 -1.9304  0.1583
   8523SM  C17S11365   5.139   4.659  13.921  0.4195 -0.6523 -0.0392
   8523SM  H17S11366   5.244   4.694  13.918  0.3181  0.2072  3.0062
   8523SM  H17T11367   5.140   4.610  14.020 -0.1438  0.4238  0.5194
   8523SM  C18S11368   5.040   4.781  13.925 -0.5544  0.2921 -0.3551
   8523SM  H18S11369   5.070   4.855  14.003  0.8293  1.2972 -1.7858
   8523SM  H18T11370   4.939   4.743  13.951 -0.1055  0.6573  2.2305
   8523SM  H18U11371   5.049   4.838  13.831  2.7364 -1.0775 -1.0154
   8523SM   C1F11372   5.624   4.255  12.480 -0.6016 -0.3699 -0.1464
   8523SM    OF11373   5.615   4.295  12.368  1.1521  0.5013  0.0014
   8523SM   C2F11374   5.689   4.347  12.582  0.4053 -0.4838  0.4145
   8523SM   H2F11375   5.644   4.449  12.572 -1.6195 -1.4783 -1.3298
   8523SM   H2G11376   5.792   4.364  12.546 -0.8470  0.7900 -2.9944
   8523SM   C3F11377   5.692   4.305  12.727 -0.2417  0.5659  0.2598
   8523SM   H3F11378   5.746   4.214  12.760 -0.9666 -0.3247 -0.9395
   8523SM   H3G11379   5.587   4.279  12.753 -0.3792 -0.6271 -1.3585
   8523SM   C4F11380   5.721   4.415  12.826 -0.0285  0.3453 -0.0640
   8523SM   H4F11381   5.672   4.512  12.804 -0.0655  0.2732 -0.3061
   8523SM   H4G11382   5.827   4.447  12.834 -0.3443  1.3147  0.3078
   8523SM   C5F11383   5.672   4.372  12.972  0.5679 -0.1022  0.2409
   8523SM   H5F11384   5.725   4.277  12.996  1.8349  0.7308  0.8514
   8523SM   H5G11385   5.563   4.351  12.976  0.8703 -1.7158  0.7779
   8523SM   C6F11386   5.709   4.478  13.074 -0.5336  0.6441  0.5918
   8523SM   H6F11387   5.659   4.572  13.046  0.6055  0.1460 -3.7624
   8523SM   H6G11388   5.820   4.483  13.070 -0.5119  0.2174  0.5331
   8523SM   C7F11389   5.674   4.436  13.220 -0.6487  0.0014 -0.3910
   8523SM   H7F11390   5.764   4.387  13.263 -0.6279 -0.1382 -0.5937
   8523SM   H7G11391   5.589   4.365  13.227  0.4115 -1.2713 -0.0341
   8523SM   C8F11392   5.645   4.559  13.309 -0.4701  0.2035 -0.1334
   8523SM   H8F11393   5.548   4.600  13.276 -0.5147  0.3880  0.2177
   8523SM   H8G11394   5.729   4.633  13.301  0.7022 -1.2982 -3.4380
   8523SM   C9F11395   5.640   4.514  13.455  0.1083 -0.3397 -0.8587
   8523SM   H9F11396   5.745   4.480  13.468  0.8282  0.5068 -3.6737
   8523SM   H9G11397   5.567   4.434  13.480 -0.6212  0.7155  0.5875
   8523SM  C10F11398   5.606   4.629  13.552  0.3439 -0.0064 -0.3753
   8523SM  H10F11399   5.499   4.660  13.546  0.7945  1.5202 -1.0371
   8523SM  H10G11400   5.648   4.724  13.514 -1.1062  0.4812 -0.8238
   8523SM  C11F11401   5.653   4.601  13.699  0.0891 -0.0247 -0.3293
   8523SM  H11F11402   5.763   4.600  13.685  0.2469 -0.7056  0.8483
   8523SM  H11G11403   5.630   4.502  13.743  0.1654 -0.5714 -1.4986
   8523SM  C12F11404   5.616   4.718  13.798  0.6940 -0.0296  0.4950
   8523SM  H12F11405   5.505   4.709  13.805  0.7069 -1.6849 -0.8308
   8523SM  H12G11406   5.631   4.807  13.733 -2.6012  1.0914  1.0749
   8523SM  C13F11407   5.686   4.721  13.933 -0.9835  0.7094  0.0624
   8523SM  H13F11408   5.790   4.697  13.903 -1.0505  0.9780 -0.4049
   8523SM  H13G11409   5.654   4.634  13.993  0.0818  0.6489  0.5695
   8523SM  C14F11410   5.670   4.846  14.015  0.8373  0.5940 -0.2421
   8523SM  H14F11411   5.569   4.832  14.059  1.6621  0.7503  1.8290
   8523SM  H14G11412   5.674   4.936  13.951 -0.5292  0.4619 -0.5422
   8523SM  C15F11413   5.773   4.844  14.129 -0.2917 -0.2157 -0.2063
   8523SM  H15F11414   5.868   4.868  14.078 -0.0577 -2.2532 -0.8332
   8523SM  H15G11415   5.786   4.744  14.175  1.2056 -0.6152 -1.4198
   8523SM  C16F11416   5.744   4.951  14.233  0.1881  0.4745  0.1554
   8523SM  H16F11417   5.651   4.928  14.289  0.1819  0.1069 -0.0038
   8523SM  H16G11418   5.721   5.043  14.175 -1.9328  0.6407  1.1861
   8523SM  C17F11419   5.856   4.970  14.331  0.7312  0.3617  0.4018
   8523SM  H17F11420   5.943   5.005  14.270  0.1238 -0.2639 -0.8610
   8523SM  H17G11421   5.881   4.874  14.380 -1.1133  0.7128  2.1683
   8523SM  C18F11422   5.808   5.073  14.436 -0.0908  0.3071  0.1595
   8523SM  H18F11423   5.710   5.035  14.472  0.3538  0.5601  1.7107
   8523SM  H18G11424   5.791   5.166  14.378  1.2241  0.4738  0.0042
   8523SM  C19F11425   5.910   5.095  14.544 -0.1665 -0.0515  0.5212
   8523SM  H19F11426   6.005   5.108  14.488 -1.3756  0.3250 -1.5476
   8523SM  H19G11427   5.910   5.017  14.623 -1.1181 -0.1494  0.4384
   8523SM  C20F11428   5.879   5.224  14.623  0.0091 -0.0566  0.3523
   8523SM  H20F11429   5.790   5.216  14.688  0.2356 -1.1503  0.5432
   8523SM  H20G11430   5.865   5.312  14.556  3.4930  1.7280  1.6963
   8523SM  C21F11431   6.005   5.281  14.701 -0.7180  0.1103  0.4250
   8523SM  H21F11432   6.090   5.271  14.629 -0.5728 -1.2655  0.7644
   8523SM  H21G11433   6.036   5.221  14.789 -0.3419 -0.5132 -0.1181
   8523SM  C22F11434   5.991   5.420  14.758 -0.4441 -0.6754 -0.0091
   8523SM  H22F11435   5.914   5.436  14.837  0.7394  2.8500  0.6448
   8523SM  H22G11436   5.953   5.480  14.673  1.7904  0.3493 -0.3480
   8523SM  C23F11437   6.124   5.488  14.810 -0.0046 -0.5776 -0.1682
   8523SM  H23F11438   6.173   5.417  14.879  0.0026 -1.7312 -1.3320
   8523SM  H23G11439   6.107   5.579  14.873 -1.4634  0.1317 -1.5040
   8523SM  H23H11440   6.188   5.515  14.724  2.5545 -1.9263  1.1807
   8623SM     N11441   3.566   3.214  12.190 -0.0835  0.4679 -0.0705
   8623SM   C1511442   3.600   3.214  12.338  0.3062 -0.9027 -0.0711
   8623SM  H15A11443   3.696   3.170  12.362  0.7555 -0.3671 -0.8397
   8623SM  H15B11444   3.514   3.181  12.393  0.0292  0.9447  0.6703
   8623SM  H15C11445   3.615   3.317  12.366  1.9411 -1.4512  1.2710
   8623SM   C1411446   3.469   3.321  12.154  0.3407 -0.3005 -0.3641
   8623SM  H14A11447   3.455   3.320  12.047  2.6946 -1.5299 -0.7427
   8623SM  H14B11448   3.515   3.416  12.177 -1.7386  0.5086  0.7824
   8623SM  H14C11449   3.386   3.327  12.223  1.5155  1.3182  1.0038
   8623SM   C1311450   3.692   3.244  12.119 -0.2491 -0.2231 -0.0667
   8623SM  H13A11451   3.683   3.239  12.011 -0.4415  0.6861 -0.1078
   8623SM  H13B11452   3.762   3.170  12.155 -0.8401 -0.4040  0.7303
   8623SM  H13C11453   3.726   3.343  12.144  0.9029 -0.5976 -0.1042
   8623SM   C1211454   3.506   3.076  12.157  0.3733  0.3652 -0.0948
   8623SM  H12A11455   3.561   2.998  12.207  1.0650  0.4728 -0.6786
   8623SM  H12B11456   3.516   3.068  12.050  1.9039  0.9090 -0.0126
   8623SM   C1111457   3.358   3.053  12.190 -0.2920 -0.5414  0.0142
   8623SM  H11A11458   3.331   2.954  12.147  0.2876 -0.7169  0.0531
   8623SM  H11B11459   3.297   3.133  12.143  1.0207 -0.2799 -1.3057
   8623SM     P11460   3.367   2.928  12.416 -0.3503  0.2912  0.1481
   8623SM   O1311461   3.245   2.855  12.455  0.8023 -0.0594  0.2568
   8623SM   O1411462   3.473   2.844  12.348 -0.2818  0.2339  0.0318
   8623SM   O1111463   3.422   2.993  12.545  0.3183 -0.4155  0.1126
   8623SM   O1211464   3.331   3.055  12.330  0.0116  0.4117  0.0374
   8623SM   C1S11465   3.343   3.090  12.624  0.3391  0.1492  0.2933
   8623SM   H1S11466   3.238   3.052  12.629  0.6717 -0.8827 -0.2949
   8623SM   H1T11467   3.349   3.192  12.582 -0.5542  0.1803  0.2260
   8623SM    NF11468   3.319   3.192  12.844 -0.1028 -0.5185 -0.0159
   8623SM   HNF11469   3.330   3.290  12.828 -1.0509 -0.6394 -1.6163
   8623SM   C2S11470   3.399   3.103  12.766 -0.7385  0.4183 -0.2981
   8623SM   H2S11471   3.392   2.999  12.804  0.7995  0.8600  1.3344
   8623SM   C3S11472   3.548   3.150  12.762  0.1884 -0.1083 -1.2469
   8623SM   H3S11473   3.557   3.248  12.710 -1.9676 -1.1551 -3.8689
   8623SM    O311474   3.641   3.063  12.687  0.6789 -0.2337  0.0789
   8623SM   HO311475   3.586   3.016  12.623  1.7592 -0.0559 -1.0104
   8623SM   C4S11476   3.601   3.169  12.901  0.0679  0.3392  0.2923
   8623SM   H4S11477   3.570   3.267  12.939  1.4247  0.5762  0.8622
   8623SM   C5S11478   3.659   3.084  12.985 -0.0944 -0.2440  0.0211
   8623SM   H5S11479   3.672   2.981  12.950 -0.8441  0.2143 -1.7118
   8623SM   C6S11480   3.703   3.113  13.130  0.0782  0.2533 -0.3883
   8623SM   H6S11481   3.814   3.114  13.126  0.0845 -0.3056 -0.3455
   8623SM   H6T11482   3.689   3.019  13.187 -0.7765  0.2662 -0.5603
   8623SM   C7S11483   3.640   3.237  13.203  0.1867  0.0488 -0.2648
   8623SM   H7S11484   3.530   3.221  13.209  0.1925  0.0599 -0.1344
   8623SM   H7T11485   3.654   3.332  13.148 -0.0793 -0.4094 -1.1533
   8623SM   C8S11486   3.689   3.251  13.350  0.0827 -0.0277  0.4530
   8623SM   H8S11487   3.719   3.146  13.372 -0.1027 -0.1501  0.1272
   8623SM   H8T11488   3.609   3.286  13.418  0.0755  1.5236 -0.3185
   8623SM   C9S11489   3.811   3.351  13.353 -0.7240  0.3842 -0.1635
   8623SM   H9S11490   3.762   3.445  13.321 -1.2759  0.0149 -0.4302
   8623SM   H9T11491   3.885   3.311  13.281  2.1973  1.1680  2.1707
   8623SM  C10S11492   3.871   3.353  13.494  0.4469 -0.1364  0.1174
   8623SM  H10S11493   3.918   3.254  13.514  1.1399  0.1330 -0.1430
   8623SM  H10T11494   3.786   3.349  13.566  0.0797 -2.8646 -0.3535
   8623SM  C11S11495   3.976   3.465  13.531 -0.4887  0.3675 -0.3595
   8623SM  H11S11496   3.928   3.565  13.517  2.6228  2.1058  0.5080
   8623SM  H11T11497   4.063   3.460  13.462 -1.5998  0.5871 -1.8251
   8623SM  C12S11498   4.033   3.455  13.673  0.5584  0.0612 -0.3221
   8623SM  H12S11499   4.108   3.535  13.694 -0.3105  0.6840  0.4808
   8623SM  H12T11500   4.097   3.364  13.672 -0.3256 -0.5638 -0.7914
   8623SM  C13S11501   3.937   3.461  13.791  0.6752 -0.2658 -0.4348
   8623SM  H13S11502   3.883   3.363  13.790  0.9955 -0.4531  0.1890
   8623SM  H13T11503   3.870   3.547  13.771  1.6539  0.7321  0.5246
   8623SM  C14S11504   3.996   3.470  13.931 -0.2755 -0.2232  0.9013
   8623SM  H14S11505   4.078   3.544  13.916  0.8673 -1.7434 -0.6329
   8623SM  H14T11506   4.046   3.373  13.949 -0.1644 -0.1881  0.7874
   8623SM  C15S11507   3.897   3.504  14.043  0.2346 -0.2153  0.0804
   8623SM  H15S11508   3.815   3.429  14.046 -0.1037  0.1286 -0.4544
   8623SM  H15T11509   3.847   3.600  14.020  2.2619  0.5596 -1.3506
   8623SM  C16S11510   3.966   3.522  14.181 -0.0589  0.3920 -0.5919
   8623SM  H16S11511   4.062   3.579  14.178 -0.2907  0.7537 -1.3783
   8623SM  H16T11512   3.991   3.422  14.223 -3.7123  0.4783  2.1911
   8623SM  C17S11513   3.874   3.582  14.290 -0.0819  0.5472 -0.1958
   8623SM  H17S11514   3.818   3.502  14.343 -1.9960  0.6436 -1.9073
   8623SM  H17T11515   3.797   3.647  14.241 -2.2501  0.0488  2.3234
   8623SM  C18S11516   3.941   3.667  14.407 -0.1805 -0.0222 -0.0443
   8623SM  H18S11517   3.971   3.766  14.368 -0.2145  0.2735  0.6804
   8623SM  H18T11518   4.026   3.607  14.446 -0.6972 -0.9767 -0.3287
   8623SM  H18U11519   3.865   3.676  14.488  1.3911  0.7636  1.3994
   8623SM   C1F11520   3.201   3.152  12.892 -0.2359 -0.2132 -0.1779
   8623SM    OF11521   3.179   3.033  12.895  0.2648 -0.5756 -0.0445
   8623SM   C2F11522   3.106   3.253  12.936  0.1182  0.5707 -0.2169
   8623SM   H2F11523   3.007   3.218  12.900  1.2237  0.3057 -3.2752
   8623SM   H2G11524   3.128   3.351  12.888  0.3637  0.4382 -0.3734
   8623SM   C3F11525   3.093   3.271  13.087 -0.4652  0.2484 -0.4466
   8623SM   H3F11526   3.042   3.183  13.131  2.0116 -1.7395 -1.3414
   8623SM   H3G11527   3.025   3.359  13.096 -0.2808  0.3188  0.3668
   8623SM   C4F11528   3.223   3.295  13.167 -0.7839  0.0318 -0.5685
   8623SM   H4F11529   3.281   3.363  13.101  0.0470 -1.0836 -1.0163
   8623SM   H4G11530   3.277   3.199  13.177 -0.7368  0.1367  0.3353
   8623SM   C5F11531   3.211   3.354  13.307  0.3815  0.0312 -0.4658
   8623SM   H5F11532   3.126   3.301  13.355 -0.9147  1.7652 -0.7263
   8623SM   H5G11533   3.182   3.460  13.291  1.6410  0.5775  0.6713
   8623SM   C6F11534   3.335   3.365  13.398 -0.3057 -0.1426  0.1381
   8623SM   H6F11535   3.403   3.426  13.334 -2.5999  2.2864 -0.1601
   8623SM   H6G11536   3.382   3.267  13.421 -0.3368 -0.0750  0.4921
   8623SM   C7F11537   3.310   3.431  13.536  0.0696  0.2842 -0.4288
   8623SM   H7F11538   3.216   3.389  13.578 -0.0099  1.1643  0.2984
   8623SM   H7G11539   3.311   3.540  13.518  1.0199  0.6847  1.7206
   8623SM   C8F11540   3.427   3.408  13.639  0.2470 -0.5744 -0.4341
   8623SM   H8F11541   3.514   3.415  13.571  1.3513  0.6276  1.0238
   8623SM   H8G11542   3.423   3.313  13.696 -0.0643  1.1187  2.5787
   8623SM   C9F11543   3.421   3.529  13.741  0.0396  0.4656  0.0069
   8623SM   H9F11544   3.330   3.521  13.804 -0.0805 -0.1337 -0.2404
   8623SM   H9G11545   3.415   3.622  13.679 -3.8398 -1.0207 -2.2248
   8623SM  C10F11546   3.544   3.529  13.822 -0.1173 -0.3366 -0.5731
   8623SM  H10F11547   3.628   3.560  13.757 -0.9311 -0.3790 -1.6875
   8623SM  H10G11548   3.559   3.422  13.849  0.1061 -0.7354 -2.1467
   8623SM  C11F11549   3.523   3.612  13.949  0.2830  0.0238  0.2482
   8623SM  H11F11550   3.487   3.711  13.914 -0.6519 -1.2117 -2.5693
   8623SM  H11G11551   3.620   3.622  14.001  0.7757  0.3343 -0.7118
   8623SM  C12F11552   3.410   3.547  14.035 -0.1790  0.1928  0.3861
   8623SM  H12F11553   3.439   3.441  14.047 -1.6926 -0.4520 -1.2590
   8623SM  H12G11554   3.313   3.556  13.982  0.6590  2.7549 -0.9368
   8623SM  C13F11555   3.375   3.616  14.163 -0.7998  0.2708  0.3654
   8623SM  H13F11556   3.334   3.718  14.143 -2.7713 -0.8332 -1.6725
   8623SM  H13G11557   3.472   3.629  14.216  0.4825 -1.5392 -1.3840
   8623SM  C14F11558   3.271   3.551  14.257 -0.1963  0.8252  0.5286
   8623SM  H14F11559   3.305   3.445  14.259 -0.1297  0.7845 -1.3612
   8623SM  H14G11560   3.174   3.557  14.205  0.5227 -2.2448 -1.4583
   8623SM  C15F11561   3.268   3.620  14.398  0.0815  0.7777 -0.7590
   8623SM  H15F11562   3.262   3.729  14.380 -1.1764  0.6686 -1.1227
   8623SM  H15G11563   3.371   3.611  14.438  0.9051  0.7019 -2.8162
   8623SM  C16F11564   3.166   3.557  14.492  0.2318  0.3746 -0.3833
   8623SM  H16F11565   3.164   3.447  14.482 -0.5305  0.3363  0.0893
   8623SM  H16G11566   3.066   3.594  14.458 -1.1681 -0.0880  2.8397
   8623SM  C17F11567   3.184   3.585  14.641  0.2855 -0.3220  0.0625
   8623SM  H17F11568   3.204   3.692  14.663  2.4036 -0.9670  1.6647
   8623SM  H17G11569   3.283   3.539  14.664 -0.8416 -1.4260  3.3095
   8623SM  C18F11570   3.080   3.522  14.733 -0.3286  0.2997 -0.3089
   8623SM  H18F11571   3.061   3.415  14.710 -1.4063  0.6751 -1.3048
   8623SM  H18G11572   2.980   3.568  14.716 -0.3950  0.4789  0.5398
   8623SM  C19F11573   3.111   3.548  14.880 -0.0621 -0.2060 -0.4610
   8623SM  H19F11574   3.104   3.656  14.904  0.2706 -0.4504  0.7882
   8623SM  H19G11575   3.218   3.522  14.898 -0.6568 -1.7233  1.2835
   8623SM  C20F11576   3.011   3.471  14.966 -0.1670  1.0874  0.1869
   8623SM  H20F11577   3.027   3.361  14.961  4.4921  1.4984  0.9907
   8623SM  H20G11578   2.911   3.484  14.919  0.5139 -1.1998 -2.1321
   8623SM  C21F11579   3.021   3.504  15.118  0.2244 -0.0974  0.5313
   8623SM  H21F11580   3.005   3.613  15.132 -1.1912 -0.1914 -0.1477
   8623SM  H21G11581   3.126   3.486  15.151  0.8619  2.1658 -0.0788
   8623SM  C22F11582   2.932   3.417  15.212  0.5351  0.3735 -0.4475
   8623SM  H22F11583   2.829   3.416  15.171  0.2828 -2.1287  0.0879
   8623SM  H22G11584   2.939   3.483  15.302  0.3819  1.5630 -1.2818
   8623SM  C23F11585   2.970   3.278  15.254 -0.0614  0.1209 -0.5118
   8623SM  H23F11586   2.887   3.229  15.309  0.0193  1.1362  0.5432
   8623SM  H23G11587   3.065   3.282  15.312 -1.1401 -2.3148  1.6634
   8623SM  H23H11588   2.986   3.209  15.169 -2.0733  0.9867 -1.6557
   8723SM     N11589   5.140   1.784  11.753  0.0802  0.3418 -0.6548
   8723SM   C1511590   5.192   1.697  11.647 -0.0744  0.4532 -0.0816
   8723SM  H15A11591   5.188   1.592  11.673 -0.4266  0.3314 -0.5830
   8723SM  H15B11592   5.296   1.700  11.619  0.0101 -1.5105 -0.1438
   8723SM  H15C11593   5.151   1.703  11.547 -1.4989 -0.8029  0.3888
   8723SM   C1411594   5.226   1.758  11.872 -0.2100  0.5834 -0.0501
   8723SM  H14A11595   5.174   1.793  11.960 -0.6900  0.8738 -0.4457
   8723SM  H14B11596   5.320   1.809  11.860  0.8724 -1.2970 -0.0566
   8723SM  H14C11597   5.234   1.652  11.890 -0.7187  0.9285  2.6163
   8723SM   C1311598   5.176   1.926  11.707  0.6602  0.4963  0.1369
   8723SM  H13A11599   5.281   1.946  11.719  0.6780  1.1733 -0.9965
   8723SM  H13B11600   5.118   2.003  11.756 -0.4829  0.2303 -0.7506
   8723SM  H13C11601   5.159   1.947  11.602 -1.4652  2.7816  0.8199
   8723SM   C1211602   4.995   1.755  11.784  0.4391 -0.1543 -0.2943
   8723SM  H12A11603   4.993   1.648  11.797  1.7538 -0.0695  0.7982
   8723SM  H12B11604   4.940   1.788  11.697 -3.1580 -1.3236  1.3264
   8723SM   C1111605   4.939   1.832  11.904 -0.4900  0.1200 -0.2420
   8723SM  H11A11606   5.000   1.797  11.990  0.0638  1.7254  0.0625
   8723SM  H11B11607   4.836   1.796  11.920 -0.1715 -0.5734  0.2990
   8723SM     P11608   4.865   2.065  11.817  0.1463  0.3466 -0.1720
   8723SM   O1311609   4.955   2.155  11.736 -0.3495  0.2479 -0.3320
   8723SM   O1411610   4.754   2.000  11.750 -0.1104 -0.1949 -0.0689
   8723SM   O1111611   4.796   2.164  11.922 -0.6309 -0.3202  0.2553
   8723SM   O1211612   4.956   1.974  11.907  0.1900  0.5879 -0.1478
   8723SM   C1S11613   4.712   2.103  12.018 -0.4125  1.0784  0.1122
   8723SM   H1S11614   4.756   2.013  12.065 -1.3638  0.1636 -0.6790
   8723SM   H1T11615   4.615   2.078  11.970 -1.4616  0.7251  2.2870
   8723SM    NF11616   4.629   2.138  12.261 -0.4703 -0.6523 -0.0799
   8723SM   HNF11617   4.535   2.169  12.276 -0.5514  0.2899 -2.1754
   8723SM   C2S11618   4.691   2.198  12.143 -0.2361 -0.2900 -0.2494
   8723SM   H2S11619   4.789   2.241  12.174 -0.5498 -1.2979  2.4449
   8723SM   C3S11620   4.606   2.321  12.106  0.1660 -1.1568 -0.3471
   8723SM   H3S11621   4.505   2.282  12.082 -1.3004  2.2969 -0.4363
   8723SM    O311622   4.644   2.379  11.979  0.2664 -0.8143 -0.3341
   8723SM   HO311623   4.699   2.315  11.934 -0.0221  0.1395 -2.1478
   8723SM   C4S11624   4.605   2.431  12.219  0.4008 -0.2146 -0.3470
   8723SM   H4S11625   4.502   2.438  12.258 -0.7694 -2.8641 -2.5540
   8723SM   C5S11626   4.688   2.532  12.241 -0.5742  0.0991 -0.3109
   8723SM   H5S11627   4.777   2.522  12.177 -1.5955 -0.2846 -1.7264
   8723SM   C6S11628   4.681   2.645  12.343  0.4989  0.7252 -0.0054
   8723SM   H6S11629   4.661   2.739  12.286  0.2986 -0.1206 -1.3908
   8723SM   H6T11630   4.779   2.662  12.393  0.5680  0.8513 -0.1796
   8723SM   C7S11631   4.561   2.627  12.445  0.1588  0.3784  0.0723
   8723SM   H7S11632   4.561   2.521  12.477 -1.6506  0.7213  1.3805
   8723SM   H7T11633   4.463   2.648  12.396  0.8978  1.2885 -1.0690
   8723SM   C8S11634   4.574   2.720  12.564 -0.7281 -0.6656 -0.4488
   8723SM   H8S11635   4.582   2.822  12.520 -1.5150  0.0256  0.9222
   8723SM   H8T11636   4.673   2.696  12.608 -0.1297 -0.1796 -1.4951
   8723SM   C9S11637   4.468   2.704  12.665  1.1826 -0.4446 -0.0561
   8723SM   H9S11638   4.457   2.594  12.674  1.6577 -0.5961 -1.1490
   8723SM   H9T11639   4.370   2.738  12.625 -0.5315 -1.4351  2.9462
   8723SM  C10S11640   4.491   2.760  12.804 -1.0154 -0.5087 -0.1914
   8723SM  H10S11641   4.504   2.870  12.806 -2.2349 -0.3584  0.0733
   8723SM  H10T11642   4.590   2.718  12.834 -1.6256 -0.4169  2.1342
   8723SM  C11S11643   4.380   2.716  12.899  0.0373  0.0336 -0.5945
   8723SM  H11S11644   4.387   2.605  12.911 -0.1558  0.1498  0.8249
   8723SM  H11T11645   4.283   2.744  12.853  0.0278 -1.0514 -1.2878
   8723SM  C12S11646   4.413   2.775  13.036  0.5966 -0.6193  0.2424
   8723SM  H12S11647   4.409   2.886  13.026  1.5503 -0.5402  0.5934
   8723SM  H12T11648   4.511   2.743  13.078 -0.3354 -2.7825  0.8706
   8723SM  C13S11649   4.318   2.715  13.139 -0.0752 -0.4745  0.3410
   8723SM  H13S11650   4.319   2.605  13.149 -0.9992 -0.6946 -1.6560
   8723SM  H13T11651   4.213   2.744  13.121  0.2473  0.7454  0.3175
   8723SM  C14S11652   4.327   2.779  13.277  0.2976  0.0844 -0.0164
   8723SM  H14S11653   4.227   2.768  13.325 -0.6826  0.6190 -1.8453
   8723SM  H14T11654   4.334   2.890  13.264  0.8640  0.2019  1.1974
   8723SM  C15S11655   4.448   2.730  13.350 -0.8577  0.7698  0.1232
   8723SM  H15S11656   4.538   2.772  13.300 -0.9115  1.2912  0.4517
   8723SM  H15T11657   4.448   2.619  13.355 -3.4385  0.7382  0.5157
   8723SM  C16S11658   4.459   2.781  13.483 -0.5371 -0.1164 -0.2484
   8723SM  H16S11659   4.362   2.757  13.533  0.6994  1.3641  3.1259
   8723SM  H16T11660   4.483   2.889  13.480  3.0484 -0.6811  2.2796
   8723SM  C17S11661   4.573   2.717  13.568 -0.2468 -0.2851  0.5305
   8723SM  H17S11662   4.670   2.745  13.521 -0.1649  2.2741  2.0299
   8723SM  H17T11663   4.565   2.607  13.563 -0.8961 -0.2254  0.1060
   8723SM  C18S11664   4.597   2.753  13.718  0.0320 -0.3692  0.7030
   8723SM  H18S11665   4.531   2.683  13.773 -2.4550 -0.8619 -2.5388
   8723SM  H18T11666   4.561   2.857  13.738 -1.4058 -0.2153 -2.0710
   8723SM  H18U11667   4.703   2.741  13.746 -0.2258 -0.2646  1.7383
   8723SM   C1F11668   4.693   2.052  12.334 -0.1033  0.6737 -0.0823
   8723SM    OF11669   4.814   2.023  12.316 -0.2642  0.3348  0.2500
   8723SM   C2F11670   4.622   1.974  12.430  0.7777  0.4253  0.1388
   8723SM   H2F11671   4.645   1.866  12.417  1.8939  0.5801  0.7323
   8723SM   H2G11672   4.512   1.982  12.413  0.8536 -0.3555 -0.8143
   8723SM   C3F11673   4.658   2.010  12.579 -0.1603  0.3293  0.9292
   8723SM   H3F11674   4.622   2.114  12.598  0.7572  1.0966 -1.2046
   8723SM   H3G11675   4.768   2.000  12.591 -0.4705 -2.6328  2.1444
   8723SM   C4F11676   4.590   1.922  12.684 -0.1110 -0.8759  0.1485
   8723SM   H4F11677   4.647   1.827  12.695 -1.6703 -1.9182 -0.4122
   8723SM   H4G11678   4.483   1.908  12.659 -0.4074 -0.1419  0.9840
   8723SM   C5F11679   4.601   1.985  12.821  0.3779  0.1332 -0.4786
   8723SM   H5F11680   4.545   2.081  12.825  0.1894  0.0112 -0.0934
   8723SM   H5G11681   4.702   2.023  12.849  0.3394  0.6043 -0.9633
   8723SM   C6F11682   4.560   1.886  12.934  0.4744  1.0251  0.4435
   8723SM   H6F11683   4.631   1.801  12.928  0.2301  0.9155 -1.1283
   8723SM   H6G11684   4.456   1.852  12.912  0.7915 -0.0755  0.5871
   8723SM   C7F11685   4.565   1.930  13.077 -0.3007 -0.0223 -0.0579
   8723SM   H7F11686   4.515   2.029  13.082 -0.6547 -0.1587 -0.7634
   8723SM   H7G11687   4.673   1.942  13.103 -0.1510 -1.7617  0.2195
   8723SM   C8F11688   4.489   1.859  13.188  0.1976  0.3037  0.3879
   8723SM   H8F11689   4.381   1.867  13.161 -0.2066 -1.2433  1.4005
   8723SM   H8G11690   4.500   1.923  13.277  0.5483 -0.2355  0.7386
   8723SM   C9F11691   4.533   1.719  13.227  0.5970  0.1440  0.4268
   8723SM   H9F11692   4.642   1.706  13.212  0.3893 -0.5428 -0.5351
   8723SM   H9G11693   4.490   1.647  13.154 -2.3799  0.9177  1.2985
   8723SM  C10F11694   4.515   1.688  13.376 -0.7143  0.4405  0.3188
   8723SM  H10F11695   4.408   1.696  13.402 -0.2022 -1.6243  3.6291
   8723SM  H10G11696   4.557   1.770  13.437  0.1207 -0.4211  0.9353
   8723SM  C11F11697   4.575   1.556  13.418 -0.2922  0.0617 -0.5680
   8723SM  H11F11698   4.686   1.556  13.408 -0.3794  0.8005 -1.7204
   8723SM  H11G11699   4.525   1.473  13.362 -2.0238  0.4029  0.4099
   8723SM  C12F11700   4.557   1.524  13.568  0.1007  0.3425  0.0441
   8723SM  H12F11701   4.624   1.436  13.580  2.0710  1.7018 -0.4480
   8723SM  H12G11702   4.459   1.493  13.610 -0.5622  0.1004 -1.6187
   8723SM  C13F11703   4.624   1.633  13.658 -0.3742  0.3732 -0.4247
   8723SM  H13F11704   4.551   1.716  13.674 -0.2148  0.1030  2.0514
   8723SM  H13G11705   4.710   1.664  13.596  1.0782 -1.9048  0.3394
   8723SM  C14F11706   4.643   1.584  13.807  0.5339  0.0101 -0.4619
   8723SM  H14F11707   4.680   1.480  13.821  0.2614  0.1772  1.8534
   8723SM  H14G11708   4.540   1.588  13.850  0.6363  2.1979 -0.3226
   8723SM  C15F11709   4.725   1.666  13.897 -0.4156 -0.6252 -0.5347
   8723SM  H15F11710   4.700   1.774  13.902 -0.8335 -0.7626  0.7576
   8723SM  H15G11711   4.831   1.665  13.861 -0.0264 -1.4804  0.5696
   8723SM  C16F11712   4.737   1.619  14.044 -0.0080  0.1987  0.2353
   8723SM  H16F11713   4.817   1.675  14.096  2.9423 -3.5478  0.1086
   8723SM  H16G11714   4.774   1.515  14.043 -0.5733 -0.0387  1.6803
   8723SM  C17F11715   4.606   1.616  14.127 -0.0420  0.4207 -0.2660
   8723SM  H17F11716   4.525   1.576  14.062  0.3115 -0.2119 -0.3164
   8723SM  H17G11717   4.574   1.721  14.144  1.0884  1.0493 -1.7508
   8723SM  C18F11718   4.612   1.540  14.256 -0.5593 -0.1828 -0.0925
   8723SM  H18F11719   4.668   1.444  14.252  0.2972  0.2076  1.5598
   8723SM  H18G11720   4.511   1.508  14.290 -2.2676  0.5975 -3.8964
   8723SM  C19F11721   4.663   1.621  14.377  0.2322  0.1174 -0.0337
   8723SM  H19F11722   4.608   1.718  14.382  0.6121  0.2945  1.0706
   8723SM  H19G11723   4.768   1.655  14.365 -0.8323  3.6392 -0.4376
   8723SM  C20F11724   4.635   1.554  14.519  1.0100  0.4166 -0.0403
   8723SM  H20F11725   4.654   1.445  14.527  0.3148 -0.0557 -3.5252
   8723SM  H20G11726   4.530   1.575  14.548  1.2693  0.2466  1.0598
   8723SM  C21F11727   4.724   1.630  14.623 -0.3423 -0.4747 -0.5644
   8723SM  H21F11728   4.832   1.629  14.600 -0.1656  2.5065 -0.3113
   8723SM  H21G11729   4.721   1.580  14.722 -0.1237 -0.2296 -0.4342
   8723SM  C22F11730   4.689   1.779  14.654  0.0395  0.1130  0.2831
   8723SM  H22F11731   4.676   1.845  14.565  2.2757  0.7137  0.3509
   8723SM  H22G11732   4.779   1.817  14.706  1.8449 -0.9198 -1.9075
   8723SM  C23F11733   4.557   1.788  14.740  0.3326  0.5053 -0.0839
   8723SM  H23F11734   4.520   1.893  14.749 -1.4093 -0.1709  1.2901
   8723SM  H23G11735   4.581   1.743  14.839 -1.5499 -0.9953 -0.2480
   8723SM  H23H11736   4.479   1.728  14.689  1.3873 -0.6909 -0.3334
   8823SM     N11737   2.160   4.011  12.035 -0.3449  0.1895 -0.0749
   8823SM   C1511738   2.282   3.932  11.992  0.5185  0.7475 -0.0079
   8823SM  H15A11739   2.360   3.946  12.065  1.1566 -0.9795 -0.3001
   8823SM  H15B11740   2.317   3.958  11.893 -0.9602  2.1127 -0.2098
   8823SM  H15C11741   2.254   3.829  11.979 -2.0466  1.0242  2.4474
   8823SM   C1411742   2.187   4.158  12.039  0.1109  0.1640 -0.2168
   8823SM  H14A11743   2.093   4.211  12.046  1.0665  2.1536 -1.5396
   8823SM  H14B11744   2.223   4.199  11.945 -1.5876  1.1967 -0.4639
   8823SM  H14C11745   2.240   4.191  12.127 -2.2250  0.7015  1.0481
   8823SM   C1311746   2.062   3.993  11.920  1.0301 -0.5071 -0.1122
   8823SM  H13A11747   2.034   3.890  11.906  0.0797 -0.5147  1.5795
   8823SM  H13B11748   2.101   4.025  11.825 -1.1223 -0.2172 -0.9623
   8823SM  H13C11749   1.977   4.058  11.936  1.5142  0.5456 -1.5988
   8823SM   C1211750   2.101   3.962  12.161  0.3898 -0.1028  0.0587
   8823SM  H12A11751   2.091   3.857  12.141 -3.4714  0.3160 -0.9460
   8823SM  H12B11752   1.999   3.996  12.167 -0.3050 -2.1496  0.4852
   8823SM   C1111753   2.173   3.986  12.301  0.9224 -0.0172 -0.4216
   8823SM  H11A11754   2.113   3.932  12.376  2.4318 -2.8333 -1.0862
   8823SM  H11B11755   2.161   4.094  12.323  1.3287  0.0010 -0.2828
   8823SM     P11756   2.361   3.802  12.349  0.2243  0.3055  0.5053
   8823SM   O1311757   2.265   3.702  12.294 -0.4366  0.5632  0.2925
   8823SM   O1411758   2.509   3.794  12.317 -0.8091  0.2797  0.4351
   8823SM   O1111759   2.344   3.815  12.500  0.2007  0.1134 -0.2445
   8823SM   O1211760   2.312   3.946  12.298 -0.4285  1.0102 -0.1639
   8823SM   C1S11761   2.389   3.705  12.571  0.0629  0.1375 -0.3147
   8823SM   H1S11762   2.488   3.662  12.549  1.0037  0.1053  3.2968
   8823SM   H1T11763   2.328   3.614  12.552 -1.3457  1.1446 -0.8588
   8823SM    NF11764   2.485   3.651  12.795 -0.0589 -0.3660  0.7797
   8823SM   HNF11765   2.463   3.566  12.842  1.4430 -1.4331 -0.3594
   8823SM   C2S11766   2.394   3.740  12.723 -0.2349  0.3725  0.3627
   8823SM   H2S11767   2.431   3.844  12.737  0.4300  0.1805  0.0685
   8823SM   C3S11768   2.251   3.748  12.778  0.3133  0.1651 -0.1723
   8823SM   H3S11769   2.219   3.642  12.793 -1.8754  0.6585 -1.1474
   8823SM    O311770   2.147   3.797  12.687 -0.4336 -0.2972 -0.2363
   8823SM   HO311771   2.194   3.800  12.603  3.1108 -4.2487  1.2318
   8823SM   C4S11772   2.242   3.815  12.904 -0.6251  0.1608  1.0736
   8823SM   H4S11773   2.290   3.752  12.980  2.3479 -0.0338 -0.8010
   8823SM   C5S11774   2.192   3.933  12.946  0.3817 -0.4733  0.2693
   8823SM   H5S11775   2.142   4.002  12.876  1.6342  0.8315  0.6151
   8823SM   C6S11776   2.209   3.977  13.093  0.0431 -0.5014  0.6554
   8823SM   H6S11777   2.272   3.910  13.156 -0.2110 -0.0414  1.4094
   8823SM   H6T11778   2.107   3.990  13.134  0.5184  1.8174  1.2025
   8823SM   C7S11779   2.270   4.120  13.088  0.0938  0.1778  0.2062
   8823SM   H7S11780   2.237   4.180  13.001  1.1046  0.4346 -0.0071
   8823SM   H7T11781   2.378   4.104  13.069  0.2227  1.6111 -0.3522
   8823SM   C8S11782   2.246   4.217  13.206 -0.2584  0.1928  1.0015
   8823SM   H8S11783   2.135   4.228  13.206 -0.4113 -0.8497 -1.0681
   8823SM   H8T11784   2.295   4.315  13.186 -1.2573  0.4662 -0.2286
   8823SM   C9S11785   2.298   4.171  13.341  0.4652  0.5272 -0.0798
   8823SM   H9S11786   2.408   4.159  13.331  0.4587 -0.2206  0.6618
   8823SM   H9T11787   2.255   4.074  13.373 -0.2245  0.6749 -0.5305
   8823SM  C10S11788   2.256   4.275  13.451  0.7113  0.7712  0.3854
   8823SM  H10S11789   2.150   4.299  13.428  0.6301 -0.5354 -0.7305
   8823SM  H10T11790   2.307   4.374  13.445 -0.0360  1.2160  1.2539
   8823SM  C11S11791   2.278   4.215  13.590  0.0349 -0.0613 -0.4690
   8823SM  H11S11792   2.388   4.198  13.589  0.2587  1.2403 -1.8057
   8823SM  H11T11793   2.222   4.119  13.598  0.6747 -0.7178 -3.1055
   8823SM  C12S11794   2.262   4.307  13.710  0.0381  0.3531  0.2172
   8823SM  H12S11795   2.152   4.323  13.714  0.0126 -0.0036  1.0766
   8823SM  H12T11796   2.315   4.401  13.684  2.2807 -0.9806 -0.2828
   8823SM  C13S11797   2.313   4.249  13.843  0.8236 -0.2423  0.0438
   8823SM  H13S11798   2.420   4.218  13.840  1.1019  0.3011  2.5592
   8823SM  H13T11799   2.255   4.155  13.849 -0.0717  0.2963 -0.0030
   8823SM  C14S11800   2.254   4.334  13.965 -0.3652 -0.3053  0.6942
   8823SM  H14S11801   2.144   4.348  13.954 -0.4960 -0.6456  1.4721
   8823SM  H14T11802   2.283   4.441  13.960 -1.7361  0.0351 -1.4028
   8823SM  C15S11803   2.280   4.273  14.106 -0.6361 -0.0596 -0.1231
   8823SM  H15S11804   2.390   4.264  14.122 -0.3969  2.8950  0.4557
   8823SM  H15T11805   2.239   4.170  14.116  1.5073 -0.9671 -0.0692
   8823SM  C16S11806   2.219   4.360  14.221  0.0108 -0.1021  0.6040
   8823SM  H16S11807   2.160   4.293  14.286 -0.2482 -0.5593 -0.0879
   8823SM  H16T11808   2.151   4.435  14.175  1.1201 -0.8871 -2.5649
   8823SM  C17S11809   2.336   4.426  14.297 -0.5155  0.6749  0.3301
   8823SM  H17S11810   2.390   4.491  14.225  2.1861  0.3680  1.9375
   8823SM  H17T11811   2.410   4.346  14.319 -2.3582 -0.3329  3.4325
   8823SM  C18S11812   2.302   4.504  14.415 -0.3455  0.0318 -0.0723
   8823SM  H18S11813   2.245   4.594  14.384  0.8219  0.5805 -0.6860
   8823SM  H18T11814   2.391   4.516  14.480 -0.1227 -1.1286 -0.1449
   8823SM  H18U11815   2.230   4.456  14.485 -2.5650  1.9881 -0.8919
   8823SM   C1F11816   2.615   3.658  12.765 -0.6430  0.7824  0.4537
   8823SM    OF11817   2.667   3.760  12.721  0.3173 -0.3133 -0.3895
   8823SM   C2F11818   2.701   3.538  12.790 -0.4291  0.3192  0.1514
   8823SM   H2F11819   2.790   3.547  12.724  0.1542  0.2149  0.9109
   8823SM   H2G11820   2.647   3.446  12.763 -1.6665  1.6611 -2.2592
   8823SM   C3F11821   2.759   3.542  12.936  0.4228  0.3408  0.1043
   8823SM   H3F11822   2.824   3.630  12.950  0.1794  1.0474 -2.5765
   8823SM   H3G11823   2.821   3.450  12.947 -1.2823 -0.5930  3.2911
   8823SM   C4F11824   2.654   3.516  13.043 -0.6586 -0.5993  0.3486
   8823SM   H4F11825   2.576   3.446  13.006  0.6179 -1.7760 -0.1659
   8823SM   H4G11826   2.592   3.607  13.063 -0.0381 -0.0051 -0.3854
   8823SM   C5F11827   2.701   3.493  13.187  0.3168 -0.6162 -0.4891
   8823SM   H5F11828   2.759   3.399  13.198  2.2536  0.6172  0.3837
   8823SM   H5G11829   2.613   3.470  13.252  0.3596  0.4250 -0.0418
   8823SM   C6F11830   2.768   3.618  13.248  0.4143 -0.1653 -0.5683
   8823SM   H6F11831   2.700   3.705  13.235 -1.1541 -0.7840  2.4596
   8823SM   H6G11832   2.860   3.637  13.189 -0.4989  0.3634 -1.8691
   8823SM   C7F11833   2.796   3.608  13.401  0.6267 -0.2066  0.0116
   8823SM   H7F11834   2.882   3.672  13.431 -0.8699  2.3157 -0.7998
   8823SM   H7G11835   2.832   3.506  13.428 -1.4280 -1.4070 -1.4557
   8823SM   C8F11836   2.673   3.630  13.488 -0.8814  0.1157  0.1156
   8823SM   H8F11837   2.622   3.532  13.488 -1.4398  0.3960 -1.0617
   8823SM   H8G11838   2.612   3.704  13.433  0.1503  1.2057  0.3876
   8823SM   C9F11839   2.704   3.674  13.628 -0.3295  0.0334  0.1404
   8823SM   H9F11840   2.764   3.768  13.624 -1.4309  0.9181  2.6011
   8823SM   H9G11841   2.750   3.592  13.688 -1.3662 -0.0057  0.9044
   8823SM  C10F11842   2.579   3.725  13.702 -0.2589  0.4602 -0.0395
   8823SM  H10F11843   2.508   3.642  13.719 -1.3344  1.5887  1.1391
   8823SM  H10G11844   2.526   3.806  13.648  0.4743  0.2809 -1.0529
   8823SM  C11F11845   2.614   3.787  13.844 -0.7742 -0.4211 -0.9685
   8823SM  H11F11846   2.681   3.873  13.824  0.6851 -1.1523  0.4680
   8823SM  H11G11847   2.675   3.724  13.912  2.8492  1.6654 -2.0326
   8823SM  C12F11848   2.492   3.829  13.931 -0.3150  0.2467 -0.5741
   8823SM  H12F11849   2.454   3.731  13.967  1.1922  0.3179  1.4062
   8823SM  H12G11850   2.416   3.875  13.864 -2.0329 -2.9214 -0.9870
   8823SM  C13F11851   2.537   3.909  14.056 -0.5717  0.0525 -0.4651
   8823SM  H13F11852   2.564   4.016  14.043 -0.4816  0.5762  3.1804
   8823SM  H13G11853   2.624   3.859  14.105 -1.0646 -0.0958  0.2711
   8823SM  C14F11854   2.417   3.898  14.151 -0.3543  0.5173 -0.2451
   8823SM  H14F11855   2.395   3.790  14.160 -0.5008  0.5783  0.1227
   8823SM  H14G11856   2.330   3.941  14.096 -1.0826 -0.5938  0.0132
   8823SM  C15F11857   2.455   3.961  14.286 -0.3176  0.1953  0.4463
   8823SM  H15F11858   2.494   4.064  14.281 -0.4890  0.2253 -0.3629
   8823SM  H15G11859   2.540   3.908  14.334  1.1805  1.8772 -0.2499
   8823SM  C16F11860   2.331   3.968  14.382 -0.3775  0.4178  0.3148
   8823SM  H16F11861   2.257   3.888  14.363 -1.8770  1.8801 -0.2649
   8823SM  H16G11862   2.288   4.067  14.354 -0.0822  0.4841  0.0838
   8823SM  C17F11863   2.369   3.979  14.530  0.1951 -0.3917  0.0542
   8823SM  H17F11864   2.454   4.050  14.544 -0.2976 -0.3088  3.4009
   8823SM  H17G11865   2.407   3.879  14.559 -0.3093 -1.3749 -2.4796
   8823SM  C18F11866   2.244   4.003  14.620 -0.3883 -0.0591 -0.3756
   8823SM  H18F11867   2.177   3.916  14.603  0.0898 -0.5698  0.3284
   8823SM  H18G11868   2.200   4.104  14.604  0.0823  0.3057  0.6011
   8823SM  C19F11869   2.275   4.003  14.774  0.7901  0.6996 -0.2879
   8823SM  H19F11870   2.311   3.903  14.808 -3.3165 -1.4142 -1.4197
   8823SM  H19G11871   2.180   4.008  14.832  1.5723  0.2945  1.0790
   8823SM  C20F11872   2.367   4.123  14.815 -0.6636  0.2470 -0.2763
   8823SM  H20F11873   2.329   4.219  14.774 -1.2172 -0.1118 -0.6121
   8823SM  H20G11874   2.467   4.107  14.770 -0.3551 -0.3025  0.5669
   8823SM  C21F11875   2.387   4.126  14.970  0.6065  0.4451 -0.5842
   8823SM  H21F11876   2.420   4.026  15.004  3.6172  1.4654 -0.1934
   8823SM  H21G11877   2.291   4.145  15.022  0.2907 -0.0193 -0.9837
   8823SM  C22F11878   2.501   4.210  15.016  0.4342 -0.8007 -0.0779
   8823SM  H22F11879   2.473   4.311  14.980  1.9778  0.6250  2.4792
   8823SM  H22G11880   2.595   4.187  14.960  1.8121  2.3972  0.6884
   8823SM  C23F11881   2.532   4.219  15.167 -0.5952 -1.0945  1.0168
   8823SM  H23F11882   2.585   4.131  15.207  0.3765 -1.1744 -0.3640
   8823SM  H23G11883   2.434   4.230  15.218  0.0902  2.1856  1.8762
   8823SM  H23H11884   2.584   4.311  15.201 -1.5976 -0.3256  0.5258
   8923SM     N11885   6.849   3.208  12.012  0.1880 -0.8068 -0.3320
   8923SM   C1511886   6.795   3.094  11.922  0.2411  0.2529  0.7632
   8923SM  H15A11887   6.863   3.056  11.848  0.3041  0.7478  0.5613
   8923SM  H15B11888   6.707   3.121  11.865  0.1998 -3.2814 -1.0907
   8923SM  H15C11889   6.760   3.007  11.976  1.8831 -1.9235 -1.4741
   8923SM   C1411890   6.964   3.155  12.088  0.0646  0.2695 -0.0841
   8923SM  H14A11891   6.986   3.230  12.163  0.6567  0.6850 -0.6644
   8923SM  H14B11892   7.054   3.142  12.030  0.4860  0.4814  0.5206
   8923SM  H14C11893   6.949   3.064  12.144  2.0157 -0.5531 -0.8145
   8923SM   C1311894   6.904   3.311  11.924 -0.3915 -0.3614  0.3606
   8923SM  H13A11895   6.828   3.354  11.860  1.2911  0.9522 -0.8267
   8923SM  H13B11896   6.977   3.264  11.860 -2.0115 -1.7328 -0.5646
   8923SM  H13C11897   6.947   3.387  11.987 -0.7768  0.0685  0.1113
   8923SM   C1211898   6.736   3.257  12.113 -0.2869  0.2408  0.2475
   8923SM  H12A11899   6.658   3.293  12.048 -1.5297 -0.7683  1.1417
   8923SM  H12B11900   6.777   3.341  12.167 -0.8754  0.2480  0.6908
   8923SM   C1111901   6.678   3.162  12.222 -0.5837  0.1973 -0.0190
   8923SM  H11A11902   6.591   3.212  12.270  0.4355  1.7929  0.2310
   8923SM  H11B11903   6.758   3.146  12.296 -0.4498  0.7291 -0.0455
   8923SM     P11904   6.489   3.029  12.115 -0.3091 -0.3335 -0.0648
   8923SM   O1311905   6.464   3.154  12.033  0.2722 -0.8639 -0.0346
   8923SM   O1411906   6.470   2.899  12.049  0.1248  0.1375 -0.4488
   8923SM   O1111907   6.412   3.028  12.254  0.2575  0.3803 -0.7726
   8923SM   O1211908   6.639   3.035  12.167  0.0663  0.0471 -0.6841
   8923SM   C1S11909   6.422   2.924  12.354  0.0954 -0.0859  0.2599
   8923SM   H1S11910   6.523   2.878  12.349 -0.1392 -0.4790 -1.4126
   8923SM   H1T11911   6.355   2.840  12.328 -0.2415 -0.4481  2.1749
   8923SM    NF11912   6.430   2.913  12.588 -0.1226 -0.2636 -0.4090
   8923SM   HNF11913   6.359   2.866  12.640  0.1040  1.3852  1.4818
   8923SM   C2S11914   6.392   2.996  12.484  0.6026  0.0461 -0.4624
   8923SM   H2S11915   6.453   3.088  12.495 -0.0436  0.3191  1.0864
   8923SM   C3S11916   6.241   3.039  12.489 -0.0417  0.0411  0.1106
   8923SM   H3S11917   6.173   2.955  12.461 -2.0106  1.5532  0.1599
   8923SM    O311918   6.212   3.135  12.384 -0.2129 -0.3267 -0.2663
   8923SM   HO311919   6.286   3.122  12.325 -0.6468 -4.1284 -0.1804
   8923SM   C4S11920   6.197   3.103  12.615 -0.2023  0.2141  0.1193
   8923SM   H4S11921   6.238   3.204  12.627  0.4298  0.0695 -0.7305
   8923SM   C5S11922   6.116   3.060  12.710  0.0155  0.4260  0.0806
   8923SM   H5S11923   6.070   2.962  12.687  1.6438 -0.2975 -0.2137
   8923SM   C6S11924   6.071   3.129  12.833  0.8232  0.7009  0.3460
   8923SM   H6S11925   6.003   3.211  12.802  2.6498  1.6015 -1.5173
   8923SM   H6T11926   6.151   3.185  12.886 -0.5427  3.2834 -0.1536
   8923SM   C7S11927   5.999   3.039  12.933  0.2403  0.8760 -0.0153
   8923SM   H7S11928   6.071   2.966  12.977 -0.0790  0.3564 -0.3394
   8923SM   H7T11929   5.918   2.979  12.886  0.5777  0.1770  0.2833
   8923SM   C8S11930   5.924   3.116  13.049  0.3955  0.4648  0.4599
   8923SM   H8S11931   5.863   3.196  13.003  3.0845  2.8286  0.7032
   8923SM   H8T11932   5.999   3.173  13.109 -0.2350  0.4574  1.2643
   8923SM   C9S11933   5.846   3.021  13.141  0.1680  0.1893  0.1385
   8923SM   H9S11934   5.926   2.959  13.186 -0.5578 -0.5360  0.4603
   8923SM   H9T11935   5.774   2.952  13.091 -1.2543 -0.2555  2.6343
   8923SM  C10S11936   5.778   3.085  13.259  0.1538  0.3715 -0.6759
   8923SM  H10S11937   5.689   3.026  13.288 -0.6287  0.9075 -1.9000
   8923SM  H10T11938   5.742   3.183  13.221  2.1416  1.5347  0.2636
   8923SM  C11S11939   5.858   3.109  13.385 -0.1380  0.0369 -0.3995
   8923SM  H11S11940   5.933   3.188  13.363  0.5833 -0.8823 -1.3103
   8923SM  H11T11941   5.918   3.018  13.407  1.9070  1.2407 -0.6489
   8923SM  C12S11942   5.784   3.160  13.512  0.2468 -0.1497 -0.6036
   8923SM  H12S11943   5.718   3.071  13.525  0.1418 -0.1955 -1.4300
   8923SM  H12T11944   5.725   3.247  13.477 -0.8304 -0.6562 -0.0943
   8923SM  C13S11945   5.883   3.209  13.620  0.7916  0.4923  0.5308
   8923SM  H13S11946   5.834   3.291  13.676  0.6361  0.2704  0.7230
   8923SM  H13T11947   5.972   3.250  13.567  0.5111  0.3472 -0.0683
   8923SM  C14S11948   5.923   3.103  13.722 -0.0676 -0.0779 -0.4775
   8923SM  H14S11949   5.978   3.022  13.669 -0.4480 -0.9696  0.4667
   8923SM  H14T11950   5.829   3.058  13.760 -0.1672  2.2015  2.3505
   8923SM  C15S11951   6.017   3.154  13.833  0.0353  0.2563  0.1266
   8923SM  H15S11952   6.101   3.213  13.789 -0.7570  1.7823  0.6000
   8923SM  H15T11953   6.057   3.075  13.900 -4.0047 -0.7291  1.6478
   8923SM  C16S11954   5.948   3.257  13.932  0.7934 -0.1860 -0.5782
   8923SM  H16S11955   5.840   3.231  13.941  1.0335 -0.7761  0.7717
   8923SM  H16T11956   5.956   3.354  13.877 -0.0577 -0.0503 -0.4786
   8923SM  C17S11957   6.013   3.260  14.075 -0.0726  0.4479  0.0045
   8923SM  H17S11958   6.123   3.258  14.064 -0.0750  1.5436 -0.3377
   8923SM  H17T11959   5.981   3.168  14.128  0.7071 -0.1501 -0.5446
   8923SM  C18S11960   5.973   3.380  14.156  0.4762  0.1623 -0.5228
   8923SM  H18S11961   5.995   3.477  14.106  1.1848  0.9687  1.2384
   8923SM  H18T11962   6.013   3.379  14.260 -0.4918  0.5091 -0.1360
   8923SM  H18U11963   5.863   3.379  14.172  0.8696 -1.0582  3.1135
   8923SM   C1F11964   6.558   2.901  12.625 -1.0607 -0.4791  0.7502
   8923SM    OF11965   6.655   2.900  12.543  0.5819  0.1521 -0.3068
   8923SM   C2F11966   6.586   2.904  12.770  0.4511 -0.3004  0.1412
   8923SM   H2F11967   6.691   2.937  12.788  1.0371 -1.6375 -0.6013
   8923SM   H2G11968   6.567   2.797  12.791 -1.3470  0.3226  1.9146
   8923SM   C3F11969   6.474   2.981  12.847 -0.0646 -0.0542 -0.3031
   8923SM   H3F11970   6.383   2.919  12.834 -1.2309  1.6810 -0.6185
   8923SM   H3G11971   6.460   3.081  12.800 -0.4085  0.9658  1.8703
   8923SM   C4F11972   6.518   2.997  12.993 -0.1404 -0.6232  0.1306
   8923SM   H4F11973   6.574   3.093  12.998 -0.7648 -0.1735 -1.0765
   8923SM   H4G11974   6.589   2.915  13.019  0.1181 -1.3009 -2.4977
   8923SM   C5F11975   6.394   2.978  13.077 -0.7999 -1.0891 -0.1671
   8923SM   H5F11976   6.360   2.872  13.074  0.0488 -1.3391 -2.3333
   8923SM   H5G11977   6.314   3.047  13.042 -0.1886 -0.6281 -0.6620
   8923SM   C6F11978   6.408   3.011  13.229 -0.1148  0.0281 -0.5896
   8923SM   H6F11979   6.450   3.114  13.232  2.1886 -0.8819 -0.3366
   8923SM   H6G11980   6.472   2.933  13.275 -1.3907  0.3493  1.9275
   8923SM   C7F11981   6.272   3.016  13.298  0.3234 -0.0171  0.2627
   8923SM   H7F11982   6.222   2.917  13.301 -1.1432  0.6868 -0.0676
   8923SM   H7G11983   6.202   3.085  13.246 -0.7734  0.6959  2.5514
   8923SM   C8F11984   6.279   3.064  13.443 -0.3686 -0.2649  1.0640
   8923SM   H8F11985   6.172   3.075  13.473  0.6993  3.5073  4.3252
   8923SM   H8G11986   6.330   3.162  13.452 -0.1877 -0.2437 -0.0225
   8923SM   C9F11987   6.349   2.967  13.548 -0.1111 -0.6867  0.0593
   8923SM   H9F11988   6.456   2.962  13.517 -0.2109 -2.3582 -0.1495
   8923SM   H9G11989   6.302   2.866  13.554 -1.6374  0.0416  0.7199
   8923SM  C10F11990   6.334   3.015  13.693  0.4315  0.0340 -0.9773
   8923SM  H10F11991   6.226   3.021  13.718  0.4783  0.1767 -0.8027
   8923SM  H10G11992   6.360   3.123  13.702  2.6687 -0.4774 -0.7952
   8923SM  C11F11993   6.392   2.918  13.800 -0.2644 -0.5100  0.4368
   8923SM  H11F11994   6.497   2.895  13.770 -0.0689  1.9506 -1.0629
   8923SM  H11G11995   6.326   2.831  13.818 -1.0377  0.4046  2.2753
   8923SM  C12F11996   6.412   2.997  13.936 -0.4135  0.2870  0.2002
   8923SM  H12F11997   6.447   2.924  14.012  0.8434  0.8610  0.1960
   8923SM  H12G11998   6.312   3.017  13.981 -0.6444  0.1651 -0.2541
   8923SM  C13F11999   6.514   3.118  13.931  1.1334  0.7986  0.1492
   8923SM  H13F12000   6.489   3.190  13.851 -1.2273  0.6696  0.6841
   8923SM  H13G12001   6.614   3.070  13.929  0.9542  0.3626  1.0475
   8923SM  C14F12002   6.497   3.191  14.062 -0.1839  0.2320 -0.7236
   8923SM  H14F12003   6.392   3.215  14.088  0.2303  0.3628  0.9611
   8923SM  H14G12004   6.556   3.284  14.054  2.0294 -1.1052 -0.8279
   8923SM  C15F12005   6.556   3.125  14.190 -0.6928 -0.4608 -0.9660
   8923SM  H15F12006   6.667   3.116  14.182 -0.2885 -0.9404  3.2185
   8923SM  H15G12007   6.511   3.024  14.205 -1.0069 -0.0963  0.7822
   8923SM  C16F12008   6.540   3.208  14.322 -1.3014  0.1434 -0.6648
   8923SM  H16F12009   6.584   3.306  14.291  0.4729 -0.9132 -1.6690
   8923SM  H16G12010   6.587   3.157  14.409 -0.4134  0.1612 -1.1185
   8923SM  C17F12011   6.397   3.245  14.352  0.8180  0.1602  0.6885
   8923SM  H17F12012   6.338   3.152  14.339 -2.1751  1.8023  1.5139
   8923SM  H17G12013   6.357   3.313  14.274 -0.6520  0.0699  1.3318
   8923SM  C18F12014   6.378   3.294  14.495  0.3700 -0.0536  0.4999
   8923SM  H18F12015   6.418   3.395  14.520  1.7774 -0.5831  0.4535
   8923SM  H18G12016   6.429   3.218  14.558  0.2419 -0.2198  0.4047
   8923SM  C19F12017   6.234   3.301  14.538 -0.1328  0.4476  0.3164
   8923SM  H19F12018   6.193   3.197  14.534  2.1926 -0.6659  2.6829
   8923SM  H19G12019   6.180   3.358  14.460 -0.0078  1.4563  0.9549
   8923SM  C20F12020   6.225   3.367  14.674  0.1718  0.4725 -0.0500
   8923SM  H20F12021   6.141   3.440  14.677 -0.2975 -0.0162 -1.0471
   8923SM  H20G12022   6.318   3.426  14.693  0.0470  0.2168  1.5353
   8923SM  C21F12023   6.200   3.271  14.799 -0.1915 -0.0238  0.0783
   8923SM  H21F12024   6.293   3.214  14.818  2.8280  4.0188 -1.4125
   8923SM  H21G12025   6.132   3.199  14.747  2.5355 -3.7189  1.1992
   8923SM  C22F12026   6.134   3.328  14.927  0.0360 -0.5043  0.6048
   8923SM  H22F12027   6.037   3.369  14.891  0.3307  0.4779  0.9120
   8923SM  H22G12028   6.186   3.420  14.959  1.6374 -0.5533 -1.5889
   8923SM  C23F12029   6.120   3.235  15.041 -0.0055 -0.3701  0.2194
   8923SM  H23F12030   6.049   3.272  15.118 -0.3818 -2.1667  0.7919
   8923SM  H23G12031   6.219   3.226  15.092  1.2558  2.8901 -1.3763
   8923SM  H23H12032   6.085   3.134  15.012  0.0813 -0.7347  1.3123
   9023SM     N12033   6.786   2.493  12.284  0.0099 -0.1460  0.0038
   9023SM   C1512034   6.836   2.518  12.142 -0.2181 -0.5170 -0.1350
   9023SM  H15A12035   6.895   2.608  12.137 -1.4517  0.4586  1.8333
   9023SM  H15B12036   6.755   2.519  12.072  1.5990 -0.4901 -2.3431
   9023SM  H15C12037   6.896   2.434  12.109 -1.4893 -1.2571 -0.6466
   9023SM   C1412038   6.738   2.360  12.302 -0.1519  0.8936 -0.3931
   9023SM  H14A12039   6.660   2.334  12.231 -0.4828 -1.8256  0.8218
   9023SM  H14B12040   6.694   2.359  12.400 -0.4263  0.2017 -0.5149
   9023SM  H14C12041   6.813   2.283  12.287 -1.7014 -0.9560  0.8388
   9023SM   C1312042   6.904   2.506  12.378 -0.2980  0.5262 -0.1719
   9023SM  H13A12043   6.868   2.488  12.478 -1.3845  1.2432 -0.4110
   9023SM  H13B12044   6.956   2.601  12.380  0.3665  0.1775 -0.5703
   9023SM  H13C12045   6.975   2.430  12.350 -3.7014 -3.1845  0.3270
   9023SM   C1212046   6.673   2.596  12.314 -0.4517 -0.2058 -0.1985
   9023SM  H12A12047   6.612   2.592  12.225 -1.5508 -0.4066  0.5438
   9023SM  H12B12048   6.715   2.696  12.314 -0.0776 -0.3565 -0.6677
   9023SM   C1112049   6.572   2.572  12.426  0.2703 -0.0197 -0.1507
   9023SM  H11A12050   6.512   2.664  12.442 -0.8354 -0.5415 -1.1492
   9023SM  H11B12051   6.627   2.554  12.522 -0.2582  2.0872  0.6019
   9023SM     P12052   6.374   2.465  12.289  0.1770  0.1711 -0.0866
   9023SM   O1312053   6.422   2.511  12.158  0.2408  0.2726 -0.1408
   9023SM   O1412054   6.304   2.334  12.281 -0.7882  0.2212 -0.3633
   9023SM   O1112055   6.277   2.581  12.347  0.2373  0.0583 -0.7243
   9023SM   O1212056   6.485   2.456  12.395  0.1399  0.1157  0.3655
   9023SM   C1S12057   6.215   2.547  12.476 -0.1066 -0.0022  0.5705
   9023SM   H1S12058   6.290   2.535  12.557 -0.2781  0.5269  0.8073
   9023SM   H1T12059   6.160   2.451  12.462 -0.3380  0.2319 -0.1702
   9023SM    NF12060   6.065   2.660  12.648  0.7775  0.6537  0.3016
   9023SM   HNF12061   5.970   2.639  12.669  0.9540 -0.9438 -0.3705
   9023SM   C2S12062   6.111   2.658  12.512 -0.2508 -0.2318  0.0414
   9023SM   H2S12063   6.171   2.751  12.512  0.0060 -0.3886  1.0560
   9023SM   C3S12064   5.996   2.668  12.402 -1.0417 -0.3383 -0.7235
   9023SM   H3S12065   5.937   2.574  12.410  0.6127 -1.2892  1.5443
   9023SM    O312066   6.049   2.689  12.271 -0.3619  0.2722  0.0199
   9023SM   HO312067   6.140   2.661  12.283 -0.5688  0.2028  1.7260
   9023SM   C4S12068   5.915   2.790  12.433  0.6650 -0.3611 -0.4239
   9023SM   H4S12069   5.962   2.888  12.417  3.1612 -1.1491  1.4624
   9023SM   C5S12070   5.780   2.788  12.460  0.1841 -0.0069 -0.3607
   9023SM   H5S12071   5.731   2.689  12.460 -1.1143  0.6220 -0.3731
   9023SM   C6S12072   5.684   2.908  12.468  0.4281 -0.1585  0.1772
   9023SM   H6S12073   5.622   2.920  12.377  2.4050  2.3587 -0.9693
   9023SM   H6T12074   5.750   2.997  12.476  1.0032 -0.4977 -0.6502
   9023SM   C7S12075   5.584   2.886  12.584 -0.3103  0.5884  0.4558
   9023SM   H7S12076   5.642   2.859  12.675  0.5627 -1.8441 -0.7359
   9023SM   H7T12077   5.527   2.792  12.564  0.3496  0.6848 -2.2116
   9023SM   C8S12078   5.507   3.018  12.613  0.6589  0.2113  0.1568
   9023SM   H8S12079   5.452   3.037  12.519  0.4510 -3.3645 -0.6103
   9023SM   H8T12080   5.570   3.108  12.626  1.2466  0.2398 -2.4274
   9023SM   C9S12081   5.423   3.015  12.740 -0.8692  0.6058 -0.2736
   9023SM   H9S12082   5.498   3.027  12.820 -1.3200 -1.2944  0.4708
   9023SM   H9T12083   5.377   2.915  12.756  2.4241 -1.3278 -1.8845
   9023SM  C10S12084   5.333   3.135  12.752  0.0606 -0.1245 -0.1973
   9023SM  H10S12085   5.261   3.146  12.668 -0.1264  1.9288  0.1767
   9023SM  H10T12086   5.389   3.228  12.729 -0.6054  0.4971  0.6319
   9023SM  C11S12087   5.248   3.137  12.891 -0.1387  0.6456  0.1903
   9023SM  H11S12088   5.233   3.038  12.939  0.0603  0.1751 -0.6907
   9023SM  H11T12089   5.148   3.183  12.873 -0.4685 -1.0652 -3.2310
   9023SM  C12S12090   5.332   3.197  13.004 -0.3312 -0.0899 -0.2486
   9023SM  H12S12091   5.338   3.306  12.988 -1.2022 -0.1926 -1.4019
   9023SM  H12T12092   5.436   3.162  12.994 -0.7366 -1.0236 -1.3654
   9023SM  C13S12093   5.283   3.170  13.145  0.7880  0.2927  0.6807
   9023SM  H13S12094   5.289   3.060  13.162 -0.0748  0.2498  0.7429
   9023SM  H13T12095   5.174   3.190  13.137  0.2434 -1.9282  1.7391
   9023SM  C14S12096   5.362   3.238  13.258 -0.3855  0.2755  0.2627
   9023SM  H14S12097   5.334   3.345  13.254  0.5984  0.5681  0.8566
   9023SM  H14T12098   5.471   3.231  13.238 -0.3262 -0.4675  0.7828
   9023SM  C15S12099   5.317   3.181  13.401  0.1285  0.1542  0.2812
   9023SM  H15S12100   5.345   3.073  13.393  0.4478  0.1755  1.0133
   9023SM  H15T12101   5.207   3.194  13.406  0.3376  2.0364  0.5313
   9023SM  C16S12102   5.387   3.262  13.513 -0.2117  0.0818 -0.6538
   9023SM  H16S12103   5.373   3.372  13.504 -0.0566  0.2611  1.0565
   9023SM  H16T12104   5.493   3.238  13.491 -0.0698 -0.4900  0.5542
   9023SM  C17S12105   5.352   3.223  13.661  0.1074  0.2461 -0.2781
   9023SM  H17S12106   5.451   3.211  13.710  0.3345 -0.0251 -0.7988
   9023SM  H17T12107   5.310   3.120  13.662  0.6524  0.0205  0.5299
   9023SM  C18S12108   5.262   3.315  13.733 -0.2684 -0.6310 -0.5792
   9023SM  H18S12109   5.231   3.270  13.829  1.0477 -2.1957 -0.8401
   9023SM  H18T12110   5.175   3.344  13.670  0.0639  0.9599 -0.3372
   9023SM  H18U12111   5.309   3.405  13.778 -1.0962 -0.0081 -0.9462
   9023SM   C1F12112   6.136   2.671  12.763 -0.4711 -1.0433  0.7974
   9023SM    OF12113   6.254   2.708  12.760 -0.1722 -0.1509 -0.0677
   9023SM   C2F12114   6.077   2.633  12.895  0.5579  0.6516 -0.5229
   9023SM   H2F12115   6.073   2.522  12.892  1.1846  0.6360 -0.8812
   9023SM   H2G12116   5.971   2.668  12.899 -0.5818 -2.4862 -0.7867
   9023SM   C3F12117   6.153   2.674  13.022  0.0125 -1.0018  0.2666
   9023SM   H3F12118   6.129   2.776  13.059  1.3543 -0.4654 -0.2963
   9023SM   H3G12119   6.260   2.654  13.003 -0.0044  0.1134 -1.1641
   9023SM   C4F12120   6.138   2.575  13.134  0.0275  0.3004  0.3102
   9023SM   H4F12121   6.206   2.604  13.216  0.1415 -1.6954  0.9725
   9023SM   H4G12122   6.169   2.475  13.097  0.3941  0.3539  0.4790
   9023SM   C5F12123   5.995   2.562  13.185  0.0170  0.8216 -0.1035
   9023SM   H5F12124   5.928   2.483  13.147 -0.0514  0.2598  1.1435
   9023SM   H5G12125   5.945   2.652  13.144  0.4299  0.6844 -0.9361
   9023SM   C6F12126   5.977   2.560  13.334 -0.3567 -0.1258  0.2730
   9023SM   H6F12127   6.007   2.462  13.377 -1.2657 -0.6713 -0.3107
   9023SM   H6G12128   5.870   2.573  13.361 -0.7674  1.7697 -1.9724
   9023SM   C7F12129   6.046   2.671  13.416  0.3179  0.3270  0.6098
   9023SM   H7F12130   6.026   2.767  13.364  2.1177  1.6065  2.1753
   9023SM   H7G12131   6.156   2.655  13.422  0.1119 -1.2089  0.7998
   9023SM   C8F12132   5.996   2.711  13.554  0.1824 -0.1255  0.1501
   9023SM   H8F12133   5.890   2.745  13.558  0.0989 -0.4245  0.5379
   9023SM   H8G12134   6.064   2.790  13.592 -1.4227  1.8504 -0.8791
   9023SM   C9F12135   6.013   2.585  13.645  0.2507  0.4772  0.1913
   9023SM   H9F12136   6.120   2.558  13.652  0.4759  1.4812  0.8841
   9023SM   H9G12137   5.953   2.503  13.602 -1.1523  1.9022 -0.7002
   9023SM  C10F12138   5.950   2.612  13.782  0.0463 -0.6981  0.3886
   9023SM  H10F12139   5.934   2.513  13.830  0.1340 -1.6451 -1.4633
   9023SM  H10G12140   5.849   2.658  13.770  0.4701  0.0320 -0.4441
   9023SM  C11F12141   6.047   2.702  13.863 -0.5862  0.6232  0.0432
   9023SM  H11F12142   6.087   2.788  13.805 -1.1383 -0.6195 -2.2998
   9023SM  H11G12143   6.137   2.644  13.893 -0.6558 -0.8055 -2.2659
   9023SM  C12F12144   5.981   2.761  13.989 -0.7534 -0.3192 -0.2189
   9023SM  H12F12145   5.932   2.680  14.046  1.3613 -0.8964  0.8787
   9023SM  H12G12146   5.901   2.830  13.953 -0.1477  2.1439  2.6867
   9023SM  C13F12147   6.071   2.837  14.089 -0.1447  0.2405  0.3395
   9023SM  H13F12148   6.131   2.912  14.035 -0.3232 -1.4873 -2.4315
   9023SM  H13G12149   6.140   2.764  14.137 -0.1086 -0.2659 -0.4587
   9023SM  C14F12150   5.988   2.879  14.208 -0.0284  0.4886  0.4144
   9023SM  H14F12151   5.930   2.789  14.238 -2.2470  0.3898 -3.4919
   9023SM  H14G12152   5.918   2.955  14.167  0.4138  0.3265 -0.6637
   9023SM  C15F12153   6.073   2.928  14.326 -0.5013 -0.9458  0.0227
   9023SM  H15F12154   6.143   3.010  14.296 -1.6743  0.8618  1.9356
   9023SM  H15G12155   6.136   2.843  14.361 -0.9056 -0.7930  1.1545
   9023SM  C16F12156   5.974   2.971  14.430  0.4567 -0.1916  0.1056
   9023SM  H16F12157   6.022   2.969  14.530 -1.6463 -0.4503  1.1743
   9023SM  H16G12158   5.888   2.901  14.438  0.8085 -0.7870 -1.0123
   9023SM  C17F12159   5.923   3.116  14.406  0.5192 -0.6348  1.1653
   9023SM  H17F12160   5.847   3.123  14.325  2.0367  1.5733 -0.1855
   9023SM  H17G12161   6.005   3.182  14.369  0.3248 -0.4637  1.0375
   9023SM  C18F12162   5.851   3.171  14.527 -0.4209  0.4646 -0.9067
   9023SM  H18F12163   5.928   3.188  14.605  0.1461  2.7492 -1.8852
   9023SM  H18G12164   5.777   3.102  14.574  1.6307  0.8561  3.4177
   9023SM  C19F12165   5.792   3.316  14.518 -0.2217 -0.3206  0.1514
   9023SM  H19F12166   5.718   3.321  14.436 -0.7775 -3.3291  0.3294
   9023SM  H19G12167   5.878   3.380  14.488 -0.8122  1.1776  1.5280
   9023SM  C20F12168   5.742   3.359  14.656  0.2259 -0.1389  0.5445
   9023SM  H20F12169   5.822   3.332  14.728  1.7102 -0.5979 -1.2024
   9023SM  H20G12170   5.649   3.302  14.676 -1.9777  3.3964  1.4352
   9023SM  C21F12171   5.708   3.508  14.681  0.4933 -0.1184 -0.0811
   9023SM  H21F12172   5.687   3.531  14.788  2.0913  0.4985  0.1310
   9023SM  H21G12173   5.614   3.534  14.628  0.2083  3.7545  1.9349
   9023SM  C22F12174   5.814   3.613  14.640 -0.0514 -0.0479  0.2444
   9023SM  H22F12175   5.758   3.702  14.605  0.2837 -0.0498 -0.3167
   9023SM  H22G12176   5.867   3.571  14.551  0.0346 -2.0962  1.2089
   9023SM  C23F12177   5.919   3.650  14.744  0.4787 -1.0201  0.0077
   9023SM  H23F12178   5.971   3.562  14.788  1.7476 -1.2613 -1.8777
   9023SM  H23G12179   5.872   3.708  14.827 -0.9912 -2.4137  0.1959
   9023SM  H23H12180   5.999   3.717  14.705 -0.8279 -0.0539 -1.1127
   9123SM     N12181   5.746   6.169  12.151 -0.3243  0.3531  0.1813
   9123SM   C1512182   5.836   6.287  12.176  0.0348  0.2718  0.4520
   9123SM  H15A12183   5.934   6.261  12.212  1.0600  1.4053 -1.3462
   9123SM  H15B12184   5.797   6.348  12.257  0.6390 -0.1713  1.0863
   9123SM  H15C12185   5.843   6.356  12.093 -1.9046  0.5837  0.5064
   9123SM   C1412186   5.724   6.103  12.286  0.6906 -0.6966 -0.1403
   9123SM  H14A12187   5.664   6.014  12.270  0.0841 -0.1127 -1.2383
   9123SM  H14B12188   5.673   6.173  12.351  3.2452 -0.1422  1.4198
   9123SM  H14C12189   5.815   6.073  12.336  0.9676  0.6164  0.1962
   9123SM   C1312190   5.617   6.211  12.103  0.0993 -0.7221 -0.3276
   9123SM  H13A12191   5.622   6.285  12.024  1.4540 -0.1045  0.2878
   9123SM  H13B12192   5.567   6.257  12.187  0.1345  0.4282 -0.9079
   9123SM  H13C12193   5.571   6.124  12.059  0.2749 -0.9729 -0.0180
   9123SM   C1212194   5.815   6.072  12.060  0.4229  0.3037  0.2318
   9123SM  H12A12195   5.908   6.043  12.107  1.7862 -0.2054 -2.5666
   9123SM  H12B12196   5.836   6.132  11.973 -0.9327 -0.0769 -0.3874
   9123SM   C1112197   5.736   5.943  12.010  0.1270  0.9479  1.2996
   9123SM  H11A12198   5.699   5.895  12.103 -0.3837  0.4028  0.8179
   9123SM  H11B12199   5.811   5.874  11.968 -1.9818 -0.8769  0.3626
   9123SM     P12200   5.494   5.915  11.933  0.0376  0.2273 -0.6672
   9123SM   O1312201   5.403   5.982  11.846  0.5742  0.0246  0.5747
   9123SM   O1412202   5.512   5.769  11.917 -0.1048  0.1681  0.4115
   9123SM   O1112203   5.462   5.950  12.087 -0.2962  0.5638 -0.4326
   9123SM   O1212204   5.636   5.979  11.910 -0.2131 -0.4202 -0.5301
   9123SM   C1S12205   5.400   5.850  12.176 -0.2269 -0.7354  0.4314
   9123SM   H1S12206   5.473   5.771  12.202 -0.4532 -1.4166 -0.8768
   9123SM   H1T12207   5.302   5.815  12.138 -0.6846 -1.9640  2.5960
   9123SM    NF12208   5.389   5.834  12.424  0.6557 -0.2113 -0.4572
   9123SM   HNF12209   5.310   5.813  12.482 -0.1804  0.1058 -1.4497
   9123SM   C2S12210   5.369   5.920  12.311 -0.0037 -0.0700  0.4710
   9123SM   H2S12211   5.445   5.999  12.326 -0.5677  0.9968 -1.9439
   9123SM   C3S12212   5.229   5.997  12.292  0.0610 -0.5554  0.5215
   9123SM   H3S12213   5.148   5.924  12.267 -1.2521  1.3075 -0.9371
   9123SM    O312214   5.227   6.095  12.183  0.5244  0.1143 -0.0176
   9123SM   HO312215   5.311   6.082  12.139 -0.1091  0.2449 -1.3207
   9123SM   C4S12216   5.198   6.060  12.424  1.0598  0.1557 -0.5942
   9123SM   H4S12217   5.271   6.133  12.462 -0.4103  0.8715  1.0069
   9123SM   C5S12218   5.084   6.025  12.491  0.1539  0.6833 -0.4832
   9123SM   H5S12219   5.014   5.952  12.448  1.8638 -1.6870  0.5606
   9123SM   C6S12220   5.034   6.093  12.619 -0.0240  0.6797 -0.4690
   9123SM   H6S12221   4.924   6.102  12.608 -0.0931  1.4711  0.6940
   9123SM   H6T12222   5.067   6.199  12.612  0.0003  0.7250  0.3152
   9123SM   C7S12223   5.080   6.024  12.749  0.5665 -0.3069 -0.1563
   9123SM   H7S12224   5.182   6.046  12.787 -0.0143  1.0556  0.6693
   9123SM   H7T12225   5.067   5.914  12.738 -0.0294 -0.0724 -2.3063
   9123SM   C8S12226   4.988   6.075  12.868 -0.6148  0.4463 -0.1501
   9123SM   H8S12227   4.884   6.052  12.839  0.2081 -0.8518 -2.2605
   9123SM   H8T12228   4.999   6.184  12.891  0.0917  0.1284  1.1557
   9123SM   C9S12229   5.012   5.995  12.999 -0.0079 -0.2965 -0.7662
   9123SM   H9S12230   5.116   6.013  13.035 -0.7287  2.5672  0.1857
   9123SM   H9T12231   5.003   5.887  12.974  1.1293 -0.2474 -1.4483
   9123SM  C10S12232   4.921   6.027  13.120 -0.3282 -0.1760 -0.1876
   9123SM  H10S12233   4.816   6.008  13.089 -0.4284  0.8353 -0.4947
   9123SM  H10T12234   4.938   6.133  13.147  2.3118 -0.1916 -1.4897
   9123SM  C11S12235   4.959   5.946  13.240 -0.2589 -0.8140  0.1522
   9123SM  H11S12236   5.070   5.938  13.242 -0.1673  0.3993  0.6357
   9123SM  H11T12237   4.923   5.841  13.228  0.1193 -1.3860  3.1922
   9123SM  C12S12238   4.909   6.000  13.371  0.0533 -0.6247  0.2220
   9123SM  H12S12239   4.801   6.025  13.364  0.0082 -1.3298 -2.3624
   9123SM  H12T12240   4.971   6.089  13.396 -0.0012 -1.2321  2.8531
   9123SM  C13S12241   4.924   5.910  13.491  0.0050  0.1314  0.1871
   9123SM  H13S12242   5.031   5.897  13.518  0.4565  1.2505 -0.9200
   9123SM  H13T12243   4.894   5.810  13.453  2.5957 -0.6823  0.0836
   9123SM  C14S12244   4.839   5.943  13.615  0.5835 -0.3642  0.4537
   9123SM  H14S12245   4.731   5.937  13.588  0.4007  0.4347  0.9679
   9123SM  H14T12246   4.872   6.046  13.639 -2.2055  0.7583 -0.0631
   9123SM  C15S12247   4.854   5.840  13.729 -0.3779  0.0593 -0.0965
   9123SM  H15S12248   4.826   5.738  13.696  1.7542 -0.6353  0.0964
   9123SM  H15T12249   4.791   5.880  13.811  0.3251  0.7942  0.0971
   9123SM  C16S12250   4.995   5.838  13.784 -0.3846 -0.1068 -0.7729
   9123SM  H16S12251   5.034   5.939  13.807  0.3234 -0.4688 -0.3259
   9123SM  H16T12252   5.058   5.799  13.702  0.6371  1.5792 -0.8393
   9123SM  C17S12253   5.016   5.747  13.902  0.2804 -0.1329  0.3873
   9123SM  H17S12254   4.950   5.788  13.982  1.0135  0.0883  0.8927
   9123SM  H17T12255   5.120   5.760  13.938  0.4134 -4.9289  2.4511
   9123SM  C18S12256   4.980   5.601  13.893 -0.0083  0.1825 -0.0263
   9123SM  H18S12257   4.871   5.583  13.905  0.1471 -1.2461 -0.5536
   9123SM  H18T12258   5.033   5.551  13.977  0.1350 -0.2681 -0.3825
   9123SM  H18U12259   5.010   5.560  13.795  0.0580  0.7926 -0.2635
   9123SM   C1F12260   5.507   5.807  12.464 -0.2785 -0.4255  0.0497
   9123SM    OF12261   5.613   5.835  12.405  0.0276  0.0203  0.4929
   9123SM   C2F12262   5.522   5.732  12.593  0.4057 -0.3392  0.2915
   9123SM   H2F12263   5.426   5.682  12.617 -0.0350  0.9220  1.2768
   9123SM   H2G12264   5.538   5.805  12.675  2.6163 -1.5501  1.0199
   9123SM   C3F12265   5.641   5.638  12.600  0.5076 -0.1282  0.2237
   9123SM   H3F12266   5.726   5.708  12.617  0.9444 -0.7360  0.5669
   9123SM   H3G12267   5.669   5.589  12.505 -2.6750  2.4102 -2.2521
   9123SM   C4F12268   5.642   5.549  12.732  0.6034  0.0647  0.1385
   9123SM   H4F12269   5.715   5.466  12.724  0.6669  0.3010 -2.7474
   9123SM   H4G12270   5.539   5.512  12.749  0.2813  1.8345  2.4632
   9123SM   C5F12271   5.674   5.647  12.850  0.2689  0.1046 -0.3581
   9123SM   H5F12272   5.586   5.714  12.857 -1.5904 -2.3384  1.5266
   9123SM   H5G12273   5.761   5.715  12.835 -1.6159  2.2525 -2.1469
   9123SM   C6F12274   5.670   5.576  12.987  0.8745  0.5875 -0.3823
   9123SM   H6F12275   5.741   5.491  12.977 -0.2252 -0.3143 -0.7322
   9123SM   H6G12276   5.562   5.553  13.003  1.2796 -0.2303  1.5335
   9123SM   C7F12277   5.712   5.655  13.112 -0.4595 -0.1389  0.3674
   9123SM   H7F12278   5.642   5.733  13.148  0.1989  0.9149 -0.5694
   9123SM   H7G12279   5.804   5.710  13.082 -0.6576  0.1199  0.2303
   9123SM   C8F12280   5.760   5.566  13.230  0.2062 -0.2751  0.3140
   9123SM   H8F12281   5.849   5.513  13.189 -0.9019 -0.7634 -1.5748
   9123SM   H8G12282   5.687   5.485  13.252  1.3213 -1.2542  0.4863
   9123SM   C9F12283   5.803   5.652  13.352 -0.2570  0.1206  0.7874
   9123SM   H9F12284   5.705   5.683  13.393 -0.2750 -0.4705  1.2080
   9123SM   H9G12285   5.858   5.742  13.318  1.6808 -2.3462 -3.5270
   9123SM  C10F12286   5.884   5.567  13.449 -0.4183  0.0686  0.2053
   9123SM  H10F12287   5.980   5.530  13.406  0.1548 -0.0316  1.5189
   9123SM  H10G12288   5.838   5.469  13.473  0.8071 -0.3675  0.8593
   9123SM  C11F12289   5.903   5.651  13.577 -0.0051  0.4683 -0.3262
   9123SM  H11F12290   5.801   5.686  13.605  0.1526  0.7113 -0.0559
   9123SM  H11G12291   5.974   5.731  13.547 -0.5217  0.8365 -0.5908
   9123SM  C12F12292   5.963   5.575  13.697 -0.1490 -1.7650  0.1627
   9123SM  H12F12293   6.067   5.553  13.665  1.0423  1.4322  1.3630
   9123SM  H12G12294   5.908   5.485  13.730 -1.9008 -0.4811  0.9133
   9123SM  C13F12295   5.992   5.669  13.819 -0.6148 -0.7690  0.4653
   9123SM  H13F12296   6.016   5.615  13.914  2.1655 -0.3285  0.1163
   9123SM  H13G12297   5.895   5.718  13.841 -1.8288 -2.7884 -0.1533
   9123SM  C14F12298   6.104   5.776  13.791  0.3949 -0.3196 -0.0467
   9123SM  H14F12299   6.100   5.839  13.882 -0.4696 -1.3677  0.6601
   9123SM  H14G12300   6.090   5.837  13.699 -2.5133  0.1587  0.6148
   9123SM  C15F12301   6.245   5.715  13.779  0.0332  0.4376  0.4393
   9123SM  H15F12302   6.244   5.670  13.677 -2.0572  1.5695 -0.0898
   9123SM  H15G12303   6.256   5.636  13.856  1.8345  0.2003 -0.0315
   9123SM  C16F12304   6.365   5.806  13.795 -0.3063 -0.2844 -0.1709
   9123SM  H16F12305   6.456   5.753  13.828 -0.4083 -0.5307 -0.2797
   9123SM  H16G12306   6.344   5.884  13.872 -3.1179  1.2549 -2.2990
   9123SM  C17F12307   6.406   5.884  13.666 -0.2962 -0.2975  0.4499
   9123SM  H17F12308   6.319   5.927  13.611 -0.2192 -2.1260 -1.1662
   9123SM  H17G12309   6.456   5.813  13.597 -1.9284 -0.7522 -0.3229
   9123SM  C18F12310   6.507   5.994  13.695 -0.2141  0.2824 -0.0438
   9123SM  H18F12311   6.604   5.944  13.714 -0.3692  0.2336  0.6402
   9123SM  H18G12312   6.484   6.053  13.786  0.4149  0.1586  0.1969
   9123SM  C19F12313   6.524   6.092  13.576 -0.1588  0.4671 -1.0826
   9123SM  H19F12314   6.543   6.028  13.487  2.6070 -2.1560  1.2007
   9123SM  H19G12315   6.612   6.157  13.597  0.1941 -0.1784 -0.5380
   9123SM  C20F12316   6.412   6.192  13.555 -0.2970 -0.3105 -0.1761
   9123SM  H20F12317   6.371   6.245  13.643 -1.5072 -0.6695 -0.5057
   9123SM  H20G12318   6.325   6.142  13.509 -0.2117 -2.3186  1.6310
   9123SM  C21F12319   6.445   6.294  13.458  0.8345  0.6506 -0.3217
   9123SM  H21F12320   6.470   6.242  13.363  0.0802  1.9371 -1.2633
   9123SM  H21G12321   6.529   6.361  13.487  1.4547  0.7925 -2.2406
   9123SM  C22F12322   6.326   6.383  13.411 -0.4376  0.3485  0.2741
   9123SM  H22F12323   6.236   6.322  13.387 -0.4595  0.6295 -0.3847
   9123SM  H22G12324   6.356   6.420  13.311 -2.3351  0.6259 -0.2437
   9123SM  C23F12325   6.296   6.500  13.506 -0.0388 -0.5196  0.0214
   9123SM  H23F12326   6.377   6.576  13.511 -1.6167  1.1418  3.6659
   9123SM  H23G12327   6.281   6.453  13.605 -0.7734 -0.4063 -0.0367
   9123SM  H23H12328   6.205   6.559  13.485  0.7706  1.5494  1.9724
   9223SM     N12329   5.669   2.637  12.027 -0.0901  0.2428  0.1008
   9223SM   C1512330   5.806   2.611  12.068  0.0544 -0.0530  0.5079
   9223SM  H15A12331   5.831   2.618  12.173  2.9934  1.4336 -0.1695
   9223SM  H15B12332   5.878   2.682  12.030  1.6503 -0.4540  2.5806
   9223SM  H15C12333   5.842   2.513  12.041 -2.7213 -0.8673 -0.5976
   9223SM   C1412334   5.643   2.783  12.066  0.1909  0.4972  1.2894
   9223SM  H14A12335   5.535   2.795  12.062  0.1221 -0.0988  1.2440
   9223SM  H14B12336   5.684   2.839  11.983 -2.6261  0.2388 -0.4138
   9223SM  H14C12337   5.682   2.818  12.161  0.2460  2.3250  0.6377
   9223SM   C1312338   5.655   2.626  11.877  0.2838  0.7482  0.0914
   9223SM  H13A12339   5.720   2.701  11.833  1.3659  1.2672  2.4254
   9223SM  H13B12340   5.560   2.668  11.848  0.9598  1.7306 -0.8063
   9223SM  H13C12341   5.676   2.525  11.847  0.7756  1.0447 -0.5885
   9223SM   C1212342   5.572   2.552  12.110 -0.5244 -0.1238 -0.3379
   9223SM  H12A12343   5.592   2.446  12.108  1.6782  0.0858  2.5863
   9223SM  H12B12344   5.468   2.575  12.093 -0.5804 -0.4522 -0.4451
   9223SM   C1112345   5.577   2.562  12.269  0.0979  0.4530  0.1834
   9223SM  H11A12346   5.487   2.506  12.303  0.1243  0.3224  0.0374
   9223SM  H11B12347   5.560   2.661  12.317 -0.5072  0.6563 -0.4303
   9223SM     P12348   5.729   2.346  12.304 -0.2397 -0.1856  0.0482
   9223SM   O1312349   5.697   2.305  12.167  0.4782  0.1578  0.1675
   9223SM   O1412350   5.866   2.321  12.358 -0.2012  0.0569 -0.3000
   9223SM   O1112351   5.625   2.284  12.401 -0.4904  0.2364  0.1293
   9223SM   O1212352   5.700   2.498  12.317 -0.8794 -0.0917 -0.1537
   9223SM   C1S12353   5.494   2.222  12.377  0.2451  0.3711  0.3914
   9223SM   H1S12354   5.516   2.126  12.326  1.1815  0.9795 -0.3845
   9223SM   H1T12355   5.434   2.288  12.310 -1.3280  0.2854  1.6571
   9223SM    NF12356   5.305   2.112  12.480  0.6741 -0.8238 -0.2133
   9223SM   HNF12357   5.210   2.137  12.496  1.2339  0.2439  1.7730
   9223SM   C2S12358   5.412   2.209  12.506  1.0034  0.1619  0.2572
   9223SM   H2S12359   5.478   2.157  12.579 -0.4928 -0.5038  1.1767
   9223SM   C3S12360   5.368   2.344  12.561  0.2681 -0.2269 -0.4128
   9223SM   H3S12361   5.285   2.370  12.492  1.3892 -2.2204 -2.6565
   9223SM    O312362   5.458   2.449  12.558 -0.0308 -0.6670 -0.3798
   9223SM   HO312363   5.526   2.420  12.497 -0.2954 -1.5687 -0.2653
   9223SM   C4S12364   5.307   2.332  12.696  0.1530  0.1011 -0.5325
   9223SM   H4S12365   5.198   2.336  12.688  0.0796  1.1606  0.7489
   9223SM   C5S12366   5.367   2.322  12.817  0.9538 -0.7397 -0.6860
   9223SM   H5S12367   5.474   2.345  12.807  0.5776  1.6691  0.0398
   9223SM   C6S12368   5.309   2.327  12.955  0.5411  0.1540 -0.0689
   9223SM   H6S12369   5.329   2.426  13.001  6.0387 -1.2562  1.3026
   9223SM   H6T12370   5.373   2.257  13.014  2.5892  1.5294 -0.5518
   9223SM   C7S12371   5.162   2.288  12.978  0.2247  0.4778  0.3487
   9223SM   H7S12372   5.123   2.211  12.909  0.4424 -0.7443  1.5497
   9223SM   H7T12373   5.103   2.376  12.943 -0.4023  0.1457  0.5588
   9223SM   C8S12374   5.130   2.280  13.129 -0.1815  0.1676  0.7350
   9223SM   H8S12375   5.192   2.202  13.178  0.2706  0.8167  1.2031
   9223SM   H8T12376   5.028   2.237  13.139  1.6097 -5.4573 -1.2625
   9223SM   C9S12377   5.152   2.409  13.207 -0.2964 -0.6098 -0.3124
   9223SM   H9S12378   5.151   2.498  13.140  1.1751 -2.0750 -2.4334
   9223SM   H9T12379   5.256   2.408  13.245 -0.3277  1.5281 -0.0100
   9223SM  C10S12380   5.066   2.434  13.332 -0.0027 -0.0213  0.1082
   9223SM  H10S12381   4.959   2.449  13.307 -0.1885 -0.2534  0.7574
   9223SM  H10T12382   5.093   2.537  13.363 -1.6335 -0.0474  1.8251
   9223SM  C11S12383   5.095   2.335  13.446  0.7269 -0.1362 -0.3349
   9223SM  H11S12384   5.205   2.327  13.464  0.6119 -1.6065 -0.1081
   9223SM  H11T12385   5.042   2.238  13.431 -0.6804  0.6984 -0.9292
   9223SM  C12S12386   5.042   2.394  13.577 -0.1110  0.1175 -0.4262
   9223SM  H12S12387   4.934   2.409  13.558 -0.3524 -0.5963  0.2999
   9223SM  H12T12388   5.097   2.489  13.596  0.3800 -0.2249 -0.1090
   9223SM  C13S12389   5.061   2.302  13.699 -0.3606  0.3140 -0.1534
   9223SM  H13S12390   5.168   2.275  13.707  0.2958  2.6396 -0.4549
   9223SM  H13T12391   5.000   2.212  13.676 -0.6626  0.4067  0.2695
   9223SM  C14S12392   5.020   2.371  13.828 -0.4438  0.2616 -0.2618
   9223SM  H14S12393   5.010   2.292  13.905  2.4586 -0.3695 -0.4365
   9223SM  H14T12394   4.914   2.401  13.811 -0.6209 -0.7529 -1.0496
   9223SM  C15S12395   5.125   2.480  13.871  0.5950 -0.0214  0.4455
   9223SM  H15S12396   5.128   2.569  13.805 -2.0386  0.6252  1.0675
   9223SM  H15T12397   5.223   2.432  13.848  1.1371  1.2650  0.0111
   9223SM  C16S12398   5.108   2.520  14.019  0.0215 -0.6211  0.4774
   9223SM  H16S12399   5.081   2.435  14.086  0.5364 -2.8552 -1.9601
   9223SM  H16T12400   5.016   2.582  14.018 -0.2790 -1.0560 -0.0033
   9223SM  C17S12401   5.229   2.603  14.066  0.2720  0.1632 -0.0154
   9223SM  H17S12402   5.259   2.685  13.998  1.8419 -0.7353 -0.4737
   9223SM  H17T12403   5.322   2.542  14.076 -0.8492 -1.4985  0.6669
   9223SM  C18S12404   5.216   2.654  14.204 -0.1285  0.4974 -0.0651
   9223SM  H18S12405   5.125   2.618  14.256  1.2297 -1.6889  0.9799
   9223SM  H18T12406   5.207   2.764  14.203 -3.0450  0.3926  2.0924
   9223SM  H18U12407   5.303   2.628  14.269  0.7439  0.5885 -1.1688
   9223SM   C1F12408   5.331   1.980  12.473  0.2611 -0.1401  0.2503
   9223SM    OF12409   5.441   1.927  12.475  0.8879 -1.1008 -0.2588
   9223SM   C2F12410   5.216   1.890  12.453  0.2416  0.1647 -0.0019
   9223SM   H2F12411   5.250   1.795  12.407 -0.2579  1.0310 -2.2926
   9223SM   H2G12412   5.144   1.931  12.379 -0.5982 -1.1448  0.0585
   9223SM   C3F12413   5.150   1.852  12.584 -0.2943 -0.2682 -0.0902
   9223SM   H3F12414   5.229   1.829  12.658 -0.2253  2.2994  0.7625
   9223SM   H3G12415   5.096   1.756  12.569 -0.4328 -0.0064 -1.3537
   9223SM   C4F12416   5.049   1.958  12.627  0.3378  0.4677  0.4660
   9223SM   H4F12417   4.970   1.969  12.550 -0.5899 -1.0628  1.1650
   9223SM   H4G12418   5.103   2.053  12.645 -0.3732  0.7100  1.3739
   9223SM   C5F12419   4.980   1.925  12.756 -0.3034  0.1420 -0.4216
   9223SM   H5F12420   4.923   1.831  12.737  0.8069 -0.8910  1.0597
   9223SM   H5G12421   4.916   2.009  12.789  1.8727  1.6365  0.1833
   9223SM   C6F12422   5.058   1.903  12.886  0.0906  0.4792 -0.3998
   9223SM   H6F12423   5.098   2.004  12.909 -0.0901  0.4658 -0.0379
   9223SM   H6G12424   5.136   1.825  12.868 -0.0422  0.3997 -0.6441
   9223SM   C7F12425   4.973   1.854  13.008 -0.3131 -0.1255 -0.7544
   9223SM   H7F12426   4.892   1.785  12.976  0.1750  0.0266 -2.4272
   9223SM   H7G12427   4.923   1.944  13.048 -2.7704 -1.3988 -0.7608
   9223SM   C8F12428   5.053   1.777  13.114 -0.4343 -0.4835  0.6461
   9223SM   H8F12429   5.120   1.846  13.170 -0.8746  2.5024 -2.2053
   9223SM   H8G12430   5.114   1.703  13.058 -0.4189  0.6366 -0.8893
   9223SM   C9F12431   4.979   1.690  13.210  0.6732  0.3388  0.4815
   9223SM   H9F12432   4.950   1.603  13.147  0.4927  2.5077 -2.6350
   9223SM   H9G12433   4.884   1.743  13.236 -0.5740 -2.8639  3.2600
   9223SM  C10F12434   5.050   1.663  13.340 -0.0642  0.5909  0.4006
   9223SM  H10F12435   4.981   1.600  13.399 -1.5753  1.3125 -0.5544
   9223SM  H10G12436   5.077   1.760  13.387  1.0250  0.9635 -0.9321
   9223SM  C11F12437   5.165   1.567  13.318 -1.2783  0.2038  0.2430
   9223SM  H11F12438   5.237   1.617  13.250  0.3035  0.2821  1.9006
   9223SM  H11G12439   5.116   1.484  13.263 -1.8816  1.0223 -0.4884
   9223SM  C12F12440   5.231   1.520  13.441 -0.4695 -0.4028  0.5799
   9223SM  H12F12441   5.280   1.421  13.426 -0.4287 -0.1947 -0.8346
   9223SM  H12G12442   5.147   1.506  13.512 -1.8142  0.3380 -0.8203
   9223SM  C13F12443   5.344   1.615  13.501  0.2171  0.2054 -0.0785
   9223SM  H13F12444   5.303   1.712  13.537  0.3523  0.1378  0.2600
   9223SM  H13G12445   5.409   1.627  13.411 -0.8540 -0.7723 -1.0057
   9223SM  C14F12446   5.415   1.542  13.615 -0.0093 -0.1697 -0.4346
   9223SM  H14F12447   5.478   1.459  13.574 -0.4396  0.3022 -2.0972
   9223SM  H14G12448   5.345   1.515  13.697  0.6293  1.3328  0.6393
   9223SM  C15F12449   5.528   1.628  13.684 -0.3897  0.2764  0.7450
   9223SM  H15F12450   5.486   1.716  13.738 -0.3680 -0.2393  1.6310
   9223SM  H15G12451   5.582   1.684  13.605 -1.0468  1.7154  1.2654
   9223SM  C16F12452   5.633   1.549  13.775 -0.1851  0.1419 -0.2046
   9223SM  H16F12453   5.691   1.614  13.844 -1.2356  1.1862 -0.2776
   9223SM  H16G12454   5.698   1.487  13.710 -0.6683 -1.5988  0.9102
   9223SM  C17F12455   5.567   1.440  13.862  0.3143 -0.5793 -0.0511
   9223SM  H17F12456   5.647   1.383  13.914  0.9193 -1.6697 -2.0761
   9223SM  H17G12457   5.509   1.373  13.794  0.5058 -0.9933  0.1925
   9223SM  C18F12458   5.467   1.494  13.972 -0.6387 -0.6986  0.1736
   9223SM  H18F12459   5.396   1.558  13.916  1.9921  1.6253 -0.7304
   9223SM  H18G12460   5.529   1.556  14.040 -0.3373 -0.4652 -0.3091
   9223SM  C19F12461   5.415   1.383  14.053  0.1319  1.3274 -0.2951
   9223SM  H19F12462   5.490   1.335  14.120 -0.9587 -0.4712 -0.3055
   9223SM  H19G12463   5.374   1.303  13.989 -0.1621 -0.3056  1.8353
   9223SM  C20F12464   5.309   1.425  14.154  0.1923  0.2015  0.4662
   9223SM  H20F12465   5.245   1.338  14.176 -0.2033  0.8594  2.0673
   9223SM  H20G12466   5.249   1.507  14.109  0.6952  0.3833  0.1175
   9223SM  C21F12467   5.361   1.472  14.290 -0.0049  0.0206  0.5949
   9223SM  H21F12468   5.443   1.544  14.272 -1.0379  1.2654  0.7399
   9223SM  H21G12469   5.410   1.384  14.336 -1.8465 -0.7458  1.2008
   9223SM  C22F12470   5.261   1.542  14.377 -0.8040 -0.4611 -1.0499
   9223SM  H22F12471   5.226   1.633  14.324  0.0991  1.8408  2.0603
   9223SM  H22G12472   5.321   1.579  14.462 -0.0075 -0.3014 -1.6743
   9223SM  C23F12473   5.137   1.462  14.424  0.1725  0.0183  0.1261
   9223SM  H23F12474   5.068   1.534  14.473 -0.5946 -0.6764  0.0918
   9223SM  H23G12475   5.159   1.386  14.501 -2.7595 -1.4497 -0.3357
   9223SM  H23H12476   5.085   1.408  14.342 -0.7734 -0.3952  0.9767
   9323SM     N12477   7.054   3.686  12.567 -0.2658  0.3996  0.2793
   9323SM   C1512478   6.939   3.751  12.634  0.4515 -0.3270 -0.2000
   9323SM  H15A12479   6.939   3.858  12.624  0.4401 -0.3314 -0.2508
   9323SM  H15B12480   6.953   3.736  12.740  2.3770  3.7202  0.2972
   9323SM  H15C12481   6.850   3.719  12.582  0.3315  0.5632 -0.5547
   9323SM   C1412482   7.038   3.539  12.595  0.4662 -0.4195  0.4461
   9323SM  H14A12483   7.113   3.475  12.550  0.0616 -0.8661  0.3956
   9323SM  H14B12484   6.947   3.488  12.566  1.7103 -1.5739 -1.7330
   9323SM  H14C12485   7.036   3.527  12.703  0.9077  1.7945  0.7314
   9323SM   C1312486   7.046   3.698  12.412 -0.0550 -0.2176  0.5794
   9323SM  H13A12487   7.051   3.800  12.374 -0.9342 -0.3447  0.0787
   9323SM  H13B12488   6.945   3.664  12.395 -0.4046 -0.3236  2.5848
   9323SM  H13C12489   7.110   3.628  12.361  1.4643  0.6145  1.2926
   9323SM   C1212490   7.188   3.739  12.623 -0.1001  0.3158  0.3293
   9323SM  H12A12491   7.265   3.676  12.581 -0.0156  0.0544  0.8672
   9323SM  H12B12492   7.192   3.731  12.730  0.7200 -0.1219  0.2770
   9323SM   C1112493   7.223   3.888  12.594  0.0372  0.2320 -0.3065
   9323SM  H11A12494   7.308   3.910  12.662 -1.8108  1.5354  1.7113
   9323SM  H11B12495   7.145   3.953  12.638 -0.3779 -0.3301 -0.2082
   9323SM     P12496   7.200   4.048  12.391 -0.1664  0.2475 -0.5795
   9323SM   O1312497   7.271   4.065  12.262  0.2730 -0.0561 -0.1546
   9323SM   O1412498   7.051   4.065  12.385 -0.3237  0.8852  0.7018
   9323SM   O1112499   7.261   4.145  12.500 -0.3342  0.0112 -0.6012
   9323SM   O1212500   7.252   3.911  12.453  0.2916  0.1700  0.2544
   9323SM   C1S12501   7.193   4.220  12.600  0.0323 -0.0878  0.9216
   9323SM   H1S12502   7.094   4.172  12.619  0.9082 -1.6733  1.7327
   9323SM   H1T12503   7.180   4.325  12.568  1.1986 -0.2909 -0.2860
   9323SM    NF12504   7.184   4.264  12.838  0.3038 -0.2324  0.2707
   9323SM   HNF12505   7.177   4.363  12.849  0.1796 -0.3662  1.5477
   9323SM   C2S12506   7.277   4.221  12.734  0.1341  0.4450 -0.3506
   9323SM   H2S12507   7.295   4.114  12.757  0.2171  0.6616  0.6214
   9323SM   C3S12508   7.411   4.303  12.725  0.0328  0.0304  0.9556
   9323SM   H3S12509   7.396   4.410  12.697  0.7444 -0.5785 -2.2117
   9323SM    O312510   7.498   4.260  12.625  0.1198 -0.2294  0.0048
   9323SM   HO312511   7.442   4.193  12.584 -1.6525  0.6927  0.8182
   9323SM   C4S12512   7.482   4.291  12.855 -0.4792  0.6924 -0.1375
   9323SM   H4S12513   7.511   4.189  12.886 -0.3870  0.8955  0.4522
   9323SM   C5S12514   7.518   4.391  12.937  0.1366 -0.1665  0.2783
   9323SM   H5S12515   7.486   4.494  12.913 -0.3238 -0.3745 -0.0133
   9323SM   C6S12516   7.579   4.381  13.068  0.0140  0.0146 -0.1168
   9323SM   H6S12517   7.657   4.460  13.058 -0.0773 -0.0924 -2.1105
   9323SM   H6T12518   7.620   4.279  13.086 -1.2547 -0.5280 -0.2055
   9323SM   C7S12519   7.480   4.430  13.167 -0.4818  0.8942  0.4822
   9323SM   H7S12520   7.384   4.374  13.162 -1.1910  2.1702 -0.8399
   9323SM   H7T12521   7.467   4.539  13.154  0.0487  1.0884  1.4888
   9323SM   C8S12522   7.522   4.417  13.318  0.0997 -0.8239  0.1466
   9323SM   H8S12523   7.607   4.489  13.322  1.6521 -2.6487  1.8817
   9323SM   H8T12524   7.561   4.315  13.337  2.4200 -0.1875 -0.7980
   9323SM   C9S12525   7.409   4.454  13.419 -0.0932 -0.4971  0.9925
   9323SM   H9S12526   7.313   4.406  13.388  0.5561 -0.1554 -1.8181
   9323SM   H9T12527   7.395   4.563  13.404  0.2421 -0.4840  0.7808
   9323SM  C10S12528   7.449   4.428  13.561  0.6243 -0.4766  0.2042
   9323SM  H10S12529   7.490   4.325  13.562  2.4372  0.1193 -2.2481
   9323SM  H10T12530   7.364   4.430  13.632  0.7150  4.0067  0.4983
   9323SM  C11S12531   7.552   4.529  13.617  0.0268  0.1608 -0.2242
   9323SM  H11S12532   7.542   4.631  13.574  0.9475  1.1469  1.7527
   9323SM  H11T12533   7.658   4.504  13.593  0.6104  1.4589  0.8675
   9323SM  C12S12534   7.541   4.535  13.770 -0.2631 -0.0122 -1.1845
   9323SM  H12S12535   7.536   4.432  13.811 -0.1471  0.6246  0.5133
   9323SM  H12T12536   7.454   4.594  13.805  1.0694  1.3617 -0.0378
   9323SM  C13S12537   7.662   4.602  13.838  0.4068  0.2538 -0.1296
   9323SM  H13S12538   7.682   4.706  13.806 -0.0249 -0.0431 -1.4449
   9323SM  H13T12539   7.748   4.534  13.815  0.2741 -0.1303  0.5054
   9323SM  C14S12540   7.652   4.594  13.991  0.0182 -0.2437 -0.4973
   9323SM  H14S12541   7.644   4.488  14.024  0.3642 -0.1572 -0.1280
   9323SM  H14T12542   7.564   4.651  14.026 -0.5107 -1.1256 -0.3729
   9323SM  C15S12543   7.783   4.628  14.060 -0.2489 -0.4831  0.2373
   9323SM  H15S12544   7.868   4.577  14.011 -1.2579 -1.4371 -0.5805
   9323SM  H15T12545   7.800   4.737  14.061  2.0723 -0.7924  1.8159
   9323SM  C16S12546   7.788   4.569  14.206 -0.0106 -0.6052 -0.1714
   9323SM  H16S12547   7.895   4.583  14.233  0.3486  3.8087 -2.9779
   9323SM  H16T12548   7.753   4.463  14.206 -0.8817 -0.3234 -0.4973
   9323SM  C17S12549   7.701   4.654  14.299 -0.4754 -0.2520  0.3699
   9323SM  H17S12550   7.592   4.633  14.292 -0.8174  0.3489  2.8851
   9323SM  H17T12551   7.726   4.759  14.277  1.8362 -0.5983  1.1440
   9323SM  C18S12552   7.726   4.629  14.449 -0.8161 -0.0643 -0.3336
   9323SM  H18S12553   7.826   4.672  14.476 -0.6943 -0.8265  0.4537
   9323SM  H18T12554   7.711   4.521  14.466  1.2712 -0.3590 -0.0622
   9323SM  H18U12555   7.653   4.688  14.509 -1.1902 -1.7402  0.9245
   9323SM   C1F12556   7.078   4.192  12.881  0.3816  0.4611 -0.0335
   9323SM    OF12557   7.072   4.076  12.845  0.0879 -0.0552  0.2626
   9323SM   C2F12558   6.985   4.264  12.970  0.1943  0.4383  0.7677
   9323SM   H2F12559   6.888   4.212  12.954 -0.2547  1.8958 -1.6357
   9323SM   H2G12560   6.976   4.372  12.949  1.2527  0.5090  0.6394
   9323SM   C3F12561   7.029   4.249  13.118 -0.3480  0.0488 -0.7313
   9323SM   H3F12562   7.138   4.264  13.129 -0.5838  0.8426  0.6886
   9323SM   H3G12563   7.002   4.147  13.153 -1.3331  1.3068  2.5484
   9323SM   C4F12564   6.950   4.340  13.210  0.0321 -0.1088  0.4150
   9323SM   H4F12565   6.842   4.316  13.200 -0.6708  2.7811  0.1728
   9323SM   H4G12566   6.956   4.449  13.189 -3.0758  0.2629  1.0831
   9323SM   C5F12567   7.002   4.317  13.358 -0.1709 -0.3883  0.3670
   9323SM   H5F12568   7.111   4.329  13.371  0.0614 -0.7151 -1.1360
   9323SM   H5G12569   6.977   4.213  13.387 -0.1982 -0.8061 -1.0788
   9323SM   C6F12570   6.941   4.419  13.454 -0.7469  0.2004 -0.0555
   9323SM   H6F12571   6.830   4.412  13.459 -0.6649 -0.5178  1.0975
   9323SM   H6G12572   6.967   4.522  13.421 -2.2770  0.9850  1.0459
   9323SM   C7F12573   6.999   4.390  13.590  0.3796 -0.6598 -0.2942
   9323SM   H7F12574   7.108   4.379  13.573  0.0816 -2.1071 -1.4784
   9323SM   H7G12575   6.952   4.300  13.634  1.6424 -0.8262  0.7607
   9323SM   C8F12576   6.976   4.511  13.692  0.4133 -0.3491  0.7644
   9323SM   H8F12577   6.868   4.518  13.715  0.7500  0.9416  2.1305
   9323SM   H8G12578   7.004   4.597  13.627 -2.5067 -0.8229 -1.3124
   9323SM   C9F12579   7.049   4.515  13.830  0.8423  0.6069  0.0899
   9323SM   H9F12580   7.145   4.460  13.818  1.7521  2.0376  0.5880
   9323SM   H9G12581   6.991   4.450  13.898  1.9833 -1.9592 -1.2521
   9323SM  C10F12582   7.083   4.659  13.879 -0.0900 -0.4195 -0.1852
   9323SM  H10F12583   6.985   4.708  13.866 -1.0074 -1.8743  0.9632
   9323SM  H10G12584   7.149   4.714  13.809  0.2413  2.2243  2.0551
   9323SM  C11F12585   7.131   4.677  14.017 -0.1639 -0.1623 -0.6473
   9323SM  H11F12586   7.230   4.626  14.021 -0.2968 -0.5354 -1.7178
   9323SM  H11G12587   7.058   4.630  14.086  0.0956  0.7274  0.2639
   9323SM  C12F12588   7.147   4.825  14.059  0.1071 -0.6287  1.0217
   9323SM  H12F12589   7.053   4.866  14.102  0.4350 -0.0262  1.1704
   9323SM  H12G12590   7.189   4.884  13.975 -2.3281  0.6127  0.5856
   9323SM  C13F12591   7.245   4.848  14.170 -0.1771 -0.1922 -1.1270
   9323SM  H13F12592   7.338   4.801  14.132 -0.4337 -2.4908  0.8848
   9323SM  H13G12593   7.217   4.799  14.265  1.2546  0.3212 -0.4122
   9323SM  C14F12594   7.255   5.001  14.194  0.2695  0.3420 -0.3630
   9323SM  H14F12595   7.156   5.024  14.240 -0.6403 -1.3954 -1.3477
   9323SM  H14G12596   7.266   5.052  14.097 -0.3391  1.5009  0.1492
   9323SM  C15F12597   7.363   5.035  14.300  0.1054  0.0154  0.4169
   9323SM  H15F12598   7.461   5.011  14.253 -1.0078  0.6532 -2.4217
   9323SM  H15G12599   7.347   4.967  14.386 -0.3837 -0.1808  0.1716
   9323SM  C16F12600   7.371   5.186  14.330  0.9737  0.6749 -0.4846
   9323SM  H16F12601   7.268   5.225  14.315  0.8237  0.5946  0.2954
   9323SM  H16G12602   7.437   5.228  14.252 -0.1599  0.2792 -1.6911
   9323SM  C17F12603   7.427   5.215  14.471  0.8454 -0.8366 -0.3840
   9323SM  H17F12604   7.384   5.147  14.548  0.5008 -0.5586 -0.3313
   9323SM  H17G12605   7.398   5.320  14.491 -0.1221 -1.3588  1.1035
   9323SM  C18F12606   7.578   5.197  14.482  0.9977  0.0768  0.5880
   9323SM  H18F12607   7.635   5.259  14.409  0.0200 -1.1136 -1.2869
   9323SM  H18G12608   7.610   5.094  14.455  2.0507  0.9033 -1.5859
   9323SM  C19F12609   7.638   5.219  14.625  0.7746 -0.0514  0.4088
   9323SM  H19F12610   7.607   5.138  14.693 -0.8938 -0.5492 -0.8748
   9323SM  H19G12611   7.609   5.311  14.680  0.4772  0.5325 -0.6934
   9323SM  C20F12612   7.792   5.227  14.622  0.1011 -0.9079 -0.0086
   9323SM  H20F12613   7.823   5.327  14.583 -0.8293 -0.3173  0.7067
   9323SM  H20G12614   7.824   5.147  14.553 -0.7580  2.2345 -4.4621
   9323SM  C21F12615   7.857   5.214  14.760  0.3848  0.0265  0.1420
   9323SM  H21F12616   7.818   5.117  14.797  0.6162 -0.1686 -0.1249
   9323SM  H21G12617   7.834   5.304  14.822 -1.0532  0.4661 -0.9928
   9323SM  C22F12618   8.008   5.197  14.743 -0.1095 -0.1818  0.3139
   9323SM  H22F12619   8.045   5.284  14.686 -0.0176  0.5087  1.4031
   9323SM  H22G12620   8.035   5.114  14.674  1.5337  0.4634  0.1368
   9323SM  C23F12621   8.099   5.202  14.866  0.6073 -0.0642  0.1836
   9323SM  H23F12622   8.197   5.212  14.816 -0.7431  1.4046 -2.3786
   9323SM  H23G12623   8.104   5.107  14.924  0.0746 -1.0707 -1.3438
   9323SM  H23H12624   8.075   5.286  14.934 -0.0995 -0.8260  0.9068
   9423SM     N12625   3.960   7.168  11.930  0.6232 -0.0734  0.0717
   9423SM   C1512626   3.890   7.061  11.854 -0.2108 -0.0642 -0.6769
   9423SM  H15A12627   3.882   7.088  11.750  0.5919  0.5751 -0.5805
   9423SM  H15B12628   3.788   7.053  11.889  0.1262 -0.0580  0.3564
   9423SM  H15C12629   3.931   6.962  11.869 -0.8766  0.1481  4.6771
   9423SM   C1412630   4.080   7.221  11.853 -0.1926  0.3816  1.0302
   9423SM  H14A12631   4.152   7.143  11.873 -0.1830 -0.1289 -0.7895
   9423SM  H14B12632   4.124   7.309  11.896  0.7719  0.4775 -0.0931
   9423SM  H14C12633   4.061   7.233  11.747  1.4516 -1.6239  0.4411
   9423SM   C1312634   3.870   7.294  11.930  0.1233  0.5029 -0.2205
   9423SM  H13A12635   3.920   7.372  11.986  0.8672 -0.0361 -0.1159
   9423SM  H13B12636   3.776   7.265  11.973  0.5345 -0.3249  0.1372
   9423SM  H13C12637   3.856   7.327  11.828  0.8469 -2.1059 -1.2495
   9423SM   C1212638   3.992   7.135  12.071  0.1750  0.0245 -0.1926
   9423SM  H12A12639   3.895   7.115  12.114  0.5715  0.7359  1.0981
   9423SM  H12B12640   4.026   7.221  12.127 -0.8918  0.8135 -0.7327
   9423SM   C1112641   4.071   7.005  12.095  0.1429  0.4116  0.4590
   9423SM  H11A12642   4.021   6.919  12.046  0.7100 -0.3281  1.1531
   9423SM  H11B12643   4.070   6.961  12.197  0.5588 -0.1518  0.2278
   9423SM     P12644   4.302   7.117  12.113  0.1169  0.2443 -0.5258
   9423SM   O1312645   4.438   7.058  12.102  0.3844 -0.5891  0.5669
   9423SM   O1412646   4.282   7.255  12.070  0.7809 -0.2199  0.0905
   9423SM   O1112647   4.255   7.109  12.264  0.1300 -0.4933 -0.1021
   9423SM   O1212648   4.207   7.017  12.047 -0.4509 -0.3307  0.9965
   9423SM   C1S12649   4.309   6.996  12.335  0.0591 -0.3471  0.0544
   9423SM   H1S12650   4.419   6.993  12.323  0.0704 -0.0434  0.0734
   9423SM   H1T12651   4.269   6.898  12.301 -1.1909  0.0277  0.3739
   9423SM    NF12652   4.311   6.880  12.558 -0.5285 -0.0268  0.0428
   9423SM   HNF12653   4.247   6.806  12.578 -1.2758 -0.0071 -2.0441
   9423SM   C2S12654   4.252   6.998  12.494  0.0017  0.0786  0.0010
   9423SM   H2S12655   4.296   7.078  12.557 -0.6153 -0.9358  1.7806
   9423SM   C3S12656   4.099   7.016  12.499 -0.0976 -0.4309 -0.1873
   9423SM   H3S12657   4.044   6.937  12.444 -1.8110  1.7368 -1.7555
   9423SM    O312658   4.060   7.147  12.449  0.1269  0.5832 -0.0691
   9423SM   HO312659   4.133   7.184  12.399 -1.6734  0.9617 -2.6222
   9423SM   C4S12660   4.050   7.020  12.645 -0.1988 -0.7848 -0.8457
   9423SM   H4S12661   4.116   7.075  12.714 -1.3551 -2.4469  1.7608
   9423SM   C5S12662   3.949   6.948  12.688  0.6952  0.2245 -0.1421
   9423SM   H5S12663   3.893   6.887  12.616  1.0700  0.2164 -0.4333
   9423SM   C6S12664   3.912   6.925  12.838  0.0548  0.5109 -0.7614
   9423SM   H6S12665   3.803   6.902  12.842  0.0370  0.4760 -1.3704
   9423SM   H6T12666   3.935   7.021  12.889 -1.3354  2.8127 -4.1131
   9423SM   C7S12667   3.989   6.805  12.901  0.0582  0.1889 -0.7567
   9423SM   H7S12668   4.099   6.811  12.908  0.2237 -1.5881 -1.3490
   9423SM   H7T12669   3.973   6.713  12.840  1.6617 -1.8373  1.6773
   9423SM   C8S12670   3.931   6.777  13.041  0.2109 -0.1233  0.1005
   9423SM   H8S12671   3.984   6.681  13.060 -0.0329 -0.3748 -0.4905
   9423SM   H8T12672   3.823   6.754  13.037  0.1735  0.1009 -0.1924
   9423SM   C9S12673   3.967   6.878  13.157 -0.0931  0.4149 -0.0513
   9423SM   H9S12674   3.936   6.983  13.137 -0.8563  0.7262  2.4861
   9423SM   H9T12675   4.078   6.879  13.144 -0.1858 -1.7004 -1.4250
   9423SM  C10S12676   3.921   6.829  13.291 -0.1631 -0.3946  0.1945
   9423SM  H10S12677   3.813   6.807  13.284 -0.3549  0.4821  0.2558
   9423SM  H10T12678   3.929   6.914  13.363  0.8404 -1.9214  1.9712
   9423SM  C11S12679   4.010   6.718  13.356  0.0797 -0.0656  0.6317
   9423SM  H11S12680   4.114   6.755  13.353  0.7620 -1.8332  0.8011
   9423SM  H11T12681   4.000   6.630  13.289  0.4380 -0.2572  0.8247
   9423SM  C12S12682   3.952   6.680  13.493  0.8386 -0.0497 -0.6811
   9423SM  H12S12683   4.008   6.589  13.524  1.6459 -1.0457 -4.4808
   9423SM  H12T12684   3.843   6.662  13.484  0.5697  1.1876 -0.0489
   9423SM  C13S12685   3.972   6.789  13.601  0.2890  1.0409  0.2318
   9423SM  H13S12686   3.930   6.749  13.696  0.2750 -1.5755 -0.7775
   9423SM  H13T12687   3.919   6.883  13.574 -1.3699 -0.3021 -1.4634
   9423SM  C14S12688   4.118   6.823  13.647  0.4056  0.2778  0.6693
   9423SM  H14S12689   4.168   6.900  13.584 -0.3770  1.3708  1.3536
   9423SM  H14T12690   4.188   6.737  13.648 -0.0921 -0.1583 -0.5762
   9423SM  C15S12691   4.117   6.896  13.785 -0.4653  0.6427  0.4527
   9423SM  H15S12692   4.088   6.819  13.859  0.8101 -0.9606 -0.6287
   9423SM  H15T12693   4.033   6.969  13.777 -1.0636 -0.0849 -0.0806
   9423SM  C16S12694   4.258   6.956  13.810 -0.3566  0.0809 -0.2578
   9423SM  H16S12695   4.303   7.010  13.723 -1.1931  1.1221 -0.0575
   9423SM  H16T12696   4.317   6.866  13.838  0.7050  0.7398 -0.3417
   9423SM  C17S12697   4.256   7.059  13.927  0.5070  0.1101  0.0105
   9423SM  H17S12698   4.242   7.009  14.025 -0.4273 -1.9777 -1.1366
   9423SM  H17T12699   4.169   7.121  13.895  1.6257  0.6766 -2.0796
   9423SM  C18S12700   4.377   7.144  13.918  0.8300 -0.0559 -0.1260
   9423SM  H18S12701   4.385   7.188  13.816  0.0686 -3.1214 -1.6092
   9423SM  H18T12702   4.470   7.087  13.938 -0.4749 -1.7803  1.2472
   9423SM  H18U12703   4.382   7.233  13.984  2.4107  0.6780 -1.1322
   9423SM   C1F12704   4.443   6.864  12.560  0.4880 -0.2614  0.1790
   9423SM    OF12705   4.516   6.964  12.539 -0.1610 -0.0281 -0.0343
   9423SM   C2F12706   4.495   6.720  12.572 -0.1633 -0.2174 -0.3140
   9423SM   H2F12707   4.583   6.709  12.504 -0.7203 -1.3968 -0.8681
   9423SM   H2G12708   4.428   6.637  12.542  0.4747 -0.9846  0.3188
   9423SM   C3F12709   4.535   6.699  12.717 -0.4198 -0.1094 -0.0475
   9423SM   H3F12710   4.575   6.794  12.759  1.4484 -0.1493 -1.5635
   9423SM   H3G12711   4.612   6.619  12.712 -1.3010 -0.9838  0.1037
   9423SM   C4F12712   4.418   6.659  12.801 -0.0447 -0.1480  0.5783
   9423SM   H4F12713   4.392   6.561  12.757 -0.0032  0.5566 -1.0895
   9423SM   H4G12714   4.328   6.721  12.779  0.4017  0.9857  1.8155
   9423SM   C5F12715   4.454   6.642  12.952 -0.1647 -0.3647 -0.5460
   9423SM   H5F12716   4.525   6.725  12.974 -0.3754 -0.4710  0.6315
   9423SM   H5G12717   4.503   6.546  12.979  1.6108  0.5222 -0.4088
   9423SM   C6F12718   4.342   6.649  13.057  0.4579 -0.4220 -0.4723
   9423SM   H6F12719   4.260   6.589  13.011  1.7551 -0.2074 -3.3136
   9423SM   H6G12720   4.300   6.751  13.048 -0.0182 -0.6398 -0.7771
   9423SM   C7F12721   4.372   6.626  13.210 -0.0602 -0.0987  0.5088
   9423SM   H7F12722   4.416   6.530  13.246 -0.2390  0.1130  1.3087
   9423SM   H7G12723   4.275   6.635  13.262  0.7332 -0.2638  2.0878
   9423SM   C8F12724   4.470   6.745  13.252  0.0741  0.1721 -0.0368
   9423SM   H8F12725   4.456   6.837  13.190 -0.0793  1.7850  2.2716
   9423SM   H8G12726   4.571   6.703  13.237  0.4282  1.3166 -1.0268
   9423SM   C9F12727   4.453   6.786  13.399 -0.1711 -0.7072 -0.2209
   9423SM   H9F12728   4.354   6.828  13.426 -0.5174 -1.1978 -0.7120
   9423SM   H9G12729   4.531   6.865  13.412 -0.2378 -0.4449 -1.3132
   9423SM  C10F12730   4.494   6.693  13.505 -0.3197  0.3869  0.1003
   9423SM  H10F12731   4.595   6.654  13.479 -0.7889 -0.3376 -0.7195
   9423SM  H10G12732   4.424   6.607  13.514  1.3218 -0.9779  0.6017
   9423SM  C11F12733   4.504   6.752  13.646 -0.6191 -0.7037  0.1308
   9423SM  H11F12734   4.399   6.767  13.679 -0.3418 -0.4143  0.8925
   9423SM  H11G12735   4.548   6.854  13.645  0.5221 -0.9822  4.3250
   9423SM  C12F12736   4.570   6.651  13.738 -0.2586  0.0481  0.3578
   9423SM  H12F12737   4.669   6.615  13.701  0.4679  1.4846  0.8489
   9423SM  H12G12738   4.508   6.559  13.728  1.8249 -1.5827  1.6634
   9423SM  C13F12739   4.579   6.697  13.885  0.0324 -0.1313 -0.1250
   9423SM  H13F12740   4.477   6.712  13.926  0.2794  0.8842  0.1419
   9423SM  H13G12741   4.637   6.789  13.906 -0.0606 -0.3431  1.1280
   9423SM  C14F12742   4.649   6.586  13.955 -0.1893  0.3346  0.3883
   9423SM  H14F12743   4.660   6.622  14.060  1.6081 -0.7026  0.5912
   9423SM  H14G12744   4.752   6.567  13.918 -0.5483 -2.0844  0.5295
   9423SM  C15F12745   4.564   6.451  13.960  0.2742  0.0761 -0.4248
   9423SM  H15F12746   4.564   6.396  13.864  1.5346  1.5851 -1.3527
   9423SM  H15G12747   4.458   6.475  13.985  0.2608 -1.4096  1.1451
   9423SM  C16F12748   4.631   6.348  14.063  0.2036  0.6088 -0.4229
   9423SM  H16F12749   4.599   6.381  14.164  0.1386  1.1288 -0.6085
   9423SM  H16G12750   4.739   6.372  14.050  0.0542  0.3390 -2.4163
   9423SM  C17F12751   4.597   6.206  14.031  0.4690 -0.3244 -0.1250
   9423SM  H17F12752   4.628   6.181  13.927 -2.7434 -1.4563 -0.9332
   9423SM  H17G12753   4.486   6.195  14.032  0.3715  0.2698  2.1200
   9423SM  C18F12754   4.656   6.100  14.123 -0.1620 -0.0322  0.3526
   9423SM  H18F12755   4.607   6.105  14.223  0.7842  0.7082  0.7986
   9423SM  H18G12756   4.761   6.133  14.133 -0.3766  0.2190  2.2187
   9423SM  C19F12757   4.656   5.955  14.071 -0.0318  0.1574  0.5934
   9423SM  H19F12758   4.716   5.892  14.140  0.8873 -0.1369 -0.4397
   9423SM  H19G12759   4.725   5.953  13.984  0.4239  0.5140  0.9422
   9423SM  C20F12760   4.514   5.899  14.051  0.4788 -0.0118  0.1825
   9423SM  H20F12761   4.454   5.969  13.988  0.0633 -1.1355 -0.7027
   9423SM  H20G12762   4.455   5.894  14.145 -1.2722 -0.0831 -0.8744
   9423SM  C21F12763   4.516   5.770  13.975 -0.0980  0.3531 -0.8214
   9423SM  H21F12764   4.565   5.796  13.879 -0.2243  1.6643 -0.5492
   9423SM  H21G12765   4.413   5.745  13.942  0.1956  0.9208 -2.2358
   9423SM  C22F12766   4.604   5.654  14.052 -0.1511  1.0160  0.1774
   9423SM  H22F12767   4.564   5.621  14.150  4.6609  0.8511  2.3695
   9423SM  H22G12768   4.704   5.700  14.063  0.6848 -0.1434 -1.9367
   9423SM  C23F12769   4.629   5.524  13.981 -0.2945  0.5521  1.2201
   9423SM  H23F12770   4.656   5.537  13.874 -1.5845 -1.1198  0.6243
   9423SM  H23G12771   4.527   5.482  13.965  0.7660 -1.7491  0.0246
   9423SM  H23H12772   4.697   5.451  14.030  2.4317  0.2365 -2.5944
   9523SM     N12773   2.681   3.357  12.371  0.0692  0.1175  0.5752
   9523SM   C1512774   2.642   3.346  12.227  0.2089  0.2356  0.7667
   9523SM  H15A12775   2.705   3.417  12.175  0.1256  0.8275  1.4490
   9523SM  H15B12776   2.539   3.371  12.207  0.3591 -0.3299 -0.8612
   9523SM  H15C12777   2.661   3.248  12.187 -0.4883  0.4335 -0.1014
   9523SM   C1412778   2.827   3.339  12.374  0.8878  0.5741 -0.4425
   9523SM  H14A12779   2.863   3.314  12.473 -1.2742  3.3647  1.1990
   9523SM  H14B12780   2.876   3.435  12.367  1.3753  0.5146  1.6198
   9523SM  H14C12781   2.870   3.274  12.299  0.5578 -0.0763 -0.0721
   9523SM   C1312782   2.648   3.495  12.419  0.4054  0.1186 -0.8842
   9523SM  H13A12783   2.698   3.572  12.363 -0.4246  2.3513  1.2627
   9523SM  H13B12784   2.679   3.505  12.522 -0.9816  0.6268 -0.4962
   9523SM  H13C12785   2.541   3.513  12.414  0.3356 -0.1325 -0.4348
   9523SM   C1212786   2.610   3.245  12.452  0.5375 -1.2954 -0.1180
   9523SM  H12A12787   2.503   3.256  12.457  0.6661  1.1562 -1.2317
   9523SM  H12B12788   2.666   3.229  12.543  0.7011 -0.3547 -0.0346
   9523SM   C1112789   2.621   3.105  12.384 -0.4061 -0.3377 -0.4605
   9523SM  H11A12790   2.731   3.092  12.371  0.0886  1.4794  1.3853
   9523SM  H11B12791   2.577   3.098  12.282 -0.3454  1.6911 -0.6676
   9523SM     P12792   2.420   2.974  12.493  0.2691 -0.4560  0.0984
   9523SM   O1312793   2.348   3.098  12.534 -0.3095  0.1915  0.0056
   9523SM   O1412794   2.376   2.905  12.368 -0.7860 -0.0726  0.1598
   9523SM   O1112795   2.413   2.867  12.608 -0.0672 -0.2458 -0.2181
   9523SM   O1212796   2.575   3.004  12.479 -0.1182  0.5965  0.3505
   9523SM   C1S12797   2.451   2.895  12.742  0.1601  0.0065 -1.2102
   9523SM   H1S12798   2.534   2.969  12.748  2.3677 -2.4238  0.6134
   9523SM   H1T12799   2.493   2.804  12.789 -1.1472 -0.3687 -0.7574
   9523SM    NF12800   2.377   2.970  12.963 -0.7089 -0.4569  0.3343
   9523SM   HNF12801   2.369   2.883  13.010  2.0738 -1.8452 -1.5191
   9523SM   C2S12802   2.333   2.947  12.823  0.7460  0.3176 -0.0202
   9523SM   H2S12803   2.292   3.040  12.778 -0.6521 -0.0243  0.4859
   9523SM   C3S12804   2.217   2.848  12.820  0.8769  0.0223 -0.5460
   9523SM   H3S12805   2.256   2.760  12.874  0.4122  1.2308  1.8927
   9523SM    O312806   2.181   2.793  12.688 -0.3955 -0.3214  0.0876
   9523SM   HO312807   2.256   2.822  12.634 -0.4682 -2.7846 -1.5172
   9523SM   C4S12808   2.087   2.884  12.899  0.7012  0.6698  0.6052
   9523SM   H4S12809   2.091   2.842  13.000  1.4758  1.8525  1.0902
   9523SM   C5S12810   1.978   2.953  12.862  0.7382  0.4022 -0.2180
   9523SM   H5S12811   1.971   3.005  12.766 -0.1517 -0.5619 -0.6922
   9523SM   C6S12812   1.857   2.988  12.954 -0.0497  0.6461  0.5989
   9523SM   H6S12813   1.768   2.945  12.904 -0.5213  1.1987  0.9538
   9523SM   H6T12814   1.840   3.097  12.966  0.3038  1.0494 -1.9933
   9523SM   C7S12815   1.879   2.932  13.100  0.1599  0.0146  0.2447
   9523SM   H7S12816   1.975   2.969  13.142  0.1407 -0.5824  0.8294
   9523SM   H7T12817   1.875   2.821  13.099 -0.5277 -0.0159 -2.4541
   9523SM   C8S12818   1.768   2.983  13.186 -0.9492  0.1995 -0.4211
   9523SM   H8S12819   1.676   2.921  13.172 -2.4185  1.9910  0.7813
   9523SM   H8T12820   1.744   3.088  13.159  1.4615  0.5012 -1.6175
   9523SM   C9S12821   1.809   2.982  13.340 -0.0687 -0.1276  0.7695
   9523SM   H9S12822   1.862   2.888  13.369 -1.7995 -1.3541  0.1192
   9523SM   H9T12823   1.710   2.980  13.391 -0.9076 -1.0601 -0.8405
   9523SM  C10S12824   1.894   3.099  13.385  0.6354 -0.1098  1.0539
   9523SM  H10S12825   1.830   3.188  13.365 -0.5976 -0.9337  1.2299
   9523SM  H10T12826   1.987   3.112  13.326 -0.3031 -0.6839 -0.6109
   9523SM  C11S12827   1.919   3.105  13.534 -0.2812 -0.2428  0.0492
   9523SM  H11S12828   1.979   3.018  13.567  0.6901  0.6530  0.6746
   9523SM  H11T12829   1.818   3.100  13.581 -0.5380 -2.2182 -0.6317
   9523SM  C12S12830   2.009   3.224  13.575 -0.0074  0.8530  0.2170
   9523SM  H12S12831   1.973   3.308  13.512  0.0992 -0.9794 -2.4337
   9523SM  H12T12832   2.113   3.200  13.544  0.8326 -1.1862  3.9104
   9523SM  C13S12833   2.029   3.245  13.721 -0.4874 -0.4080  0.2283
   9523SM  H13S12834   2.105   3.326  13.729  0.5523 -1.5485  3.0024
   9523SM  H13T12835   2.053   3.145  13.762 -4.5962 -1.5284  0.4192
   9523SM  C14S12836   1.898   3.299  13.778 -0.5785  0.2009 -0.2303
   9523SM  H14S12837   1.827   3.214  13.772 -0.6823  0.3720 -1.6807
   9523SM  H14T12838   1.849   3.378  13.717 -0.3351 -0.7377 -1.7045
   9523SM  C15S12839   1.923   3.348  13.920 -0.5666 -0.1525  0.8513
   9523SM  H15S12840   2.021   3.401  13.919  0.9581 -2.7222  1.8073
   9523SM  H15T12841   1.946   3.256  13.978 -1.4416 -0.4029  0.8131
   9523SM  C16S12842   1.818   3.431  13.988  0.6094 -0.3728  0.6467
   9523SM  H16S12843   1.720   3.381  13.972  0.6606 -0.0122 -0.9345
   9523SM  H16T12844   1.815   3.530  13.937 -1.5635 -0.0915  1.2110
   9523SM  C17S12845   1.828   3.444  14.141 -0.6397 -0.4985 -0.1245
   9523SM  H17S12846   1.814   3.345  14.190 -1.9696 -1.0144 -1.4916
   9523SM  H17T12847   1.749   3.516  14.171  1.6049  1.6837  0.9044
   9523SM  C18S12848   1.955   3.512  14.184  0.0177 -0.0953  0.2231
   9523SM  H18S12849   1.972   3.532  14.291  1.3666  0.8387 -0.1455
   9523SM  H18T12850   1.959   3.615  14.144  1.0073  0.9531  2.8362
   9523SM  H18U12851   2.050   3.464  14.151  0.7562 -0.4451  2.6836
   9523SM   C1F12852   2.460   3.076  13.003 -0.4819  0.2095  0.2429
   9523SM    OF12853   2.510   3.157  12.923  0.1487 -0.5184  0.3371
   9523SM   C2F12854   2.475   3.078  13.152  0.0927 -0.3321  0.7237
   9523SM   H2F12855   2.505   2.979  13.193  0.2619 -0.3550  0.5444
   9523SM   H2G12856   2.371   3.098  13.187 -0.2860  1.3167 -1.1520
   9523SM   C3F12857   2.573   3.184  13.209 -0.7133  0.5611  0.1595
   9523SM   H3F12858   2.522   3.281  13.193 -0.0048  0.9449  0.1714
   9523SM   H3G12859   2.663   3.192  13.144 -1.3536  3.5075 -0.5227
   9523SM   C4F12860   2.608   3.161  13.360 -0.3340  0.0245  0.9162
   9523SM   H4F12861   2.707   3.211  13.368 -1.5094  2.7934 -0.3543
   9523SM   H4G12862   2.603   3.053  13.386 -0.1742 -0.6642 -1.6586
   9523SM   C5F12863   2.512   3.228  13.452  0.0526 -1.0728 -0.0334
   9523SM   H5F12864   2.413   3.187  13.421 -0.2819  0.7190 -1.5331
   9523SM   H5G12865   2.492   3.335  13.433  0.0527 -0.8872  0.9990
   9523SM   C6F12866   2.532   3.208  13.604 -0.7001  1.3190  0.1279
   9523SM   H6F12867   2.641   3.221  13.622 -0.4387 -1.0070  0.6283
   9523SM   H6G12868   2.500   3.106  13.634 -0.9168  1.1905 -0.5202
   9523SM   C7F12869   2.450   3.308  13.684  0.5486 -0.2329 -0.7409
   9523SM   H7F12870   2.342   3.290  13.666  0.1269  1.8795 -0.5664
   9523SM   H7G12871   2.470   3.411  13.645 -1.1644  0.6675  0.6091
   9523SM   C8F12872   2.497   3.313  13.832  0.8981 -0.9394 -0.6500
   9523SM   H8F12873   2.603   3.343  13.826  1.0308 -1.6083 -1.9086
   9523SM   H8G12874   2.492   3.219  13.892  2.6625  0.1310  1.2953
   9523SM   C9F12875   2.415   3.413  13.923  0.1780  0.1757  0.5026
   9523SM   H9F12876   2.311   3.374  13.930 -1.0820  2.9471 -1.1642
   9523SM   H9G12877   2.413   3.516  13.880 -1.2569 -1.0045 -2.5299
   9523SM  C10F12878   2.456   3.422  14.069  0.1797  0.2738  0.7144
   9523SM  H10F12879   2.543   3.491  14.076  0.9890 -0.7611  1.1486
   9523SM  H10G12880   2.509   3.329  14.100  2.0110  0.1875 -2.2713
   9523SM  C11F12881   2.346   3.466  14.162  0.1503  0.1220 -0.1544
   9523SM  H11F12882   2.253   3.414  14.132  0.3846 -1.2248  1.3519
   9523SM  H11G12883   2.337   3.575  14.141 -1.3805  0.1213  0.3800
   9523SM  C12F12884   2.384   3.443  14.307 -0.4074 -0.4027  0.6159
   9523SM  H12F12885   2.478   3.501  14.321 -1.4543  0.9079  2.7544
   9523SM  H12G12886   2.389   3.333  14.321 -1.8524 -0.7864 -1.3796
   9523SM  C13F12887   2.267   3.486  14.385 -0.3731  0.4551 -0.2976
   9523SM  H13F12888   2.177   3.433  14.349  0.0016  0.1729 -0.8418
   9523SM  H13G12889   2.234   3.590  14.367  1.3994  0.9605 -0.8274
   9523SM  C14F12890   2.285   3.458  14.540 -0.4512  0.1182  0.5507
   9523SM  H14F12891   2.360   3.525  14.587 -0.6986 -0.0570  1.1974
   9523SM  H14G12892   2.311   3.351  14.547 -1.6167 -0.1531  1.0380
   9523SM  C15F12893   2.151   3.469  14.610 -0.9330 -0.2114  0.0531
   9523SM  H15F12894   2.079   3.410  14.550  0.0577  0.3119 -1.7239
   9523SM  H15G12895   2.125   3.576  14.597  1.3411  0.3234 -0.6376
   9523SM  C16F12896   2.149   3.426  14.760 -0.0456  0.2431  0.1877
   9523SM  H16F12897   2.239   3.455  14.818  1.3948 -0.7465 -1.4482
   9523SM  H16G12898   2.139   3.316  14.754 -0.5512  0.3800 -2.7715
   9523SM  C17F12899   2.025   3.491  14.838  0.7646 -0.5448  0.5798
   9523SM  H17F12900   1.939   3.477  14.770 -0.0602  2.1571  0.9382
   9523SM  H17G12901   2.051   3.599  14.842 -1.3409  0.0303 -0.2467
   9523SM  C18F12902   1.994   3.433  14.977 -0.0042 -0.7827  0.2450
   9523SM  H18F12903   1.992   3.322  14.975 -0.0800 -0.8103  1.3034
   9523SM  H18G12904   1.892   3.462  15.012 -0.2207 -0.7121 -0.4259
   9523SM  C19F12905   2.087   3.488  15.084  0.1856 -0.3137 -0.8207
   9523SM  H19F12906   2.048   3.580  15.133  1.4638 -0.9329  1.4870
   9523SM  H19G12907   2.187   3.518  15.045 -0.1241  1.7961 -0.1438
   9523SM  C20F12908   2.108   3.386  15.201  0.0504  0.0531  0.4924
   9523SM  H20F12909   2.159   3.298  15.156  1.4986  0.3205  1.5504
   9523SM  H20G12910   2.017   3.341  15.247  0.7376 -0.5959  1.2437
   9523SM  C21F12911   2.192   3.449  15.311  0.0122  0.0939 -0.0413
   9523SM  H21F12912   2.137   3.544  15.332 -0.7047 -0.4364  0.5487
   9523SM  H21G12913   2.290   3.477  15.268  0.4324  0.8300  1.3172
   9523SM  C22F12914   2.222   3.370  15.435 -0.0522  0.0186 -0.2131
   9523SM  H22F12915   2.303   3.300  15.405 -0.1745  0.3067 -1.2476
   9523SM  H22G12916   2.131   3.309  15.457 -0.3045  0.4317 -0.0975
   9523SM  C23F12917   2.256   3.450  15.564  0.5379  0.6345  0.5523
   9523SM  H23F12918   2.168   3.509  15.597  2.5511  3.7650  0.7753
   9523SM  H23G12919   2.342   3.516  15.537  1.8057 -1.0587  0.2873
   9523SM  H23H12920   2.293   3.393  15.651 -0.2541  1.0220  1.1449
   9623SM     N12921   4.121   1.235  12.420  0.0105 -0.0955 -0.0433
   9623SM   C1512922   4.201   1.116  12.457 -0.9361  0.6866  0.0892
   9623SM  H15A12923   4.138   1.034  12.490  0.9821 -1.0799 -0.4348
   9623SM  H15B12924   4.270   1.136  12.537  0.1604 -0.6678 -0.4668
   9623SM  H15C12925   4.262   1.079  12.376 -1.1122 -0.3099  0.3949
   9623SM   C1412926   4.212   1.326  12.345 -0.0356 -0.1484  0.4924
   9623SM  H14A12927   4.165   1.411  12.299  1.0786 -0.3846 -1.1733
   9623SM  H14B12928   4.252   1.268  12.263  1.7360 -0.2708  1.3901
   9623SM  H14C12929   4.297   1.356  12.405 -0.2005 -3.5213  2.6814
   9623SM   C1312930   4.004   1.199  12.333 -0.4195  0.3478  0.1749
   9623SM  H13A12931   4.032   1.192  12.229 -0.2548 -0.7757  0.2816
   9623SM  H13B12932   3.919   1.265  12.333  0.3964  1.4134 -0.0646
   9623SM  H13C12933   3.966   1.104  12.368  0.1210 -0.0865 -0.4008
   9623SM   C1212934   4.074   1.301  12.549 -0.7252  0.7402  0.8270
   9623SM  H12A12935   4.155   1.324  12.617 -1.4462  2.1159  1.2649
   9623SM  H12B12936   4.006   1.240  12.605 -0.7537  0.1155  0.1224
   9623SM   C1112937   3.995   1.432  12.524 -0.2457 -0.1823 -0.1705
   9623SM  H11A12938   4.048   1.497  12.452  0.6574 -1.2375 -0.4905
   9623SM  H11B12939   3.979   1.492  12.617  1.0204  0.8781 -0.6207
   9623SM     P12940   3.754   1.338  12.571  0.7249  0.1136 -0.1091
   9623SM   O1312941   3.633   1.425  12.590 -0.2933 -0.2375 -0.0552
   9623SM   O1412942   3.720   1.207  12.520  0.5469  0.0934  0.3545
   9623SM   O1112943   3.835   1.347  12.711 -0.3583  0.2396  0.1820
   9623SM   O1212944   3.862   1.403  12.475 -0.1131 -0.3097  0.5015
   9623SM   C1S12945   3.776   1.319  12.839 -0.6732 -0.2235  0.1311
   9623SM   H1S12946   3.784   1.209  12.853 -1.6363 -0.2261  0.8401
   9623SM   H1T12947   3.670   1.351  12.853 -0.3146  0.8620  0.4548
   9623SM    NF12948   3.820   1.348  13.072  0.2863  0.4083 -0.4939
   9623SM   HNF12949   3.780   1.410  13.140 -1.5267 -0.1699 -0.9691
   9623SM   C2S12950   3.850   1.403  12.948  0.2040 -0.7226  0.5132
   9623SM   H2S12951   3.961   1.400  12.942  0.3120  0.0230  1.7528
   9623SM   C3S12952   3.808   1.549  12.934 -0.4023 -0.6015 -0.3416
   9623SM   H3S12953   3.698   1.558  12.944 -0.0235  3.1022  3.2122
   9623SM    O312954   3.833   1.605  12.807 -0.6930 -0.3281 -0.4185
   9623SM   HO312955   3.870   1.528  12.762  0.2391 -0.6435  0.8218
   9623SM   C4S12956   3.865   1.639  13.040 -0.4692  0.4101 -0.5728
   9623SM   H4S12957   3.814   1.628  13.137  0.3055 -0.6264 -0.2710
   9623SM   C5S12958   3.984   1.706  13.033  0.9208 -0.2951 -0.2034
   9623SM   H5S12959   4.042   1.691  12.940 -0.7283 -0.2843 -1.2880
   9623SM   C6S12960   4.051   1.779  13.147  0.0791  0.1500  1.1789
   9623SM   H6S12961   4.072   1.879  13.103  0.4929  0.4189  1.9839
   9623SM   H6T12962   4.150   1.731  13.162 -0.4000 -1.7809 -1.1238
   9623SM   C7S12963   3.985   1.808  13.285 -0.2030 -0.4713  0.3524
   9623SM   H7S12964   3.953   1.718  13.342 -2.3069  0.8007  1.2585
   9623SM   H7T12965   3.892   1.865  13.266  0.0411  0.2811  1.3600
   9623SM   C8S12966   4.082   1.893  13.369  0.5117 -0.2597  0.8376
   9623SM   H8S12967   4.090   2.000  13.339  1.9089  0.4610  3.4199
   9623SM   H8T12968   4.181   1.846  13.353 -0.1992 -1.5993  0.1923
   9623SM   C9S12969   4.051   1.884  13.517  0.3893  0.2415 -0.6034
   9623SM   H9S12970   4.003   1.795  13.561 -1.4544  0.7714 -1.4571
   9623SM   H9T12971   3.974   1.962  13.535  1.1899  0.6123  1.5133
   9623SM  C10S12972   4.171   1.924  13.605  0.0348 -0.1143  0.2009
   9623SM  H10S12973   4.123   1.957  13.699  1.6122  1.1001  0.6177
   9623SM  H10T12974   4.219   2.017  13.569  0.3270  1.0435  3.3183
   9623SM  C11S12975   4.263   1.801  13.645 -0.4970  0.0746 -0.0866
   9623SM  H11S12976   4.370   1.831  13.653 -0.5770  0.2614  0.3134
   9623SM  H11T12977   4.262   1.724  13.564  0.9587 -0.3881  0.3034
   9623SM  C12S12978   4.211   1.725  13.766 -0.1438 -0.9682  0.0043
   9623SM  H12S12979   4.276   1.636  13.780 -0.2409 -0.9079  0.8616
   9623SM  H12T12980   4.107   1.691  13.747 -0.5455 -1.2421  2.4210
   9623SM  C13S12981   4.240   1.795  13.899  0.2104  0.2608 -0.8507
   9623SM  H13S12982   4.191   1.894  13.910 -0.8402 -0.4338  1.5266
   9623SM  H13T12983   4.349   1.801  13.914  0.1415  0.9213 -0.6078
   9623SM  C14S12984   4.205   1.715  14.027 -0.4139  0.4827  0.2163
   9623SM  H14S12985   4.271   1.627  14.015 -0.1884  0.6893 -0.0679
   9623SM  H14T12986   4.097   1.686  14.023 -0.3425  0.2249  0.1184
   9623SM  C15S12987   4.234   1.806  14.144  0.1224  0.0072  1.0941
   9623SM  H15S12988   4.165   1.893  14.146 -1.8687 -1.3713 -1.3300
   9623SM  H15T12989   4.342   1.830  14.130 -0.0559 -0.5991 -2.1641
   9623SM  C16S12990   4.205   1.730  14.277  0.2413 -0.0638  0.0206
   9623SM  H16S12991   4.276   1.644  14.272  0.1118 -0.2258  0.8077
   9623SM  H16T12992   4.109   1.680  14.303  1.7954 -2.3100  1.9271
   9623SM  C17S12993   4.224   1.813  14.402  0.8425  0.4825  0.0497
   9623SM  H17S12994   4.142   1.887  14.397  0.7318  0.3294 -0.4807
   9623SM  H17T12995   4.326   1.858  14.408  1.4288 -0.5600 -1.3994
   9623SM  C18S12996   4.215   1.740  14.532  0.2310  0.4158 -0.1472
   9623SM  H18S12997   4.212   1.803  14.623 -0.9984  0.5403 -0.2576
   9623SM  H18T12998   4.301   1.669  14.538  0.8711  1.1547 -0.3762
   9623SM  H18U12999   4.125   1.675  14.530  0.8868 -0.6157  1.5827
   9623SM   C1F13000   3.849   1.225  13.109 -0.1301 -0.1063 -0.6574
   9623SM    OF13001   3.927   1.161  13.039  0.2783 -0.5804 -0.0276
   9623SM   C2F13002   3.794   1.168  13.233  0.2168 -0.1421  0.6259
   9623SM   H2F13003   3.774   1.245  13.311 -0.2414  0.0724  0.3045
   9623SM   H2G13004   3.851   1.089  13.287  0.1011 -0.2468  0.5952
   9623SM   C3F13005   3.671   1.080  13.193  0.2251 -0.1213 -0.1596
   9623SM   H3F13006   3.709   0.983  13.154 -3.3206 -0.8689 -2.2421
   9623SM   H3G13007   3.606   1.135  13.122 -0.9738 -1.8210 -0.4412
   9623SM   C4F13008   3.585   1.040  13.305  0.1546  0.4548 -0.7079
   9623SM   H4F13009   3.638   1.008  13.398  0.3201  1.0784 -0.5826
   9623SM   H4G13010   3.521   0.957  13.270  1.7687 -0.3588 -1.8911
   9623SM   C5F13011   3.499   1.160  13.349  0.5414  0.1075  0.1092
   9623SM   H5F13012   3.449   1.201  13.259 -1.6375  0.0470  1.2254
   9623SM   H5G13013   3.560   1.238  13.400 -0.8378  1.4730 -0.2543
   9623SM   C6F13014   3.384   1.126  13.450  0.3908 -0.6816 -0.3383
   9623SM   H6F13015   3.315   1.051  13.407  2.3634 -1.4170 -2.4715
   9623SM   H6G13016   3.339   1.225  13.475  4.4908  1.1352  0.6515
   9623SM   C7F13017   3.433   1.076  13.587 -0.5462 -0.0772  0.8289
   9623SM   H7F13018   3.528   1.130  13.609  0.7492 -2.8174  2.4507
   9623SM   H7G13019   3.463   0.969  13.585  1.2767  0.4082 -0.3085
   9623SM   C8F13020   3.339   1.112  13.706  0.6982  0.0199 -0.1573
   9623SM   H8F13021   3.246   1.052  13.698  0.9866 -0.2619 -1.7148
   9623SM   H8G13022   3.301   1.214  13.687 -0.9520 -0.5970 -0.3993
   9623SM   C9F13023   3.401   1.106  13.845  1.0050  0.3263  0.5238
   9623SM   H9F13024   3.345   1.170  13.917  0.5658  2.8980 -1.9442
   9623SM   H9G13025   3.503   1.146  13.826  0.8661  0.1267 -0.7085
   9623SM  C10F13026   3.391   0.964  13.899 -0.0372  0.5531 -0.3343
   9623SM  H10F13027   3.417   0.896  13.815  0.8091  2.5825 -1.7789
   9623SM  H10G13028   3.287   0.936  13.925  0.4198 -0.8109  0.1438
   9623SM  C11F13029   3.479   0.936  14.026 -0.4696 -0.2877 -0.3805
   9623SM  H11F13030   3.588   0.948  14.005  0.4564 -1.0308  3.2306
   9623SM  H11G13031   3.451   0.829  14.041 -2.5165  0.4402  1.4683
   9623SM  C12F13032   3.440   1.022  14.151  0.1634 -0.6514  0.2960
   9623SM  H12F13033   3.433   1.130  14.126  3.1951  0.0807  2.0221
   9623SM  H12G13034   3.529   1.005  14.216 -0.7202 -3.1246  0.9743
   9623SM  C13F13035   3.312   0.976  14.234  0.3663 -0.0012 -0.2965
   9623SM  H13F13036   3.335   0.880  14.286 -1.4224  0.1086  0.8164
   9623SM  H13G13037   3.224   0.961  14.168 -1.1534  1.7994  1.1842
   9623SM  C14F13038   3.271   1.070  14.341  0.6940  0.2105  0.1564
   9623SM  H14F13039   3.241   1.170  14.303  0.5493 -0.3085 -1.1448
   9623SM  H14G13040   3.363   1.088  14.402 -0.5120 -1.5489  2.6535
   9623SM  C15F13041   3.175   1.016  14.440  0.1848  0.1797 -0.4749
   9623SM  H15F13042   3.217   0.925  14.486  1.1126 -0.8838 -3.2407
   9623SM  H15G13043   3.083   0.985  14.386 -0.4892 -1.1445  1.3369
   9623SM  C16F13044   3.132   1.129  14.541  0.7253 -0.3406  0.3874
   9623SM  H16F13045   3.216   1.183  14.590  0.6308 -1.4747  1.8512
   9623SM  H16G13046   3.084   1.077  14.626 -0.0655 -1.8979 -0.9718
   9623SM  C17F13047   3.024   1.223  14.486 -0.1637  0.2357  0.4485
   9623SM  H17F13048   2.945   1.153  14.450 -0.6903  0.4391  1.1738
   9623SM  H17G13049   3.058   1.282  14.399  3.1213 -1.7313  0.2424
   9623SM  C18F13050   2.982   1.324  14.589 -0.0993  0.2700 -0.6098
   9623SM  H18F13051   3.067   1.361  14.651 -0.8500 -0.4094  0.8774
   9623SM  H18G13052   2.913   1.273  14.660 -1.5457  2.7418 -0.1309
   9623SM  C19F13053   2.923   1.450  14.527  0.9712  0.5452  0.1751
   9623SM  H19F13054   2.831   1.418  14.474  0.9040  1.0920 -0.0405
   9623SM  H19G13055   2.986   1.501  14.451  0.9817  1.2776  0.6659
   9623SM  C20F13056   2.863   1.551  14.627  0.4322 -0.6466  0.1837
   9623SM  H20F13057   2.944   1.596  14.689  0.0745  0.2797 -0.0026
   9623SM  H20G13058   2.809   1.492  14.704  1.7808 -2.8024 -0.4090
   9623SM  C21F13059   2.781   1.657  14.544 -0.2111 -0.3825 -0.3088
   9623SM  H21F13060   2.724   1.717  14.618  1.8739  2.2415 -0.7123
   9623SM  H21G13061   2.718   1.599  14.474 -0.7171 -0.9616  0.6054
   9623SM  C22F13062   2.883   1.761  14.490  0.0577  0.7825  0.1801
   9623SM  H22F13063   2.965   1.712  14.434  0.3728  1.3498  0.1371
   9623SM  H22G13064   2.931   1.792  14.585  0.6261  3.4358 -0.8832
   9623SM  C23F13065   2.811   1.879  14.418 -0.0040 -0.1548 -1.0937
   9623SM  H23F13066   2.782   1.874  14.311  1.1671 -1.9303 -1.3685
   9623SM  H23G13067   2.873   1.967  14.445  0.4619 -0.8179  0.0976
   9623SM  H23H13068   2.712   1.893  14.466  0.5080  0.9517 -0.3086
   9723SM     N13069   4.856   0.154  12.173  0.1305  0.3637 -0.2437
   9723SM   C1513070   4.966   0.255  12.144  0.0357  0.1123  0.0475
   9723SM  H15A13071   4.945   0.335  12.214 -1.2699 -1.8007  1.9710
   9723SM  H15B13072   4.964   0.278  12.038  0.8818  0.2858  0.0681
   9723SM  H15C13073   5.063   0.211  12.160  0.8943  1.7913 -0.3249
   9723SM   C1413074   4.729   0.200  12.114 -0.1959 -0.3260 -0.0281
   9723SM  H14A13075   4.649   0.128  12.127 -1.0951  0.9777  2.1209
   9723SM  H14B13076   4.757   0.232  12.015  0.3669 -0.7855 -0.0235
   9723SM  H14C13077   4.697   0.288  12.166  0.6220 -0.2472  0.3612
   9723SM   C1313078   4.891   0.029  12.114 -0.2066 -0.1084 -0.2630
   9723SM  H13A13079   4.991  -0.003  12.138  0.2373  1.0649 -0.4686
   9723SM  H13B13080   4.888   0.029  12.006 -1.3526 -2.1723 -0.2766
   9723SM  H13C13081   4.824  -0.047  12.151  1.6633 -1.3461  0.7667
   9723SM   C1213082   4.836   0.139  12.326 -0.2089  0.3333 -0.7684
   9723SM  H12A13083   4.918   0.085  12.372 -2.1596 -1.0417  1.3478
   9723SM  H12B13084   4.757   0.067  12.341  0.1432 -0.5918 -2.9561
   9723SM   C1113085   4.806   0.266  12.405  0.4581 -0.3429  0.3329
   9723SM  H11A13086   4.899   0.323  12.426  0.3024  0.2131 -0.4295
   9723SM  H11B13087   4.771   0.233  12.505  1.0127 -3.0764 -0.3104
   9723SM     P13088   4.653   0.468  12.440  0.2418  0.3863  0.0822
   9723SM   O1313089   4.718   0.599  12.411  0.4983  1.0685 -0.7695
   9723SM   O1413090   4.505   0.459  12.421 -0.4903 -0.4782  0.4697
   9723SM   O1113091   4.686   0.425  12.592  0.2581 -0.0733  0.2535
   9723SM   O1213092   4.711   0.353  12.348  0.2028 -0.6025 -0.5051
   9723SM   C1S13093   4.673   0.523  12.693 -0.7587 -0.2574 -0.3414
   9723SM   H1S13094   4.570   0.567  12.693 -1.2710 -1.4037  0.7086
   9723SM   H1T13095   4.751   0.601  12.675  1.2643 -1.5396  2.2001
   9723SM    NF13096   4.712   0.578  12.940  0.4464 -1.0164  0.9300
   9723SM   HNF13097   4.802   0.601  12.976  1.1151 -0.9196 -0.7194
   9723SM   C2S13098   4.710   0.470  12.835 -0.6876 -0.3225  0.6607
   9723SM   H2S13099   4.628   0.402  12.867 -0.2048 -0.2515  2.1185
   9723SM   C3S13100   4.847   0.388  12.830  0.1975  0.5663 -0.1104
   9723SM   H3S13101   4.932   0.453  12.802  1.1767  0.3165  2.1121
   9723SM    O313102   4.834   0.273  12.746  0.1276  0.1814  0.2145
   9723SM   HO313103   4.759   0.298  12.692  2.1902  3.1425 -1.5111
   9723SM   C4S13104   4.874   0.352  12.973 -0.2564 -0.0182 -0.3166
   9723SM   H4S13105   4.934   0.429  13.023  0.7322  0.6529 -2.4547
   9723SM   C5S13106   4.820   0.247  13.046 -0.5273 -0.7178  0.2743
   9723SM   H5S13107   4.753   0.178  12.993  0.0369  1.0810 -3.1056
   9723SM   C6S13108   4.841   0.232  13.192  0.4101 -0.2632  0.2665
   9723SM   H6S13109   4.884   0.130  13.201  3.3699  0.8632  0.0331
   9723SM   H6T13110   4.741   0.238  13.241 -0.7674 -1.8485 -1.7874
   9723SM   C7S13111   4.937   0.329  13.262 -0.1390 -0.4451 -0.2553
   9723SM   H7S13112   4.894   0.430  13.247  0.0341 -0.5550 -1.5376
   9723SM   H7T13113   5.033   0.333  13.206  1.0119  0.8354  1.6849
   9723SM   C8S13114   4.965   0.295  13.410  0.4389 -0.4791 -0.4516
   9723SM   H8S13115   5.017   0.197  13.416  0.5775 -0.3197  1.4840
   9723SM   H8T13116   4.867   0.285  13.462  0.5983  1.4893  0.3234
   9723SM   C9S13117   5.034   0.402  13.494  0.1278  0.4179 -0.0781
   9723SM   H9S13118   4.957   0.483  13.498 -2.0810 -1.4984 -1.1178
   9723SM   H9T13119   5.119   0.442  13.435 -0.0847 -0.3961 -0.9695
   9723SM  C10S13120   5.078   0.359  13.632  0.0837  0.7974 -0.2936
   9723SM  H10S13121   5.138   0.441  13.676 -0.8994  1.9872 -1.0914
   9723SM  H10T13122   5.144   0.270  13.635 -0.3715  0.4570 -0.2304
   9723SM  C11S13123   4.963   0.329  13.730 -0.9839  0.8743  0.0633
   9723SM  H11S13124   4.886   0.265  13.682 -0.1408 -0.0516 -0.0705
   9723SM  H11T13125   4.923   0.424  13.771 -3.9056 -1.1937  2.4122
   9723SM  C12S13126   5.014   0.258  13.858 -0.6902 -0.4482  1.0589
   9723SM  H12S13127   5.080   0.333  13.909  1.5903 -2.4880  1.2900
   9723SM  H12T13128   5.082   0.174  13.832 -0.3639 -0.5969  2.3102
   9723SM  C13S13129   4.903   0.229  13.957  0.2342 -0.0205 -0.2205
   9723SM  H13S13130   4.949   0.165  14.036 -0.1294  0.2863  0.2467
   9723SM  H13T13131   4.819   0.174  13.909  1.0726 -0.8315 -0.7933
   9723SM  C14S13132   4.845   0.345  14.042 -0.1892 -0.8395 -0.4303
   9723SM  H14S13133   4.771   0.403  13.983  1.8921 -0.2216 -2.6251
   9723SM  H14T13134   4.926   0.421  14.056 -1.5627  0.6210 -0.1583
   9723SM  C15S13135   4.795   0.309  14.179  0.1726 -0.1308 -0.1013
   9723SM  H15S13136   4.855   0.234  14.234  0.7453  1.5136  1.6298
   9723SM  H15T13137   4.697   0.257  14.177  0.3301 -0.5539  1.7525
   9723SM  C16S13138   4.771   0.438  14.251 -1.1721  0.2157 -0.2749
   9723SM  H16S13139   4.717   0.509  14.185 -1.2353  1.8983  1.5306
   9723SM  H16T13140   4.866   0.490  14.276 -2.1666  1.7958  0.3148
   9723SM  C17S13141   4.688   0.420  14.376  0.2373 -0.3428  0.5568
   9723SM  H17S13142   4.748   0.356  14.444 -1.7860 -2.5313  0.4102
   9723SM  H17T13143   4.597   0.361  14.352 -1.3196  2.3529 -0.6925
   9723SM  C18S13144   4.629   0.542  14.444 -0.5497 -0.5206  0.1591
   9723SM  H18S13145   4.620   0.518  14.553  1.8431  0.1425  0.5484
   9723SM  H18T13146   4.531   0.578  14.406 -0.0065  1.1498  0.2863
   9723SM  H18U13147   4.695   0.631  14.442  0.7947 -1.4167  1.9088
   9723SM   C1F13148   4.612   0.660  12.977 -0.1546  0.0705 -0.0836
   9723SM    OF13149   4.505   0.665  12.925  0.2287 -0.1883 -0.4014
   9723SM   C2F13150   4.648   0.759  13.081  0.5153  0.2567 -0.3031
   9723SM   H2F13151   4.636   0.863  13.044 -3.4424 -0.1233 -0.4777
   9723SM   H2G13152   4.756   0.747  13.104  0.6234 -0.1630 -0.9811
   9723SM   C3F13153   4.552   0.752  13.198  0.1983  0.9019 -0.0958
   9723SM   H3F13154   4.447   0.775  13.169  0.1187  1.7525  0.8235
   9723SM   H3G13155   4.564   0.837  13.268 -0.1734  0.1652  0.8985
   9723SM   C4F13156   4.572   0.622  13.276 -0.3868 -0.5361  0.5395
   9723SM   H4F13157   4.680   0.609  13.300  0.0042 -1.0273 -1.3342
   9723SM   H4G13158   4.562   0.530  13.214 -0.9034  0.8908 -1.6237
   9723SM   C5F13159   4.498   0.615  13.410  0.0478  1.2224  0.4938
   9723SM   H5F13160   4.388   0.621  13.396  0.1330  1.1979 -0.1859
   9723SM   H5G13161   4.528   0.708  13.465 -0.7137  0.4203  2.3696
   9723SM   C6F13162   4.547   0.511  13.515  0.9287  0.5761  0.2161
   9723SM   H6F13163   4.658   0.510  13.502  0.7435 -0.4572 -1.7460
   9723SM   H6G13164   4.512   0.413  13.475  0.8693  1.0022 -0.7999
   9723SM   C7F13165   4.493   0.545  13.648  0.0948 -0.0408  0.3727
   9723SM   H7F13166   4.384   0.564  13.641  0.1473 -0.1466 -0.9880
   9723SM   H7G13167   4.541   0.633  13.695 -0.1430 -1.1028  2.7218
   9723SM   C8F13168   4.521   0.443  13.758 -0.4985 -0.1830 -0.0726
   9723SM   H8F13169   4.628   0.412  13.757 -0.9236 -1.7509 -0.4640
   9723SM   H8G13170   4.469   0.348  13.733  0.2020 -0.8213  0.8274
   9723SM   C9F13171   4.494   0.479  13.903 -0.1485  0.3389 -0.4732
   9723SM   H9F13172   4.540   0.577  13.927 -0.8439  0.0156  2.5765
   9723SM   H9G13173   4.553   0.403  13.960 -1.0545 -0.4024 -0.5019
   9723SM  C10F13174   4.350   0.471  13.933 -0.0449 -0.4999 -0.2556
   9723SM  H10F13175   4.314   0.366  13.940 -3.3668  0.5622  0.5278
   9723SM  H10G13176   4.292   0.515  13.849 -0.2056 -1.4661 -0.6697
   9723SM  C11F13177   4.319   0.544  14.065  0.5684  0.4765  0.0307
   9723SM  H11F13178   4.214   0.580  14.061 -0.1802 -1.6307 -2.0879
   9723SM  H11G13179   4.383   0.635  14.066 -1.9104  2.3274 -0.9087
   9723SM  C12F13180   4.343   0.458  14.196  0.3480 -0.5552  0.0055
   9723SM  H12F13181   4.371   0.534  14.272  2.8355 -1.7389  0.3744
   9723SM  H12G13182   4.437   0.402  14.175  0.8166  0.5742 -1.0299
   9723SM  C13F13183   4.234   0.359  14.231 -0.7877  0.7423  0.1582
   9723SM  H13F13184   4.234   0.286  14.146  3.2868 -0.0550  0.6303
   9723SM  H13G13185   4.132   0.397  14.252 -0.9135  1.8347 -2.1067
   9723SM  C14F13186   4.279   0.286  14.360  0.3188  0.6083  0.3148
   9723SM  H14F13187   4.377   0.245  14.327 -0.5359  0.7900 -2.8350
   9723SM  H14G13188   4.208   0.203  14.382  1.5966 -0.3217  1.0123
   9723SM  C15F13189   4.281   0.361  14.484 -0.2578 -0.4539 -0.9603
   9723SM  H15F13190   4.179   0.406  14.490  0.5345  1.2609  1.0995
   9723SM  H15G13191   4.341   0.454  14.476 -0.8659 -0.0064 -0.4420
   9723SM  C16F13192   4.310   0.275  14.606 -0.0324 -0.0103 -0.6135
   9723SM  H16F13193   4.238   0.193  14.624 -0.6964  0.0860 -2.6417
   9723SM  H16G13194   4.291   0.337  14.696 -1.8949 -2.2036  0.6149
   9723SM  C17F13195   4.457   0.222  14.608  0.2608  0.0854  0.2643
   9723SM  H17F13196   4.540   0.295  14.596  3.1554 -2.6552  2.0845
   9723SM  H17G13197   4.470   0.156  14.519 -0.5957  0.2173  0.0248
   9723SM  C18F13198   4.487   0.146  14.737  0.5710  0.0991 -0.1065
   9723SM  H18F13199   4.436   0.205  14.816 -1.1059  1.4997 -2.1297
   9723SM  H18G13200   4.596   0.142  14.759  0.9322 -0.1178 -1.8044
   9723SM  C19F13201   4.425   0.004  14.735 -0.4014 -0.4256  0.1133
   9723SM  H19F13202   4.479  -0.047  14.653 -1.5925 -2.7871  0.7170
   9723SM  H19G13203   4.316   0.017  14.715 -0.4985  1.4990  1.5269
   9723SM  C20F13204   4.441  -0.064  14.873 -0.2217  0.4147  0.3245
   9723SM  H20F13205   4.378  -0.021  14.954 -0.2454 -0.8712  1.0205
   9723SM  H20G13206   4.549  -0.064  14.897  0.2900 -1.2279 -1.6889
   9723SM  C21F13207   4.381  -0.207  14.867  0.0774 -0.4258  0.4125
   9723SM  H21F13208   4.459  -0.268  14.817 -0.2302 -1.4128  1.1090
   9723SM  H21G13209   4.296  -0.219  14.796  0.2236 -1.5385  0.3982
   9723SM  C22F13210   4.348  -0.270  15.002  0.0941  1.1355  0.6662
   9723SM  H22F13211   4.252  -0.236  15.048 -0.1643  0.5557  0.5613
   9723SM  H22G13212   4.434  -0.252  15.070  1.1250 -0.1296 -0.2778
   9723SM  C23F13213   4.339  -0.427  14.994 -0.8348  0.2542  0.1624
   9723SM  H23F13214   4.270  -0.466  14.917  0.7774 -0.2226 -1.0971
   9723SM  H23G13215   4.309  -0.472  15.092 -1.7546 -2.8731 -1.4360
   9723SM  H23H13216   4.442  -0.466  14.976 -0.4435  1.8215 -1.2066
   9823SM     N13217   6.811   0.063  12.411 -0.2003 -0.8280  0.5494
   9823SM   C1513218   6.805   0.112  12.554 -0.6920 -0.5395 -0.0614
   9823SM  H15A13219   6.819   0.219  12.550 -3.0636 -0.1046  1.5179
   9823SM  H15B13220   6.886   0.075  12.615 -0.1108 -0.4316 -0.7546
   9823SM  H15C13221   6.709   0.090  12.599 -0.7662 -0.9093 -0.3937
   9823SM   C1413222   6.717   0.150  12.328  0.2246  0.1752  0.2599
   9823SM  H14A13223   6.619   0.152  12.374 -0.1818  0.4785 -0.5995
   9823SM  H14B13224   6.698   0.116  12.228 -2.3394  1.7926  0.1007
   9823SM  H14C13225   6.752   0.252  12.322 -3.0167  1.4851  1.5044
   9823SM   C1313226   6.949   0.091  12.352 -0.1153  0.7018  0.0318
   9823SM  H13A13227   7.021   0.040  12.414 -0.5286  2.0116  1.6579
   9823SM  H13B13228   6.966   0.198  12.353  2.1537  0.3861  0.4881
   9823SM  H13C13229   6.954   0.052  12.251 -0.1175 -2.0455  1.0227
   9823SM   C1213230   6.776  -0.082  12.401  0.1839  0.2464  0.4334
   9823SM  H12A13231   6.866  -0.139  12.421  0.1800  1.2685  3.9915
   9823SM  H12B13232   6.742  -0.104  12.301  1.3597 -0.6624  0.1991
   9823SM   C1113233   6.684  -0.141  12.502  0.1810 -0.3958  0.2320
   9823SM  H11A13234   6.745  -0.137  12.595  0.7374 -1.8643 -0.0503
   9823SM  H11B13235   6.663  -0.248  12.483 -0.5922 -0.5113  1.5802
   9823SM     P13236   6.472  -0.092  12.642 -0.2695 -0.0340 -0.2127
   9823SM   O1313237   6.337  -0.026  12.638 -0.5253  0.1083  0.2916
   9823SM   O1413238   6.475  -0.239  12.666  0.2874 -0.1334 -0.0126
   9823SM   O1113239   6.558  -0.022  12.752 -0.4261  0.4649 -0.0583
   9823SM   O1213240   6.560  -0.068  12.509  0.3252  0.0433  0.7872
   9823SM   C1S13241   6.545   0.108  12.811 -0.1369 -0.0719  0.6599
   9823SM   H1S13242   6.439   0.140  12.801 -0.8853 -2.2770  0.9854
   9823SM   H1T13243   6.594   0.186  12.750 -0.9670  1.6636  2.1375
   9823SM    NF13244   6.558   0.248  13.006 -0.0795 -0.1406  0.0685
   9823SM   HNF13245   6.635   0.300  13.043  1.8793 -2.9489  0.3106
   9823SM   C2S13246   6.580   0.106  12.960  0.2530  0.1186 -0.4154
   9823SM   H2S13247   6.508   0.041  13.014  0.8088  0.8504  1.2769
   9823SM   C3S13248   6.724   0.057  12.977 -0.2528 -0.4035  0.0457
   9823SM   H3S13249   6.794   0.141  12.957 -0.8384  0.2643  0.7350
   9823SM    O313250   6.776  -0.034  12.888 -0.5250 -0.0655 -0.0233
   9823SM   HO313251   6.702  -0.044  12.827 -0.5253 -2.0168  0.2440
   9823SM   C4S13252   6.741   0.011  13.118 -0.0082 -0.4670 -0.1238
   9823SM   H4S13253   6.669  -0.061  13.160 -0.0134 -1.4547 -1.7141
   9823SM   C5S13254   6.814   0.074  13.216 -0.6281  0.8047  0.4188
   9823SM   H5S13255   6.883   0.158  13.198 -1.2680  1.8113  2.4009
   9823SM   C6S13256   6.806   0.019  13.355 -0.4770 -0.3534 -0.4765
   9823SM   H6S13257   6.900  -0.037  13.375  0.6170  1.7445  0.6095
   9823SM   H6T13258   6.721  -0.049  13.378 -1.2545  0.4757 -0.8521
   9823SM   C7S13259   6.811   0.136  13.459  0.2209 -0.1769  0.1405
   9823SM   H7S13260   6.723   0.204  13.450 -0.5749 -1.0406  1.1097
   9823SM   H7T13261   6.913   0.179  13.459 -0.2411  0.9787  1.2209
   9823SM   C8S13262   6.800   0.072  13.603 -0.1240  0.1696 -0.3918
   9823SM   H8S13263   6.879   0.002  13.637 -0.6708 -0.5874 -0.6411
   9823SM   H8T13264   6.703   0.018  13.596  0.0472 -0.0695 -1.0642
   9823SM   C9S13265   6.774   0.178  13.712  0.3696 -0.0209 -0.0186
   9823SM   H9S13266   6.694   0.250  13.687  1.2172  1.6453  1.8268
   9823SM   H9T13267   6.866   0.241  13.720  0.1439  0.2278  0.6690
   9823SM  C10S13268   6.754   0.115  13.857 -0.3237  0.0770  0.0026
   9823SM  H10S13269   6.843   0.049  13.866 -1.0110 -0.7127  1.2275
   9823SM  H10T13270   6.660   0.056  13.864 -1.7558  2.3706  1.6075
   9823SM  C11S13271   6.752   0.220  13.974  0.3169  0.0528 -0.7179
   9823SM  H11S13272   6.827   0.297  13.942  1.9486 -0.9368  0.5335
   9823SM  H11T13273   6.794   0.184  14.070 -2.4909  1.1725  1.0548
   9823SM  C12S13274   6.617   0.288  13.991  0.1403  0.4181  0.3710
   9823SM  H12S13275   6.552   0.231  14.062 -1.1334  0.4972 -0.6892
   9823SM  H12T13276   6.552   0.289  13.901  0.0980  1.0533  0.4008
   9823SM  C13S13277   6.620   0.423  14.048 -0.7370 -0.2976 -0.5309
   9823SM  H13S13278   6.672   0.495  13.982 -1.4302  0.1020 -0.6412
   9823SM  H13T13279   6.687   0.417  14.137 -1.0001  0.2176 -0.2943
   9823SM  C14S13280   6.483   0.486  14.079 -0.7252 -0.3639  0.5286
   9823SM  H14S13281   6.500   0.535  14.177  0.9266 -0.6801  0.4321
   9823SM  H14T13282   6.409   0.403  14.087  0.6935 -1.5269  2.5155
   9823SM  C15S13283   6.450   0.602  13.988  0.2006  0.6398  0.1365
   9823SM  H15S13284   6.445   0.570  13.881 -0.2276 -0.1544  0.3925
   9823SM  H15T13285   6.520   0.689  13.988  1.2337 -0.1767  0.6717
   9823SM  C16S13286   6.308   0.655  14.019 -0.0172  0.6195  0.2670
   9823SM  H16S13287   6.304   0.721  14.109  1.5809  1.3039 -0.1287
   9823SM  H16T13288   6.249   0.571  14.061 -0.1507 -0.1489 -1.4043
   9823SM  C17S13289   6.236   0.727  13.902 -1.0184  0.8305  0.3591
   9823SM  H17S13290   6.126   0.733  13.915 -1.1997  0.7855 -0.9335
   9823SM  H17T13291   6.250   0.671  13.807  0.1095  0.7715  0.5411
   9823SM  C18S13292   6.261   0.868  13.877  0.0805 -0.0723 -0.4391
   9823SM  H18S13293   6.225   0.937  13.957  0.0559  1.5557 -1.7878
   9823SM  H18T13294   6.215   0.895  13.780  1.1117 -2.0388 -1.5333
   9823SM  H18U13295   6.369   0.884  13.857  0.6444 -0.5231  1.9501
   9823SM   C1F13296   6.440   0.317  13.026 -0.4551  0.5758  0.2632
   9823SM    OF13297   6.339   0.259  12.998 -0.2398 -0.1617  0.1100
   9823SM   C2F13298   6.439   0.455  13.078 -0.2824 -0.0805  1.3944
   9823SM   H2F13299   6.491   0.517  13.002 -1.2746  0.2758  0.9853
   9823SM   H2G13300   6.491   0.460  13.176  0.2287 -1.9321  1.2673
   9823SM   C3F13301   6.291   0.498  13.082 -0.2214 -0.1788  0.3016
   9823SM   H3F13302   6.244   0.433  13.159  0.4757 -2.9917 -1.5354
   9823SM   H3G13303   6.239   0.489  12.984  2.5961  2.9845 -1.6895
   9823SM   C4F13304   6.276   0.644  13.142  0.7177  0.5480 -0.1028
   9823SM   H4F13305   6.347   0.712  13.090  3.8878 -0.4802  2.5543
   9823SM   H4G13306   6.302   0.645  13.250  0.4351  0.2029 -0.0318
   9823SM   C5F13307   6.133   0.702  13.125 -0.2859  0.6405 -0.7087
   9823SM   H5F13308   6.123   0.702  13.015  0.7591  1.0134 -0.8125
   9823SM   H5G13309   6.133   0.808  13.159  1.9191  0.6455 -0.5623
   9823SM   C6F13310   6.020   0.615  13.189  0.4868 -0.3147  0.3531
   9823SM   H6F13311   6.035   0.510  13.154 -1.4814  0.0504 -1.8765
   9823SM   H6G13312   5.928   0.662  13.147  1.3952  0.6410 -0.6314
   9823SM   C7F13313   6.020   0.603  13.342  0.1612  0.5753 -0.5591
   9823SM   H7F13314   6.122   0.570  13.369 -0.3209  0.8770  1.8461
   9823SM   H7G13315   5.937   0.535  13.371  0.6532  0.2255  0.0334
   9823SM   C8F13316   6.002   0.731  13.418  0.5089  0.6909 -0.3793
   9823SM   H8F13317   5.906   0.773  13.381 -0.5117  0.6010  1.9580
   9823SM   H8G13318   6.075   0.805  13.377  0.3585  1.1141  0.1088
   9823SM   C9F13319   5.999   0.708  13.572 -0.6740  0.3263 -0.1095
   9823SM   H9F13320   6.022   0.803  13.625 -1.0154  1.6585 -2.2287
   9823SM   H9G13321   6.081   0.635  13.592 -2.6138 -1.7795  0.6913
   9823SM  C10F13322   5.860   0.654  13.612  1.4320 -0.0142 -0.5229
   9823SM  H10F13323   5.841   0.576  13.535 -0.3719 -1.9711  1.7669
   9823SM  H10G13324   5.785   0.735  13.604  0.9003 -0.6226 -2.1950
   9823SM  C11F13325   5.856   0.582  13.750 -0.8580 -0.7016 -0.2197
   9823SM  H11F13326   5.954   0.529  13.749  0.0800  0.9241  0.9834
   9823SM  H11G13327   5.771   0.513  13.770 -1.4869 -0.0416 -0.5824
   9823SM  C12F13328   5.844   0.695  13.855  0.1714 -0.0316 -0.2736
   9823SM  H12F13329   5.759   0.766  13.842 -0.0195 -0.5528 -2.2851
   9823SM  H12G13330   5.931   0.758  13.825 -0.3335  1.5382  1.4283
   9823SM  C13F13331   5.861   0.650  13.998  0.4064  0.5555  0.6451
   9823SM  H13F13332   5.962   0.607  14.014  0.5168  1.1455  1.6300
   9823SM  H13G13333   5.791   0.567  14.023 -0.4454  0.8795 -0.5409
   9823SM  C14F13334   5.831   0.762  14.102 -0.6447 -0.3257 -0.3515
   9823SM  H14F13335   5.724   0.774  14.130 -0.6280  1.8299 -0.9952
   9823SM  H14G13336   5.850   0.863  14.057  3.1187  0.6367  2.8457
   9823SM  C15F13337   5.918   0.751  14.230  0.3097 -0.5346  0.2242
   9823SM  H15F13338   6.027   0.744  14.209  0.5208 -0.5383  1.2491
   9823SM  H15G13339   5.884   0.658  14.281  0.4004 -0.0680  1.1720
   9823SM  C16F13340   5.895   0.857  14.338 -0.3082  0.3935 -0.2168
   9823SM  H16F13341   5.916   0.806  14.435 -1.5948  0.0018 -0.1260
   9823SM  H16G13342   5.791   0.895  14.329 -0.2012  0.1471 -3.2598
   9823SM  C17F13343   5.995   0.976  14.339  0.4667  0.0540  1.1906
   9823SM  H17F13344   5.981   1.022  14.239 -0.3464 -2.5317  0.0103
   9823SM  H17G13345   6.095   0.927  14.344  0.7536  0.4332 -0.2989
   9823SM  C18F13346   5.982   1.069  14.460 -1.0799 -0.1670 -0.2058
   9823SM  H18F13347   5.996   1.012  14.554  0.6497 -0.3497 -0.5531
   9823SM  H18G13348   5.882   1.119  14.466 -0.8230  0.3190  0.1038
   9823SM  C19F13349   6.092   1.169  14.467  0.6075 -0.0133 -0.3870
   9823SM  H19F13350   6.080   1.228  14.374 -1.5496  2.6313  1.4076
   9823SM  H19G13351   6.191   1.121  14.453  0.6646  0.4229 -1.5494
   9823SM  C20F13352   6.086   1.261  14.591  0.5097  0.0036  0.1752
   9823SM  H20F13353   6.155   1.221  14.670 -0.2571  0.5829  1.1622
   9823SM  H20G13354   5.986   1.265  14.638  0.8266  0.1649  0.8535
   9823SM  C21F13355   6.152   1.395  14.555  0.4003  0.1823 -0.3160
   9823SM  H21F13356   6.226   1.375  14.474 -0.5378  2.3743 -1.8122
   9823SM  H21G13357   6.197   1.439  14.646 -1.6642  1.1523  0.2946
   9823SM  C22F13358   6.053   1.495  14.488 -0.6777  0.7546 -0.4287
   9823SM  H22F13359   5.981   1.539  14.560 -2.3659 -0.3888 -1.3656
   9823SM  H22G13360   5.999   1.435  14.412 -0.0323  1.9336 -1.8668
   9823SM  C23F13361   6.115   1.616  14.417  0.3897  0.3341 -0.4345
   9823SM  H23F13362   6.164   1.683  14.491  0.1831 -0.5510  0.5318
   9823SM  H23G13363   6.037   1.675  14.365 -0.4588 -0.8248 -0.5205
   9823SM  H23H13364   6.191   1.576  14.347  2.0750 -0.5064  1.7722
   9923SM     N13365   1.050   0.746  11.886 -0.5638  0.0501 -0.7365
   9923SM   C1513366   1.189   0.697  11.913  0.1019  0.1472  0.0666
   9923SM  H15A13367   1.211   0.591  11.911  0.3235  0.1990 -1.3802
   9923SM  H15B13368   1.221   0.738  12.008 -2.5961  0.1888  1.0395
   9923SM  H15C13369   1.260   0.743  11.845 -1.2832  0.8322 -0.9523
   9923SM   C1413370   1.065   0.898  11.887 -0.2008 -0.2445 -0.4002
   9923SM  H14A13371   1.167   0.922  11.859 -0.1770 -0.0083 -0.1106
   9923SM  H14B13372   1.050   0.940  11.985 -0.1782 -1.9371  0.3750
   9923SM  H14C13373   0.990   0.939  11.821 -0.7763 -1.1183 -0.3141
   9923SM   C1313374   1.016   0.691  11.750 -0.0877 -0.1131  0.1742
   9923SM  H13A13375   1.099   0.715  11.685  1.1972 -1.6559  1.1651
   9923SM  H13B13376   0.921   0.721  11.709 -0.6062 -1.7363  0.1178
   9923SM  H13C13377   1.020   0.583  11.747 -1.2789 -0.1836  0.5631
   9923SM   C1213378   0.953   0.702  11.996  0.0053 -0.4728  0.3565
   9923SM  H12A13379   0.989   0.730  12.094  1.0969 -0.6876  0.0337
   9923SM  H12B13380   0.946   0.595  12.008  0.3738 -0.7075 -1.3492
   9923SM   C1113381   0.806   0.749  11.974 -0.1752  0.1121  0.1870
   9923SM  H11A13382   0.740   0.704  12.051 -0.5602  2.1263  1.1125
   9923SM  H11B13383   0.764   0.712  11.878  2.5107  1.0954 -1.4947
   9923SM     P13384   0.780   0.957  12.125 -0.1147 -0.1840  0.3713
   9923SM   O1313385   0.909   1.011  12.164  0.1337  0.0908 -0.0739
   9923SM   O1413386   0.669   1.052  12.119  0.2017 -0.0512  0.1869
   9923SM   O1113387   0.746   0.843  12.219 -0.2616 -0.5438 -0.0634
   9923SM   O1213388   0.784   0.890  11.983 -0.0397 -0.1900  0.1663
   9923SM   C1S13389   0.785   0.848  12.355  0.2949 -0.8187 -0.4893
   9923SM   H1S13390   0.782   0.950  12.400 -1.3148 -0.9823 -0.1712
   9923SM   H1T13391   0.888   0.807  12.365  0.9313  0.7809  0.0362
   9923SM    NF13392   0.681   0.813  12.582  0.3793 -0.3312 -0.0506
   9923SM   HNF13393   0.710   0.751  12.655 -2.8089 -3.9205 -1.4817
   9923SM   C2S13394   0.683   0.772  12.444  0.3779 -0.3586  0.0628
   9923SM   H2S13395   0.582   0.798  12.405 -0.3799  0.4484  2.3763
   9923SM   C3S13396   0.711   0.622  12.421  0.0477  0.2085  0.0784
   9923SM   H3S13397   0.815   0.606  12.456 -0.6365 -2.4553  1.1214
   9923SM    O313398   0.705   0.587  12.288  0.0886  0.1905 -0.0173
   9923SM   HO313399   0.718   0.672  12.245  0.8317  0.5030  0.7868
   9923SM   C4S13400   0.631   0.526  12.512 -0.0382  0.0019 -0.0626
   9923SM   H4S13401   0.683   0.509  12.608  0.5846  1.6156 -0.0811
   9923SM   C5S13402   0.509   0.470  12.496  0.6981 -0.2193  0.4788
   9923SM   H5S13403   0.462   0.479  12.397  2.7519  0.9359 -0.4552
   9923SM   C6S13404   0.438   0.382  12.595 -0.0784  0.4544  0.2982
   9923SM   H6S13405   0.484   0.283  12.580 -0.6513  0.1027  0.8297
   9923SM   H6T13406   0.329   0.384  12.575 -0.7043  1.2634  3.2954
   9923SM   C7S13407   0.455   0.410  12.746 -0.3323 -0.7685  0.2029
   9923SM   H7S13408   0.561   0.401  12.775 -0.1395 -2.9913 -0.9595
   9923SM   H7T13409   0.397   0.336  12.806 -1.6068 -0.3672 -0.4872
   9923SM   C8S13410   0.381   0.540  12.779  0.2882 -0.0967 -0.3470
   9923SM   H8S13411   0.276   0.514  12.755  0.4673 -0.1283 -1.1375
   9923SM   H8T13412   0.424   0.622  12.717 -1.8991  0.4569 -1.2298
   9923SM   C9S13413   0.413   0.591  12.918  0.1514 -0.3720 -1.1976
   9923SM   H9S13414   0.524   0.602  12.921  0.1333 -0.2217  1.2419
   9923SM   H9T13415   0.375   0.518  12.993 -0.7922 -0.0468 -1.3523
   9923SM  C10S13416   0.347   0.729  12.938 -0.6281 -0.0398 -0.2154
   9923SM  H10S13417   0.238   0.719  12.924 -0.4992 -0.3310 -1.0368
   9923SM  H10T13418   0.378   0.810  12.868  0.4416  0.0275  0.3124
   9923SM  C11S13419   0.364   0.779  13.084 -0.1162  0.2353 -0.0102
   9923SM  H11S13420   0.473   0.778  13.108  0.2344  1.2067 -1.4587
   9923SM  H11T13421   0.314   0.703  13.148  2.8114  0.3209  2.6345
   9923SM  C12S13422   0.286   0.903  13.116 -0.2996 -0.2830  0.3756
   9923SM  H12S13423   0.178   0.883  13.097  0.1163 -1.0152 -1.4203
   9923SM  H12T13424   0.314   0.985  13.046 -2.6745 -0.2610 -0.6541
   9923SM  C13S13425   0.303   0.953  13.261 -0.3370  0.0225 -0.4359
   9923SM  H13S13426   0.401   1.004  13.255 -0.5864  0.3715 -4.3891
   9923SM  H13T13427   0.304   0.870  13.334 -1.2453  1.2128  1.0098
   9923SM  C14S13428   0.196   1.050  13.311  0.4748 -0.0282  0.0344
   9923SM  H14S13429   0.102   0.993  13.298 -0.5885  1.8609 -0.8760
   9923SM  H14T13430   0.209   1.142  13.251 -0.5237  0.6726  0.8573
   9923SM  C15S13431   0.229   1.082  13.461  0.4709  0.4553 -0.0332
   9923SM  H15S13432   0.334   1.119  13.456 -0.0870  2.1199 -0.2394
   9923SM  H15T13433   0.217   0.986  13.515 -0.5909  1.2530  1.2280
   9923SM  C16S13434   0.151   1.189  13.528  0.3374  0.0566 -0.0331
   9923SM  H16S13435   0.043   1.162  13.537  0.1520  0.8295  0.0840
   9923SM  H16T13436   0.151   1.279  13.463  1.3326  0.3879  0.4032
   9923SM  C17S13437   0.198   1.214  13.672  0.5016  0.3755  0.9099
   9923SM  H17S13438   0.301   1.254  13.679  0.2953  1.8066 -2.5421
   9923SM  H17T13439   0.199   1.113  13.719 -0.3805  0.1583  0.4836
   9923SM  C18S13440   0.105   1.321  13.744 -0.6719  0.1047  0.5695
   9923SM  H18S13441   0.124   1.417  13.691 -1.2459  0.2473  0.6054
   9923SM  H18T13442   0.150   1.333  13.844 -0.4929 -0.1624  0.5217
   9923SM  H18U13443  -0.003   1.292  13.743 -0.0369 -2.5535 -1.2835
   9923SM   C1F13444   0.649   0.935  12.628 -0.5156  0.3366 -0.3502
   9923SM    OF13445   0.602   1.020  12.552  0.0609 -0.0044 -0.4091
   9923SM   C2F13446   0.682   0.965  12.770 -0.5286  0.4174  1.1590
   9923SM   H2F13447   0.788   0.998  12.764  0.4557 -2.7198 -2.7214
   9923SM   H2G13448   0.677   0.863  12.815 -2.4454  0.6345  1.5294
   9923SM   C3F13449   0.590   1.071  12.833  0.6138  0.1265  0.0363
   9923SM   H3F13450   0.487   1.038  12.811  1.4900 -2.1542 -1.0003
   9923SM   H3G13451   0.605   1.177  12.804  2.2335  0.9481  3.2906
   9923SM   C4F13452   0.612   1.085  12.984 -0.2034 -0.0108 -0.0017
   9923SM   H4F13453   0.605   0.991  13.043 -2.8511 -0.4890 -0.9485
   9923SM   H4G13454   0.527   1.139  13.031  0.8452  0.6556  1.1905
   9923SM   C5F13455   0.730   1.172  13.012 -0.3614  0.0056 -0.4355
   9923SM   H5F13456   0.740   1.258  12.942 -3.1561  0.3042 -0.5820
   9923SM   H5G13457   0.819   1.106  13.007 -0.9819 -0.9915  0.9182
   9923SM   C6F13458   0.742   1.224  13.157 -0.8074  0.2507 -0.2010
   9923SM   H6F13459   0.652   1.279  13.192  0.2662  0.3394  2.6807
   9923SM   H6G13460   0.824   1.299  13.155 -1.5087  1.0831 -3.2796
   9923SM   C7F13461   0.764   1.106  13.252 -0.1394 -0.9104  0.3752
   9923SM   H7F13462   0.854   1.050  13.219 -0.3535 -1.4851  0.7490
   9923SM   H7G13463   0.678   1.037  13.235 -1.1968  0.9269 -2.4881
   9923SM   C8F13464   0.768   1.144  13.398  0.9224 -0.2296  0.4126
   9923SM   H8F13465   0.695   1.223  13.423 -0.3232 -1.2308  0.0127
   9923SM   H8G13466   0.861   1.197  13.427 -0.9877  2.3565  2.2266
   9923SM   C9F13467   0.752   1.033  13.497  0.3788  0.1569  0.1024
   9923SM   H9F13468   0.828   0.953  13.489 -0.8665 -1.0710  0.0923
   9923SM   H9G13469   0.654   0.989  13.469  0.7862 -0.9822  0.4124
   9923SM  C10F13470   0.729   1.092  13.638  0.0652  0.0954 -0.0729
   9923SM  H10F13471   0.657   1.177  13.639  0.7151  0.7429 -2.0909
   9923SM  H10G13472   0.826   1.137  13.668  0.3866 -0.8734  0.3952
   9923SM  C11F13473   0.680   0.987  13.742  0.3406  0.5161  0.6664
   9923SM  H11F13474   0.588   0.946  13.695  0.2453  2.0431 -0.5719
   9923SM  H11G13475   0.648   1.047  13.831 -2.4846 -0.9937  0.7856
   9923SM  C12F13476   0.790   0.885  13.773 -0.6136  0.4198  0.3357
   9923SM  H12F13477   0.891   0.928  13.756 -1.1493  1.1347 -1.2092
   9923SM  H12G13478   0.776   0.798  13.705 -0.7695  0.5074  0.2557
   9923SM  C13F13479   0.775   0.840  13.916 -0.0310  0.5631  0.5144
   9923SM  H13F13480   0.674   0.797  13.931  0.0438 -0.5328 -1.6807
   9923SM  H13G13481   0.787   0.920  13.993  1.1423  0.8583  0.0414
   9923SM  C14F13482   0.870   0.728  13.953  0.1771  0.1249 -0.1587
   9923SM  H14F13483   0.971   0.769  13.929  0.2406  1.3086  1.9134
   9923SM  H14G13484   0.840   0.635  13.899  0.3895  0.1536 -0.3282
   9923SM  C15F13485   0.884   0.695  14.108  0.3672  0.3028  0.0664
   9923SM  H15F13486   0.905   0.791  14.160  0.3415  0.6672 -0.5820
   9923SM  H15G13487   0.953   0.609  14.124 -0.1738 -0.2098 -0.3237
   9923SM  C16F13488   0.750   0.647  14.164  0.1787 -0.4234 -0.3011
   9923SM  H16F13489   0.721   0.553  14.114  1.4532 -1.6436  1.1676
   9923SM  H16G13490   0.681   0.733  14.147  1.8021  1.3205  1.3582
   9923SM  C17F13491   0.732   0.611  14.313 -0.7445  0.6782  0.2109
   9923SM  H17F13492   0.755   0.694  14.383  0.4613  1.3903 -0.9845
   9923SM  H17G13493   0.805   0.529  14.332 -1.6306  0.0476  1.0506
   9923SM  C18F13494   0.587   0.562  14.345  0.8596 -0.4014  0.3110
   9923SM  H18F13495   0.548   0.478  14.283 -2.1651 -0.0950  1.6335
   9923SM  H18G13496   0.523   0.649  14.322  1.7957  0.1218 -0.3598
   9923SM  C19F13497   0.569   0.519  14.489 -0.2922  0.7476  0.2486
   9923SM  H19F13498   0.600   0.608  14.547  0.0309  1.8911 -1.6014
   9923SM  H19G13499   0.646   0.441  14.505 -1.1210  0.2788  2.2096
   9923SM  C20F13500   0.423   0.472  14.535  0.2219  0.4225 -0.0964
   9923SM  H20F13501   0.443   0.428  14.635  1.2250  2.5210  0.6799
   9923SM  H20G13502   0.382   0.385  14.478  2.5100 -1.6077  1.1574
   9923SM  C21F13503   0.315   0.583  14.542  0.3833  0.7682 -0.2513
   9923SM  H21F13504   0.354   0.686  14.527 -0.3030  1.1153  0.2585
   9923SM  H21G13505   0.288   0.586  14.650 -1.9247 -1.0851 -0.7070
   9923SM  C22F13506   0.186   0.552  14.467 -0.1758 -0.0615 -0.5249
   9923SM  H22F13507   0.132   0.473  14.523  1.5903 -0.4142  0.7405
   9923SM  H22G13508   0.209   0.516  14.364 -0.0013 -0.0691 -0.4828
   9923SM  C23F13509   0.079   0.663  14.455  0.0571  0.3729  0.0331
   9923SM  H23F13510   0.128   0.750  14.406  1.3012 -0.1993  0.2335
   9923SM  H23G13511   0.030   0.696  14.549  2.1705  1.1950  0.9067
   9923SM  H23H13512  -0.002   0.620  14.391 -1.0717  1.7092  0.5008
  10023SM     N13513   0.273   2.141  11.708 -0.0766  0.7781  0.1304
  10023SM   C1513514   0.361   2.106  11.596 -0.4177 -0.1317 -0.0830
  10023SM  H15A13515   0.378   2.197  11.542 -2.4031 -1.6806 -3.6801
  10023SM  H15B13516   0.306   2.050  11.522  1.4544 -0.7055 -1.0859
  10023SM  H15C13517   0.455   2.061  11.623  0.8653  2.2272 -0.4519
  10023SM   C1413518   0.163   2.227  11.652 -0.2378  0.0964  0.2019
  10023SM  H14A13519   0.107   2.260  11.738 -0.4839  0.9645 -0.2717
  10023SM  H14B13520   0.095   2.180  11.582 -0.6843  0.8122  0.1362
  10023SM  H14C13521   0.194   2.318  11.603  2.8297 -0.0431  1.6907
  10023SM   C1313522   0.215   2.020  11.773 -0.3269  0.2778  0.0419
  10023SM  H13A13523   0.298   1.960  11.804 -0.7840 -0.6832 -0.5714
  10023SM  H13B13524   0.163   1.964  11.698  0.8700 -0.8909  0.0565
  10023SM  H13C13525   0.138   2.035  11.848 -0.9303 -1.0896 -0.2719
  10023SM   C1213526   0.359   2.215  11.818  0.7975 -0.3918 -0.0091
  10023SM  H12A13527   0.409   2.301  11.777 -1.4047  2.0977  2.1064
  10023SM  H12B13528   0.441   2.150  11.844  1.4311 -0.2370 -1.5279
  10023SM   C1113529   0.296   2.255  11.953  0.2487  0.0185 -0.6398
  10023SM  H11A13530   0.367   2.287  12.032  0.2539  0.2994 -0.7588
  10023SM  H11B13531   0.240   2.163  11.983 -1.0653  0.4683 -1.6089
  10023SM     P13532   0.209   2.503  11.923 -0.2123  0.6513 -0.2573
  10023SM   O1313533   0.340   2.522  11.853 -0.1159 -0.2185 -0.2381
  10023SM   O1413534   0.088   2.565  11.864  0.3681  0.2741  0.7929
  10023SM   O1113535   0.241   2.552  12.067 -0.1775  0.2907 -0.2113
  10023SM   O1213536   0.187   2.348  11.945  0.2601  0.0174 -0.5368
  10023SM   C1S13537   0.138   2.537  12.167 -0.0449 -0.0492  0.4900
  10023SM   H1S13538   0.070   2.453  12.144 -0.3999  0.5019 -0.5769
  10023SM   H1T13539   0.072   2.627  12.170 -1.5994 -1.0910 -0.7942
  10023SM    NF13540   0.078   2.518  12.403  0.4413  0.9403  0.2065
  10023SM   HNF13541   0.052   2.580  12.476 -0.4374 -0.4573  1.1266
  10023SM   C2S13542   0.192   2.540  12.318  1.0223  0.1779  0.2974
  10023SM   H2S13543   0.256   2.451  12.334  0.0206 -0.5284  0.5375
  10023SM   C3S13544   0.286   2.665  12.338  0.2679  0.0783 -0.5375
  10023SM   H3S13545   0.225   2.758  12.345 -1.7261 -1.2372  0.4918
  10023SM    O313546   0.373   2.686  12.226 -0.0836 -0.1763  0.2848
  10023SM   HO313547   0.343   2.633  12.152  0.1167 -0.1488  0.1820
  10023SM   C4S13548   0.371   2.659  12.466  0.7373  0.1205  0.3446
  10023SM   H4S13549   0.444   2.578  12.452  0.6184  0.3834 -2.0822
  10023SM   C5S13550   0.347   2.730  12.582  0.0646  0.0862  0.2107
  10023SM   H5S13551   0.257   2.792  12.598  0.7135  0.6901  1.8221
  10023SM   C6S13552   0.432   2.721  12.705 -0.1836  0.4196 -0.0455
  10023SM   H6S13553   0.474   2.822  12.727  0.9242 -0.6545  3.2463
  10023SM   H6T13554   0.510   2.642  12.698 -1.2767 -0.7412  0.5357
  10023SM   C7S13555   0.354   2.687  12.834  0.2332  0.3045 -0.5237
  10023SM   H7S13556   0.302   2.589  12.826  1.7995 -0.6099 -0.1505
  10023SM   H7T13557   0.279   2.769  12.834  0.8116  0.8515 -1.4526
  10023SM   C8S13558   0.446   2.683  12.955 -0.5074  0.2441 -1.1675
  10023SM   H8S13559   0.492   2.782  12.970 -0.6865  0.3177 -1.1054
  10023SM   H8T13560   0.513   2.597  12.933 -3.0432 -1.4175 -2.8973
  10023SM   C9S13561   0.375   2.651  13.086  0.4663  0.1573 -0.2006
  10023SM   H9S13562   0.312   2.559  13.080 -1.2239  1.2886 -0.6332
  10023SM   H9T13563   0.301   2.733  13.097  0.4516  0.3925 -1.8195
  10023SM  C10S13564   0.478   2.663  13.204  0.2740  0.8182  0.4920
  10023SM  H10S13565   0.533   2.759  13.204 -0.7176  1.3976  0.5044
  10023SM  H10T13566   0.546   2.576  13.194 -2.7253 -1.6011 -0.6518
  10023SM  C11S13567   0.405   2.638  13.334  0.8418  0.0226  0.1861
  10023SM  H11S13568   0.360   2.536  13.335 -0.0342  0.4037  0.2107
  10023SM  H11T13569   0.323   2.712  13.344 -0.7001 -1.5634 -0.2576
  10023SM  C12S13570   0.492   2.655  13.456  0.2372  0.6772  0.6889
  10023SM  H12S13571   0.571   2.734  13.448 -0.4804  1.3378 -0.0885
  10023SM  H12T13572   0.547   2.558  13.457  2.3010  1.5842 -2.9977
  10023SM  C13S13573   0.406   2.668  13.586  0.1530  0.0065  0.0813
  10023SM  H13S13574   0.331   2.586  13.584 -0.0048  0.1659 -1.1739
  10023SM  H13T13575   0.346   2.761  13.584 -0.4325 -0.1770  3.3544
  10023SM  C14S13576   0.491   2.670  13.708 -0.0561 -0.0073  0.2022
  10023SM  H14S13577   0.587   2.723  13.691 -0.0465 -0.2772 -0.6469
  10023SM  H14T13578   0.520   2.567  13.738 -0.8934 -0.1208  0.6445
  10023SM  C15S13579   0.425   2.736  13.830  0.0566  0.2645  0.4513
  10023SM  H15S13580   0.334   2.675  13.846 -3.4026  4.7268 -0.0740
  10023SM  H15T13581   0.401   2.840  13.797  1.2637 -0.1655 -1.9559
  10023SM  C16S13582   0.514   2.733  13.948  0.1139 -0.0941 -0.7118
  10023SM  H16S13583   0.603   2.800  13.945  0.2135 -0.0690  1.3225
  10023SM  H16T13584   0.565   2.634  13.938  0.4892  0.1762 -1.5973
  10023SM  C17S13585   0.446   2.772  14.079  0.5474 -0.4522  0.3120
  10023SM  H17S13586   0.349   2.719  14.092  0.0983  0.6086  1.4680
  10023SM  H17T13587   0.421   2.880  14.075  0.6511 -0.4423 -0.1471
  10023SM  C18S13588   0.532   2.739  14.200  0.5670  0.3394  0.6708
  10023SM  H18S13589   0.613   2.815  14.207  1.4179 -0.3320 -1.1109
  10023SM  H18T13590   0.582   2.641  14.190  0.9482  0.2279  3.1145
  10023SM  H18U13591   0.473   2.726  14.293  0.6135 -2.2214  0.4202
  10023SM   C1F13592   0.017   2.401  12.408 -0.0069 -0.5122  0.0708
  10023SM    OF13593   0.071   2.295  12.371 -0.3078  0.1874  0.1182
  10023SM   C2F13594  -0.122   2.399  12.468  0.0093 -0.7316  0.0384
  10023SM   H2F13595  -0.191   2.355  12.392  0.8890 -0.2513 -1.0618
  10023SM   H2G13596  -0.154   2.498  12.505 -2.4710 -0.6874 -1.9443
  10023SM   C3F13597  -0.109   2.311  12.597 -0.8439  0.5442  0.5701
  10023SM   H3F13598  -0.098   2.207  12.560 -1.2081  0.4666  0.6688
  10023SM   H3G13599  -0.207   2.313  12.651 -2.1046  1.8943 -1.6207
  10023SM   C4F13600   0.004   2.353  12.693 -0.9839  0.0131  0.4588
  10023SM   H4F13601  -0.018   2.456  12.728  1.4697  0.5128  0.7167
  10023SM   H4G13602   0.109   2.354  12.657 -0.9570  1.8093  0.4875
  10023SM   C5F13603   0.022   2.282  12.828 -0.2887 -0.2358 -0.5092
  10023SM   H5F13604   0.080   2.189  12.808  2.4614  1.1621  0.3803
  10023SM   H5G13605  -0.076   2.259  12.874  0.5938 -2.4663  0.3564
  10023SM   C6F13606   0.114   2.362  12.925  0.2153 -0.2971  0.1039
  10023SM   H6F13607   0.196   2.393  12.857  0.3400 -0.9637 -0.0558
  10023SM   H6G13608   0.160   2.276  12.979 -1.3397 -2.8288 -2.3542
  10023SM   C7F13609   0.044   2.475  13.008  0.3437  0.4283 -0.5012
  10023SM   H7F13610  -0.062   2.475  12.974 -0.1426  0.6182  0.9355
  10023SM   H7G13611   0.079   2.578  12.988 -4.5841  2.1396 -1.5334
  10023SM   C8F13612   0.052   2.453  13.163  0.3266  0.1434 -0.0121
  10023SM   H8F13613   0.158   2.448  13.197  0.1323  0.6486  0.6891
  10023SM   H8G13614   0.004   2.358  13.193 -0.7264  0.4690 -0.6082
  10023SM   C9F13615  -0.017   2.570  13.243  0.3308  0.1626 -0.1963
  10023SM   H9F13616  -0.115   2.573  13.190 -0.3649 -0.2082  1.0278
  10023SM   H9G13617   0.039   2.666  13.242  0.6243 -0.0088 -0.2075
  10023SM  C10F13618  -0.041   2.541  13.386  0.7953  0.0704  0.3975
  10023SM  H10F13619  -0.083   2.439  13.395  1.3943 -0.4239 -1.8953
  10023SM  H10G13620  -0.112   2.616  13.426  1.7089  1.2953 -0.2187
  10023SM  C11F13621   0.079   2.557  13.475 -0.1974 -0.9880  0.7021
  10023SM  H11F13622   0.130   2.654  13.456  1.5062 -1.1960  3.5683
  10023SM  H11G13623   0.158   2.484  13.448  1.0681  0.1394  1.2226
  10023SM  C12F13624   0.048   2.533  13.623 -0.8039 -0.3655  0.4482
  10023SM  H12F13625  -0.050   2.576  13.654  0.1000  0.6454  2.0434
  10023SM  H12G13626   0.118   2.578  13.697 -2.2638  1.2084  0.9570
  10023SM  C13F13627   0.035   2.374  13.656 -0.2854 -0.6411 -0.3647
  10023SM  H13F13628   0.136   2.333  13.638 -0.0894 -0.4615  0.2726
  10023SM  H13G13629  -0.039   2.333  13.584  0.4281  0.2989 -1.6813
  10023SM  C14F13630  -0.002   2.361  13.806 -0.1057 -0.5634  0.0723
  10023SM  H14F13631  -0.033   2.257  13.828  0.7411 -1.1725 -1.4678
  10023SM  H14G13632  -0.097   2.420  13.813 -0.7753 -1.5229 -0.6725
  10023SM  C15F13633   0.113   2.402  13.902  0.4668  0.1454  0.4780
  10023SM  H15F13634   0.147   2.505  13.881  2.1812 -0.0704  1.8924
  10023SM  H15G13635   0.197   2.331  13.880  0.1728  0.0449 -0.3916
  10023SM  C16F13636   0.068   2.396  14.047 -0.0806  0.2456 -0.6315
  10023SM  H16F13637   0.022   2.296  14.057 -1.3492  0.7510 -1.1479
  10023SM  H16G13638  -0.009   2.466  14.085 -1.3296 -1.3816 -0.0631
  10023SM  C17F13639   0.193   2.402  14.138  0.4672 -0.1913  0.2073
  10023SM  H17F13640   0.229   2.506  14.127 -1.7100  0.3927 -2.1138
  10023SM  H17G13641   0.271   2.324  14.117  0.8941  0.7461 -1.9300
  10023SM  C18F13642   0.154   2.386  14.286  0.6013  0.3285 -0.3216
  10023SM  H18F13643   0.090   2.296  14.283 -1.6631  1.8580 -0.6101
  10023SM  H18G13644   0.090   2.477  14.294  1.2722  0.9140 -1.3314
  10023SM  C19F13645   0.273   2.388  14.385  0.7701 -0.3521 -0.5413
  10023SM  H19F13646   0.334   2.478  14.361 -0.9210  1.0576  0.1953
  10023SM  H19G13647   0.329   2.293  14.381 -0.4432 -1.3104  2.4909
  10023SM  C20F13648   0.230   2.392  14.539  0.7179 -0.3325  0.5783
  10023SM  H20F13649   0.145   2.464  14.547  1.1362  0.1023  1.1538
  10023SM  H20G13650   0.316   2.433  14.595  1.6936 -0.9126 -0.4514
  10023SM  C21F13651   0.185   2.264  14.595 -0.1025 -0.2106  0.7622
  10023SM  H21F13652   0.259   2.182  14.582 -0.2001  0.1045 -2.4429
  10023SM  H21G13653   0.096   2.227  14.539  0.4879 -0.2466 -0.1586
  10023SM  C22F13654   0.138   2.281  14.748  0.6404  0.4364  0.3098
  10023SM  H22F13655   0.039   2.333  14.746 -0.1394 -0.9999 -1.5135
  10023SM  H22G13656   0.201   2.352  14.806 -0.0146  0.2467  1.2853
  10023SM  C23F13657   0.126   2.146  14.821 -0.0838  0.1506 -0.6255
  10023SM  H23F13658   0.062   2.076  14.763  1.1662 -0.9661 -0.6814
  10023SM  H23G13659   0.093   2.143  14.927 -2.2716  0.1026 -1.2445
  10023SM  H23H13660   0.226   2.099  14.825 -0.3025 -0.4759 -2.0081
  101CHL1    C313661   3.706   6.281  15.877 -0.4267  0.3467 -0.5596
  101CHL1    H313662   3.654   6.184  15.895  0.7058 -0.6930 -2.5155
  101CHL1    O313663   3.752   6.332  16.002 -0.1191  0.2401  0.5883
  101CHL1   H3'13664   3.736   6.426  15.996  1.5586  0.5228 -0.0704
  101CHL1    C413665   3.826   6.238  15.780 -0.3849  0.6595  0.2553
  101CHL1   H4A13666   3.887   6.327  15.750 -0.6422  0.6308 -0.3775
  101CHL1   H4B13667   3.887   6.165  15.837  0.1402  1.1258  0.2967
  101CHL1    C513668   3.774   6.185  15.648 -0.3118  0.6292  0.2818
  101CHL1    C613669   3.815   6.069  15.606 -0.4263  0.1656 -0.2087
  101CHL1    H613670   3.890   6.020  15.669 -0.4235  0.3125 -0.0958
  101CHL1    C713671   3.766   5.999  15.482  0.3071 -0.3379  1.0181
  101CHL1   H7A13672   3.848   5.949  15.426  1.6352  2.1344  0.6153
  101CHL1   H7B13673   3.698   5.917  15.511  1.2996 -0.9306  1.7474
  101CHL1    C813674   3.693   6.105  15.390 -0.3446 -0.3879  0.4160
  101CHL1    H813675   3.764   6.177  15.343 -1.9992  0.4087 -0.9622
  101CHL1   C1413676   3.637   6.026  15.268  0.4008 -0.6548 -0.2342
  101CHL1   H1413677   3.566   5.950  15.305  1.2053 -1.3600 -0.1068
  101CHL1   C1513678   3.737   5.958  15.177  0.6557 -0.3378 -0.2069
  101CHL1  H15A13679   3.819   6.023  15.140 -1.0914  1.3372 -1.3616
  101CHL1  H15B13680   3.787   5.874  15.229  2.7745  0.1360 -1.3726
  101CHL1   C1613681   3.637   5.910  15.069 -0.1970 -0.0776  0.7316
  101CHL1  H16A13682   3.690   5.912  14.971  0.1202 -0.7530  0.8841
  101CHL1  H16B13683   3.608   5.803  15.080 -0.4671 -0.6640 -3.9480
  101CHL1   C1713684   3.514   6.004  15.079  0.2566  0.3450 -0.2450
  101CHL1   H1713685   3.434   5.945  15.129 -0.0249 -0.6285 -1.7641
  101CHL1   C1313686   3.537   6.109  15.183  0.1355 -0.5802  0.4099
  101CHL1   C1813687   3.613   6.228  15.114 -0.6513 -0.0236  0.4876
  101CHL1  H18A13688   3.688   6.184  15.045 -0.0919 -0.6263  1.4554
  101CHL1  H18B13689   3.549   6.292  15.049 -1.4721  1.6820  2.8197
  101CHL1  H18C13690   3.665   6.302  15.178 -1.7424  2.2248 -1.0924
  101CHL1   C1213691   3.424   6.162  15.264 -0.1998 -0.1617  0.2050
  101CHL1  H12A13692   3.360   6.230  15.204 -1.3250 -2.1746 -0.9338
  101CHL1  H12B13693   3.364   6.088  15.321  1.3451 -0.9953  0.8023
  101CHL1   C1113694   3.486   6.257  15.382  0.2568  0.0885 -0.1816
  101CHL1  H11A13695   3.531   6.343  15.329 -3.6676  1.1010 -2.2693
  101CHL1  H11B13696   3.405   6.304  15.442  0.5803  0.9719 -0.4184
  101CHL1    C913697   3.590   6.182  15.468  0.0719  1.2659  0.4659
  101CHL1    H913698   3.536   6.100  15.518  2.2828 -0.7631 -0.2969
  101CHL1   C1013699   3.658   6.263  15.580 -0.6505 -0.4652 -0.4125
  101CHL1   C1913700   3.712   6.392  15.520 -0.3992 -0.1633 -0.4528
  101CHL1  H19A13701   3.638   6.457  15.470 -0.5066  0.3508  0.3650
  101CHL1  H19B13702   3.770   6.455  15.590  0.9995  0.6600 -2.2499
  101CHL1  H19C13703   3.783   6.366  15.438 -1.7158 -3.3626 -0.7290
  101CHL1    C113704   3.543   6.301  15.687  0.2393 -0.6057 -0.6052
  101CHL1   H1A13705   3.476   6.370  15.632 -0.5934  0.7316  1.9410
  101CHL1   H1B13706   3.486   6.208  15.709  1.0811 -0.9830  0.0187
  101CHL1    C213707   3.602   6.368  15.815 -0.5185  0.2287  0.1603
  101CHL1   H2A13708   3.525   6.395  15.891 -0.5982  0.7433 -0.1047
  101CHL1   H2B13709   3.645   6.465  15.785  2.0633 -1.0209 -0.4498
  101CHL1   C2013710   3.458   6.042  14.940 -0.1476  0.7596  0.8475
  101CHL1   H2013711   3.538   6.102  14.892 -0.8057  0.2176 -1.0147
  101CHL1   C2113712   3.338   6.131  14.947 -0.2778 -0.3260  0.6996
  101CHL1  H21A13713   3.253   6.080  14.996 -1.2074  1.3481  0.8837
  101CHL1  H21B13714   3.299   6.151  14.845  2.0980 -0.4615 -0.3066
  101CHL1  H21C13715   3.356   6.227  15.000  0.5521 -0.7175  1.1422
  101CHL1   C2213716   3.433   5.926  14.840 -0.5241  0.6110  0.0400
  101CHL1  H22A13717   3.526   5.865  14.838 -1.5091 -0.9688  0.4718
  101CHL1  H22B13718   3.350   5.862  14.877  1.1705 -1.3111  0.7064
  101CHL1   C2313719   3.406   5.962  14.691 -0.4383 -0.5370  0.2042
  101CHL1  H23A13720   3.327   6.040  14.683  1.0163  0.9425 -0.3045
  101CHL1  H23B13721   3.501   6.008  14.657 -1.0230  1.4917  1.1349
  101CHL1   C2413722   3.366   5.846  14.604  0.0978 -0.0356 -0.3388
  101CHL1  H24A13723   3.401   5.752  14.652  1.9119  1.6432  1.8810
  101CHL1  H24B13724   3.255   5.844  14.612  0.0889  1.1092  0.1019
  101CHL1   C2513725   3.401   5.867  14.454  0.5261 -1.0118 -0.0303
  101CHL1   H2513726   3.380   5.970  14.419 -1.2100 -1.1138  0.6308
  101CHL1   C2613727   3.559   5.855  14.428  0.3775  0.6895  0.5537
  101CHL1  H26A13728   3.586   5.850  14.321 -1.6743  0.7745 -0.0069
  101CHL1  H26B13729   3.617   5.935  14.479 -1.0105  1.4188  1.0534
  101CHL1  H26C13730   3.582   5.754  14.469  0.5226  0.0931 -0.9575
  101CHL1   C2713731   3.335   5.774  14.351 -0.5456 -0.6734 -0.5332
  101CHL1  H27A13732   3.363   5.668  14.364 -0.4649 -0.7108 -0.9992
  101CHL1  H27B13733   3.225   5.782  14.362 -0.3245  2.3155  0.4777
  101CHL1  H27C13734   3.379   5.796  14.251  0.9555 -1.6580 -0.1325
  102CHL1    C313735   0.665   6.630  15.714 -0.1861  0.1424  0.3906
  102CHL1    H313736   0.559   6.661  15.704 -0.6285 -0.8755  1.6091
  102CHL1    O313737   0.684   6.581  15.847 -1.3656  0.9338 -0.3043
  102CHL1   H3'13738   0.774   6.548  15.845 -1.2113  1.3130  0.2881
  102CHL1    C413739   0.696   6.523  15.611 -0.4221  0.0829 -0.5270
  102CHL1   H4A13740   0.798   6.481  15.623  0.3484  2.2154  1.0640
  102CHL1   H4B13741   0.634   6.434  15.633 -0.7561  0.3989 -0.1787
  102CHL1    C513742   0.702   6.567  15.469 -0.2423 -0.4563  0.2187
  102CHL1    C613743   0.629   6.502  15.379  0.0745 -0.3432  0.3393
  102CHL1    H613744   0.588   6.402  15.404  1.7762 -0.7381  1.7608
  102CHL1    C713745   0.618   6.538  15.231 -0.0237 -1.2523  0.7574
  102CHL1   H7A13746   0.650   6.460  15.159  1.3042  0.2486 -0.3432
  102CHL1   H7B13747   0.515   6.573  15.213  1.0501  0.9515 -1.7201
  102CHL1    C813748   0.718   6.654  15.193 -0.4027 -0.4417 -0.8693
  102CHL1    H813749   0.819   6.611  15.179 -0.2464 -0.8838  1.2966
  102CHL1   C1413750   0.667   6.719  15.066 -0.7087 -0.0817 -0.0398
  102CHL1   H1413751   0.569   6.760  15.099 -0.6113 -0.0430  0.2029
  102CHL1   C1513752   0.654   6.628  14.944 -0.1482 -0.0126 -0.2564
  102CHL1  H15A13753   0.741   6.562  14.924  0.9952  1.4260 -0.1557
  102CHL1  H15B13754   0.571   6.555  14.932  0.6365 -0.7707 -1.2549
  102CHL1   C1613755   0.657   6.727  14.830 -0.0545  0.1994 -0.3454
  102CHL1  H16A13756   0.733   6.690  14.757 -0.4996 -1.3059 -0.0836
  102CHL1  H16B13757   0.555   6.737  14.787  0.1408  0.0874 -0.8472
  102CHL1   C1713758   0.690   6.867  14.885  0.6115  0.9753  0.4901
  102CHL1   H1713759   0.589   6.907  14.908  0.3977  0.0830  1.1702
  102CHL1   C1313760   0.757   6.833  15.016 -1.4656  0.4814  0.1295
  102CHL1   C1813761   0.908   6.796  14.994 -0.0635 -0.2979  0.0234
  102CHL1  H18A13762   0.951   6.756  15.089 -0.1983  0.0462  0.2347
  102CHL1  H18B13763   0.942   6.730  14.911  1.7357  1.0862 -0.4090
  102CHL1  H18C13764   0.962   6.887  14.960  0.1732  0.4272  2.1817
  102CHL1   C1213765   0.749   6.942  15.129 -0.2117 -0.2418 -0.5562
  102CHL1  H12A13766   0.819   7.025  15.106 -1.2823  0.5199 -1.1367
  102CHL1  H12B13767   0.646   6.981  15.137 -1.2816 -2.6644 -1.5548
  102CHL1   C1113768   0.801   6.883  15.260  0.5816  0.1813 -0.3801
  102CHL1  H11A13769   0.911   6.870  15.257  0.6599  0.1670  1.4764
  102CHL1  H11B13770   0.786   6.960  15.338  2.3933  0.3889 -0.2074
  102CHL1    C913771   0.723   6.760  15.310  0.2090  0.6272 -0.1609
  102CHL1    H913772   0.621   6.801  15.329  0.8668  2.3161 -0.1150
  102CHL1   C1013773   0.776   6.701  15.441 -0.7527  0.3154  0.6725
  102CHL1   C1913774   0.937   6.673  15.426  0.1063 -0.1735 -0.0535
  102CHL1  H19A13775   0.997   6.766  15.416  0.4602 -0.1864  1.6735
  102CHL1  H19B13776   0.977   6.613  15.510  0.1218  0.4438  0.3890
  102CHL1  H19C13777   0.958   6.613  15.334 -0.6993 -1.0286  0.3012
  102CHL1    C113778   0.741   6.805  15.549 -0.3160  0.8544 -0.4155
  102CHL1   H1A13779   0.812   6.889  15.529 -0.0405  0.7479  0.1085
  102CHL1   H1B13780   0.637   6.845  15.538 -0.7809  0.0594  0.8921
  102CHL1    C213781   0.757   6.745  15.689 -0.1248 -0.1710 -0.3411
  102CHL1   H2A13782   0.729   6.835  15.748 -1.4922  0.8095 -2.3511
  102CHL1   H2B13783   0.858   6.711  15.718 -0.4988  0.0673  1.3516
  102CHL1   C2013784   0.753   6.969  14.782  0.3590  0.0892 -0.2604
  102CHL1   H2013785   0.860   6.940  14.772  0.1161 -0.8411 -0.2506
  102CHL1   C2113786   0.740   7.100  14.840 -0.0231 -0.0838  0.1950
  102CHL1  H21A13787   0.634   7.131  14.857 -0.0252  1.1077 -1.7062
  102CHL1  H21B13788   0.782   7.178  14.773 -2.2737 -0.2452 -1.5203
  102CHL1  H21C13789   0.792   7.105  14.938  0.1713 -3.8602  0.4330
  102CHL1   C2213790   0.689   6.957  14.641  0.4755 -0.5976  0.5866
  102CHL1  H22A13791   0.692   6.852  14.605  2.1869 -0.7226  1.0251
  102CHL1  H22B13792   0.584   6.994  14.635  0.0483 -1.6531  1.2509
  102CHL1   C2313793   0.775   7.043  14.539 -0.0641 -0.4246 -0.0254
  102CHL1  H23A13794   0.802   7.146  14.569 -1.7847 -0.3504  1.3982
  102CHL1  H23B13795   0.869   6.985  14.522  0.2591  0.3213 -0.8976
  102CHL1   C2413796   0.698   7.050  14.402 -0.1264  0.0096  0.1769
  102CHL1  H24A13797   0.594   7.083  14.421 -0.6164  0.1276 -2.4502
  102CHL1  H24B13798   0.746   7.128  14.340 -0.0953  0.6825  1.0186
  102CHL1   C2513799   0.692   6.916  14.320  0.2531  0.6618 -0.9224
  102CHL1   H2513800   0.641   6.840  14.382 -0.1659  2.8316  1.5683
  102CHL1   C2613801   0.585   6.935  14.207 -0.7420  0.1815 -0.1321
  102CHL1  H26A13802   0.500   6.995  14.247 -1.6386 -2.3221  1.9791
  102CHL1  H26B13803   0.630   6.991  14.122 -0.7297 -0.2184 -0.3909
  102CHL1  H26C13804   0.546   6.840  14.166  0.5394  0.2821 -1.6784
  102CHL1   C2713805   0.821   6.866  14.258  0.1539 -0.8545 -0.3533
  102CHL1  H27A13806   0.806   6.767  14.212  1.5676 -0.5291 -1.5871
  102CHL1  H27B13807   0.857   6.945  14.189  0.1506 -0.7456 -0.2311
  102CHL1  H27C13808   0.909   6.857  14.325  1.0538  0.4119 -1.3159
  103CHL1    C313809   1.859   5.490  15.836  0.0469  0.0130  0.2118
  103CHL1    H313810   1.955   5.540  15.809 -1.1637  1.4640 -1.6867
  103CHL1    O313811   1.850   5.442  15.970  0.3578 -0.1938  0.0140
  103CHL1   H3'13812   1.930   5.393  15.988  0.6600  1.2719  3.3983
  103CHL1    C413813   1.747   5.590  15.809 -0.2172 -0.7416 -0.0842
  103CHL1   H4A13814   1.654   5.533  15.828  0.1938 -3.2324 -4.2810
  103CHL1   H4B13815   1.766   5.676  15.877  0.9743 -0.6583 -0.5095
  103CHL1    C513816   1.735   5.629  15.664 -0.3746  0.4773  0.3961
  103CHL1    C613817   1.738   5.755  15.624 -0.3162  0.1430 -1.0789
  103CHL1    H613818   1.742   5.841  15.694 -2.0257 -0.1539 -0.5669
  103CHL1    C713819   1.727   5.798  15.481  0.3729  0.3826 -0.2578
  103CHL1   H7A13820   1.675   5.893  15.456  0.8849  1.4555  2.3633
  103CHL1   H7B13821   1.830   5.817  15.445  0.1402  0.4270 -0.9017
  103CHL1    C813822   1.668   5.683  15.393 -0.1038 -0.2516 -0.6447
  103CHL1    H813823   1.563   5.667  15.427 -0.0236  1.2922  0.4394
  103CHL1   C1413824   1.680   5.721  15.245  0.2113 -0.3234 -0.4945
  103CHL1   H1413825   1.786   5.724  15.213  0.9178  2.3168  1.6778
  103CHL1   C1513826   1.627   5.858  15.210  0.2603 -0.1632  0.1995
  103CHL1  H15A13827   1.538   5.899  15.261 -0.0191  1.5675 -1.5496
  103CHL1  H15B13828   1.702   5.939  15.220  0.7626 -0.0700 -3.1359
  103CHL1   C1613829   1.576   5.847  15.062  0.1568  0.0798  0.3798
  103CHL1  H16A13830   1.467   5.866  15.064  0.2040  0.3524  0.3683
  103CHL1  H16B13831   1.623   5.929  15.004  0.3081  0.8222  1.5290
  103CHL1   C1713832   1.616   5.700  15.020 -0.1299 -0.2400  0.5467
  103CHL1   H1713833   1.721   5.697  14.986  0.3773 -1.4790  2.1172
  103CHL1   C1313834   1.612   5.616  15.153 -0.0369 -0.3087 -0.1708
  103CHL1   C1813835   1.459   5.593  15.195 -0.1016  0.0038 -0.1449
  103CHL1  H18A13836   1.408   5.692  15.203 -1.4982 -0.7252  0.3372
  103CHL1  H18B13837   1.409   5.539  15.112 -3.5664  1.6773  0.6674
  103CHL1  H18C13838   1.456   5.536  15.291  2.4561  1.0751  0.6658
  103CHL1   C1213839   1.691   5.490  15.166  0.0616 -0.4286 -0.0118
  103CHL1  H12A13840   1.662   5.408  15.098 -0.9943 -0.9123  0.9874
  103CHL1  H12B13841   1.793   5.514  15.128 -0.2491 -2.0459 -2.0008
  103CHL1   C1113842   1.702   5.441  15.317  0.6751  0.5734 -0.6683
  103CHL1  H11A13843   1.606   5.389  15.335 -0.5800  2.3377 -1.8805
  103CHL1  H11B13844   1.783   5.365  15.323  2.7312  2.5980 -1.1998
  103CHL1    C913845   1.741   5.549  15.419  0.0166 -0.0544  0.3123
  103CHL1    H913846   1.849   5.570  15.401  0.0629 -1.2743 -0.9710
  103CHL1   C1013847   1.722   5.510  15.567  0.0705 -0.1498 -0.5003
  103CHL1   C1913848   1.576   5.449  15.590 -0.6247 -0.5601  0.7895
  103CHL1  H19A13849   1.558   5.366  15.519 -0.4306  1.0829 -1.2744
  103CHL1  H19B13850   1.563   5.405  15.691 -1.9159  2.3134  1.9815
  103CHL1  H19C13851   1.499   5.529  15.577 -1.4318 -1.4466 -0.0858
  103CHL1    C113852   1.832   5.404  15.598 -0.4412  0.0636  0.3642
  103CHL1   H1A13853   1.817   5.318  15.530  2.7141  0.6300 -1.2070
  103CHL1   H1B13854   1.928   5.454  15.576 -0.4524  0.0824  0.3582
  103CHL1    C213855   1.840   5.365  15.746  0.6511 -0.1519 -0.5329
  103CHL1   H2A13856   1.913   5.283  15.760 -1.6445 -1.8489  3.2102
  103CHL1   H2B13857   1.741   5.316  15.757 -0.0445  1.6836  2.8309
  103CHL1   C2013858   1.528   5.651  14.901 -0.3975  0.1309 -0.2148
  103CHL1   H2013859   1.418   5.648  14.917 -0.5617 -1.0878 -1.3697
  103CHL1   C2113860   1.560   5.504  14.865 -0.0782 -0.3577  0.1819
  103CHL1  H21A13861   1.671   5.500  14.864 -0.0823 -1.4742 -2.1967
  103CHL1  H21B13862   1.519   5.479  14.765  0.9789 -0.2012 -0.3145
  103CHL1  H21C13863   1.514   5.437  14.940 -1.2805  0.8595  0.5777
  103CHL1   C2213864   1.538   5.747  14.775  0.0022 -0.2494 -0.8026
  103CHL1  H22A13865   1.477   5.698  14.697  0.7206 -1.1935 -0.7907
  103CHL1  H22B13866   1.506   5.849  14.807 -1.6098 -0.9927  0.0606
  103CHL1   C2313867   1.678   5.758  14.717 -0.5188 -0.6140  0.6040
  103CHL1  H23A13868   1.750   5.797  14.792 -0.8412 -0.3924  0.8028
  103CHL1  H23B13869   1.719   5.657  14.695 -2.7786 -1.3058 -0.8112
  103CHL1   C2413870   1.696   5.838  14.583  0.1659 -0.2220 -0.3371
  103CHL1  H24A13871   1.623   5.795  14.512 -1.4354 -2.0691  2.2363
  103CHL1  H24B13872   1.675   5.945  14.604  1.6190  0.1507 -0.6156
  103CHL1   C2513873   1.845   5.829  14.530  0.3152 -0.2556 -0.0308
  103CHL1   H2513874   1.877   5.722  14.530 -1.3616 -0.7938 -1.3438
  103CHL1   C2613875   1.860   5.872  14.382  0.0058 -0.4008  0.1382
  103CHL1  H26A13876   1.818   5.975  14.380  0.5520 -0.0190  3.1837
  103CHL1  H26B13877   1.969   5.869  14.363  0.2979 -1.0454  1.7511
  103CHL1  H26C13878   1.799   5.813  14.310  0.0159 -0.2427  0.0002
  103CHL1   C2713879   1.942   5.908  14.624 -0.2167 -0.6641  0.6620
  103CHL1  H27A13880   2.046   5.916  14.586  0.9900 -2.4359  3.2994
  103CHL1  H27B13881   1.912   6.015  14.623  1.3875 -0.1609 -1.8508
  103CHL1  H27C13882   1.947   5.876  14.730  1.9080  0.7233  1.0369
  104CHL1    C313883   5.494   5.152  16.125  0.4200 -0.8471  0.2310
  104CHL1    H313884   5.507   5.043  16.142  0.4834 -0.5433  2.3890
  104CHL1    O313885   5.528   5.221  16.247  0.0554  0.4267 -0.3587
  104CHL1   H3'13886   5.540   5.153  16.313 -2.2342 -0.2954 -0.6122
  104CHL1    C413887   5.585   5.211  16.009  0.1290 -0.1434  0.4506
  104CHL1   H4A13888   5.581   5.322  16.015 -0.8677  0.0137 -1.9524
  104CHL1   H4B13889   5.685   5.172  16.039 -0.8314 -2.6152  0.7137
  104CHL1    C513890   5.532   5.169  15.874  0.0013 -0.7401  0.6652
  104CHL1    C613891   5.608   5.107  15.783 -0.8428 -0.3651 -0.4579
  104CHL1    H613892   5.708   5.073  15.814 -1.0663 -0.5058  0.1093
  104CHL1    C713893   5.563   5.079  15.643 -0.9321  0.6016  0.5062
  104CHL1   H7A13894   5.651   5.090  15.575 -0.6686 -2.8735  0.1217
  104CHL1   H7B13895   5.530   4.973  15.640 -0.1891  0.3257  1.4076
  104CHL1    C813896   5.441   5.164  15.604  0.0614  0.3383  0.1623
  104CHL1    H813897   5.470   5.270  15.591 -0.3193  0.6776  1.8525
  104CHL1   C1413898   5.384   5.106  15.477 -0.4591 -0.2443  0.0801
  104CHL1   H1413899   5.351   5.004  15.506  0.4625 -0.1789  1.4316
  104CHL1   C1513900   5.476   5.089  15.356  0.0680  0.0341  0.4717
  104CHL1  H15A13901   5.538   5.179  15.339 -2.2778  1.7756  0.5954
  104CHL1  H15B13902   5.538   4.997  15.365 -0.8766 -0.5622  1.1261
  104CHL1   C1613903   5.371   5.072  15.242  0.4184  0.1161 -0.8865
  104CHL1  H16A13904   5.399   5.145  15.163 -0.3933  0.7853 -0.5703
  104CHL1  H16B13905   5.374   4.973  15.191 -0.2685  0.5609 -1.8211
  104CHL1   C1713906   5.229   5.102  15.301  0.8924  0.2535 -0.2133
  104CHL1   H1713907   5.181   5.004  15.318 -0.5149  0.6663 -1.5580
  104CHL1   C1313908   5.247   5.173  15.435  0.2683  0.6184 -0.0503
  104CHL1   C1813909   5.268   5.325  15.420 -0.5035 -0.9583 -0.4428
  104CHL1  H18A13910   5.355   5.336  15.352 -0.5182  2.9549 -0.0449
  104CHL1  H18B13911   5.174   5.377  15.393  0.0773 -0.4547 -1.5455
  104CHL1  H18C13912   5.305   5.361  15.519 -1.5895 -0.2423 -0.2822
  104CHL1   C1213913   5.144   5.132  15.545  0.1682 -0.2186  0.7230
  104CHL1  H12A13914   5.040   5.147  15.509  1.0538  2.0435 -1.1438
  104CHL1  H12B13915   5.144   5.022  15.563 -1.2278 -0.3805 -0.1276
  104CHL1   C1113916   5.187   5.204  15.675 -0.2795  0.5456  0.2096
  104CHL1  H11A13917   5.187   5.315  15.667  1.4521  0.4426 -1.9333
  104CHL1  H11B13918   5.125   5.185  15.766 -0.0753  1.0311  0.4561
  104CHL1    C913919   5.332   5.157  15.717 -0.3067 -0.0318  0.2910
  104CHL1    H913920   5.320   5.048  15.734 -0.2547 -0.1455 -0.3475
  104CHL1   C1013921   5.389   5.209  15.852  0.0180 -0.2653 -0.4726
  104CHL1   C1913922   5.372   5.360  15.845  0.1893  0.5663  0.9642
  104CHL1  H19A13923   5.417   5.398  15.751 -0.6779  0.7971  0.6386
  104CHL1  H19B13924   5.268   5.394  15.826  0.6999  0.2710 -3.0050
  104CHL1  H19C13925   5.423   5.412  15.930  1.3355  1.9770 -0.5210
  104CHL1    C113926   5.297   5.157  15.965 -0.3434 -0.3014  0.4683
  104CHL1   H1A13927   5.203   5.210  15.939 -0.5017 -1.0716 -0.6167
  104CHL1   H1B13928   5.279   5.048  15.949  0.4514 -0.4403  0.4798
  104CHL1    C213929   5.350   5.190  16.103  0.2446 -0.3342  0.2779
  104CHL1   H2A13930   5.282   5.141  16.176 -0.1043  0.2622  0.3642
  104CHL1   H2B13931   5.324   5.297  16.116  0.0648 -0.6502  3.3008
  104CHL1   C2013932   5.131   5.177  15.202  0.3683 -0.7267  0.1777
  104CHL1   H2013933   5.165   5.282  15.194  2.0760 -1.1056  1.7554
  104CHL1   C2113934   4.987   5.170  15.256  0.1866  0.0623  0.2108
  104CHL1  H21A13935   4.962   5.218  15.353  0.7313  0.3717  0.2037
  104CHL1  H21B13936   4.958   5.065  15.275 -0.0697 -0.0384 -0.7138
  104CHL1  H21C13937   4.925   5.218  15.178 -1.4867  1.7859  2.4552
  104CHL1   C2213938   5.138   5.112  15.062  0.8123  0.0079  0.4493
  104CHL1  H22A13939   5.244   5.100  15.032  1.4694  1.7117  1.9137
  104CHL1  H22B13940   5.100   5.009  15.078  1.0534 -0.2250 -0.4270
  104CHL1   C2313941   5.054   5.175  14.949 -0.0083 -0.8684 -0.9871
  104CHL1  H23A13942   4.946   5.154  14.960  0.0645 -0.4182  0.8303
  104CHL1  H23B13943   5.053   5.286  14.939  0.1983 -0.9407 -2.0165
  104CHL1   C2413944   5.098   5.126  14.812 -0.3266  0.6058  0.1716
  104CHL1  H24A13945   5.193   5.174  14.780 -0.9637  2.2112  0.6028
  104CHL1  H24B13946   5.104   5.016  14.832 -0.0512  0.4767 -0.6032
  104CHL1   C2513947   4.988   5.134  14.700 -0.5354  0.5343 -0.0700
  104CHL1   H2513948   4.897   5.091  14.748  0.5522  0.8788  2.4999
  104CHL1   C2613949   4.968   5.278  14.651  0.5246  0.1501 -0.2968
  104CHL1  H26A13950   4.890   5.278  14.573  0.2034  0.0185  0.0213
  104CHL1  H26B13951   4.932   5.333  14.741  1.7081 -0.2381  0.4474
  104CHL1  H26C13952   5.066   5.320  14.622  1.7684 -1.0069  1.8983
  104CHL1   C2713953   5.021   5.049  14.578 -0.9354  0.8467  0.1955
  104CHL1  H27A13954   5.120   5.075  14.535  0.8232 -0.1886  3.3454
  104CHL1  H27B13955   5.042   4.946  14.614  0.8320  1.1084 -0.0206
  104CHL1  H27C13956   4.939   5.043  14.502 -1.1788 -0.4940  0.5295
  105CHL1    C313957   5.509   4.212  16.120 -0.3943 -0.0400  0.4074
  105CHL1    H313958   5.418   4.252  16.071 -2.5532 -2.3446  2.2801
  105CHL1    O313959   5.453   4.179  16.248  0.0210 -0.2026 -0.0368
  105CHL1   H3'13960   5.489   4.093  16.269 -1.3322 -0.5916  0.7799
  105CHL1    C413961   5.544   4.076  16.063  0.1246  0.3121 -0.5450
  105CHL1   H4A13962   5.623   4.032  16.127  1.2297  0.8826 -1.4673
  105CHL1   H4B13963   5.464   4.000  16.064 -0.2894  0.7421 -0.6369
  105CHL1    C513964   5.616   4.097  15.925  1.1568  0.7728  0.0874
  105CHL1    C613965   5.562   4.027  15.821 -0.3261  0.4905  0.1709
  105CHL1    H613966   5.470   3.966  15.831  1.2821 -1.9391  1.0506
  105CHL1    C713967   5.618   4.041  15.685 -1.4483 -0.5880  0.1748
  105CHL1   H7A13968   5.646   3.943  15.641  0.7768 -0.1404  0.4734
  105CHL1   H7B13969   5.546   4.080  15.610 -0.5234 -0.9783 -0.9391
  105CHL1    C813970   5.751   4.119  15.689  0.2884 -0.6808  1.1933
  105CHL1    H813971   5.838   4.063  15.730  1.3710  0.3227  0.3296
  105CHL1   C1413972   5.784   4.166  15.541 -0.6496  0.6890  0.4678
  105CHL1   H1413973   5.709   4.246  15.526 -0.2670  1.2836  1.5751
  105CHL1   C1513974   5.778   4.063  15.422  0.3292  0.0418  0.1330
  105CHL1  H15A13975   5.806   3.965  15.466 -1.9490 -0.5151  0.5011
  105CHL1  H15B13976   5.674   4.051  15.383 -0.9093  0.2133  3.1029
  105CHL1   C1613977   5.858   4.124  15.310  1.3416 -0.2738 -0.4847
  105CHL1  H16A13978   5.946   4.058  15.294 -0.0531 -1.9824 -1.4289
  105CHL1  H16B13979   5.817   4.124  15.207  1.7725  0.7491 -0.6716
  105CHL1   C1713980   5.905   4.269  15.355 -0.0527 -0.5447  0.2536
  105CHL1   H1713981   5.813   4.328  15.334  0.6777  0.3516 -0.5102
  105CHL1   C1313982   5.911   4.255  15.515 -0.7631 -0.0167  0.1464
  105CHL1   C1813983   6.034   4.167  15.558  0.4423  0.0154 -0.4625
  105CHL1  H18A13984   6.025   4.067  15.511 -1.8290  1.2672 -2.9384
  105CHL1  H18B13985   6.135   4.211  15.542  0.8952 -0.2611  1.3318
  105CHL1  H18C13986   6.023   4.144  15.666  0.1946 -0.5384 -0.6038
  105CHL1   C1213987   5.900   4.385  15.600  0.2909 -0.5818  0.6250
  105CHL1  H12A13988   5.996   4.442  15.603  0.0006 -0.1017  0.9386
  105CHL1  H12B13989   5.822   4.456  15.566  0.9136  0.0243  0.4500
  105CHL1   C1113990   5.874   4.337  15.750 -0.2515  0.6454  0.4853
  105CHL1  H11A13991   5.964   4.290  15.796 -0.1387  0.1959 -0.1811
  105CHL1  H11B13992   5.871   4.435  15.802  0.9101  1.2535 -0.5432
  105CHL1    C913993   5.751   4.247  15.779  0.2692  0.3142  0.5292
  105CHL1    H913994   5.668   4.305  15.735  0.4347  0.8008  0.8488
  105CHL1   C1013995   5.725   4.208  15.922 -0.3103  0.4220 -0.0144
  105CHL1   C1913996   5.861   4.148  15.985  0.0591 -0.1214 -0.2792
  105CHL1  H19A13997   5.888   4.052  15.936 -2.2536 -1.4839  1.0034
  105CHL1  H19B13998   5.936   4.230  15.976 -4.2226  4.1410 -1.2764
  105CHL1  H19C13999   5.836   4.126  16.090 -1.3684  0.9797 -0.3680
  105CHL1    C114000   5.696   4.338  15.997  0.1435  0.1366  0.2211
  105CHL1   H1A14001   5.785   4.402  16.011 -0.3410  0.8343  0.1556
  105CHL1   H1B14002   5.627   4.394  15.929  0.6428 -1.7363 -1.9814
  105CHL1    C214003   5.626   4.308  16.136 -0.0734 -0.0688 -0.1259
  105CHL1   H2A14004   5.591   4.409  16.167 -1.5902  0.3661 -2.9364
  105CHL1   H2B14005   5.699   4.257  16.202 -1.1169 -0.5967  0.6441
  105CHL1   C2014006   6.020   4.336  15.282  0.0817  0.0560 -0.4652
  105CHL1   H2014007   6.113   4.321  15.341 -0.3261 -0.2599  0.1122
  105CHL1   C2114008   5.988   4.489  15.269  0.3967 -0.4360 -0.7070
  105CHL1  H21A14009   5.921   4.509  15.183  0.0695 -3.8253 -1.3519
  105CHL1  H21B14010   6.079   4.551  15.254 -0.4298  0.7840 -0.8425
  105CHL1  H21C14011   5.934   4.520  15.361  3.3015 -2.2372  1.7926
  105CHL1   C2214012   6.052   4.281  15.138  1.1745 -0.0234  0.0571
  105CHL1  H22A14013   6.047   4.170  15.140 -0.2706  0.0201 -0.0115
  105CHL1  H22B14014   5.965   4.313  15.076  1.9350 -0.3735 -1.2464
  105CHL1   C2314015   6.181   4.342  15.079  0.0224 -0.2271 -0.1791
  105CHL1  H23A14016   6.184   4.453  15.082  2.9307 -0.2519  2.3356
  105CHL1  H23B14017   6.265   4.294  15.132  1.3172 -1.6025 -3.2615
  105CHL1   C2414018   6.200   4.302  14.930  1.7531 -0.2633 -0.5868
  105CHL1  H24A14019   6.199   4.192  14.911 -1.9253 -0.4701  0.2531
  105CHL1  H24B14020   6.112   4.342  14.876  0.8292  0.4729  1.4052
  105CHL1   C2514021   6.326   4.352  14.861  0.3410 -0.4511  0.8173
  105CHL1   H2514022   6.410   4.297  14.908 -0.1163 -1.1765  0.7888
  105CHL1   C2614023   6.319   4.308  14.717 -0.1797 -0.0159  0.4476
  105CHL1  H26A14024   6.400   4.351  14.655  0.6142  0.1799  1.5832
  105CHL1  H26B14025   6.299   4.201  14.697  0.1784  0.3453 -2.1758
  105CHL1  H26C14026   6.230   4.361  14.676 -0.3646  2.1479  3.2831
  105CHL1   C2714027   6.360   4.505  14.882 -0.1449 -0.0196  0.6187
  105CHL1  H27A14028   6.383   4.537  14.986 -0.8695  1.2003  0.4268
  105CHL1  H27B14029   6.453   4.534  14.828 -0.0643  0.6571  1.1064
  105CHL1  H27C14030   6.284   4.575  14.840  0.6539  0.0387 -0.7841
  106CHL1    C314031   1.697   4.845  15.899 -0.8708 -0.3934  0.1235
  106CHL1    H314032   1.757   4.751  15.891 -3.1049 -1.8310 -0.8842
  106CHL1    O314033   1.668   4.865  16.035 -0.3065 -0.0236  0.1089
  106CHL1   H3'14034   1.580   4.827  16.041 -0.0978 -0.8064 -1.1984
  106CHL1    C414035   1.768   4.974  15.841 -0.2701 -1.0454 -0.1661
  106CHL1   H4A14036   1.698   5.060  15.851 -1.0774 -1.4781 -1.8248
  106CHL1   H4B14037   1.852   4.991  15.912 -2.4292  1.7534  1.9157
  106CHL1    C514038   1.798   4.970  15.693  0.6258 -0.1699  0.2769
  106CHL1    C614039   1.918   4.971  15.650 -0.3291 -0.9138  0.1974
  106CHL1    H614040   2.002   4.994  15.717 -0.8396 -0.2743  0.6263
  106CHL1    C714041   1.949   4.950  15.508 -0.5476  0.0731  0.2973
  106CHL1   H7A14042   2.038   5.013  15.489 -0.2926 -0.1654  0.6718
  106CHL1   H7B14043   1.974   4.844  15.488 -0.8606  0.1790 -0.6858
  106CHL1    C814044   1.831   4.983  15.417  0.2097 -0.9375  0.5677
  106CHL1    H814045   1.801   5.090  15.421 -1.7660 -1.4586  0.7509
  106CHL1   C1414046   1.858   4.943  15.265  0.0605 -0.1398 -0.3394
  106CHL1   H1414047   1.872   4.833  15.258  2.1743  0.1058 -0.6226
  106CHL1   C1514048   1.986   4.986  15.192 -0.2271  0.0986 -0.0135
  106CHL1  H15A14049   2.009   5.093  15.210  0.0027  0.0564 -0.0474
  106CHL1  H15B14050   2.072   4.923  15.221  1.1346  2.3139  1.0224
  106CHL1   C1614051   1.953   4.962  15.041  0.2194 -0.2147  0.3795
  106CHL1  H16A14052   1.981   5.044  14.972 -0.3970 -1.2128 -1.0989
  106CHL1  H16B14053   2.011   4.876  15.003 -2.2763 -0.9192 -2.1852
  106CHL1   C1714054   1.805   4.920  15.038  0.4368 -0.5002 -0.6843
  106CHL1   H1714055   1.798   4.809  15.033  0.2820 -0.4426 -2.2760
  106CHL1   C1314056   1.744   4.969  15.170 -0.2420  0.2508 -0.4091
  106CHL1   C1814057   1.723   5.124  15.168  0.0046  0.0781  0.3950
  106CHL1  H18A14058   1.658   5.162  15.087  0.1818  2.2493  1.2050
  106CHL1  H18B14059   1.677   5.163  15.262  1.0034  2.2870  0.0194
  106CHL1  H18C14060   1.818   5.177  15.143  0.0062 -0.0933  0.0342
  106CHL1   C1214061   1.625   4.889  15.215 -0.1752  0.0824 -0.7634
  106CHL1  H12A14062   1.537   4.913  15.152 -0.2477  1.4140 -0.2031
  106CHL1  H12B14063   1.640   4.779  15.213 -1.7985 -0.2267  0.8817
  106CHL1   C1114064   1.588   4.920  15.365  0.3035 -0.2747  0.3612
  106CHL1  H11A14065   1.556   5.026  15.351  3.1623  0.5600 -0.5138
  106CHL1  H11B14066   1.494   4.866  15.390 -0.6348  0.1001 -2.1232
  106CHL1    C914067   1.708   4.908  15.462 -0.6270 -0.3812 -0.4062
  106CHL1    H914068   1.739   4.802  15.455  0.0682 -0.0979 -2.4881
  106CHL1   C1014069   1.674   4.943  15.605 -0.0504  0.2102  0.0874
  106CHL1   C1914070   1.591   5.080  15.619 -0.1071 -0.4340  0.4789
  106CHL1  H19A14071   1.552   5.093  15.722  1.8103 -0.7182  1.2792
  106CHL1  H19B14072   1.658   5.164  15.588 -1.1560 -0.7571 -3.1340
  106CHL1  H19C14073   1.501   5.085  15.553  2.2028 -0.0702 -2.9361
  106CHL1    C114074   1.594   4.821  15.666 -0.0929 -0.3126 -0.2974
  106CHL1   H1A14075   1.499   4.821  15.608 -0.2317  0.7927 -0.0828
  106CHL1   H1B14076   1.657   4.730  15.655  0.7609  0.2789 -0.3997
  106CHL1    C214077   1.569   4.820  15.823  0.1171  0.5474 -0.2075
  106CHL1   H2A14078   1.532   4.720  15.853  1.5999  0.2150  0.6203
  106CHL1   H2B14079   1.495   4.901  15.837  0.0778  0.3572  0.7306
  106CHL1   C2014080   1.728   4.968  14.917 -0.0711  0.0031  0.3703
  106CHL1   H2014081   1.632   5.002  14.962 -0.9838 -0.4208 -1.1994
  106CHL1   C2114082   1.692   4.842  14.837  0.1440 -0.3511 -0.2562
  106CHL1  H21A14083   1.616   4.778  14.887  1.3453 -0.4480  1.5281
  106CHL1  H21B14084   1.781   4.777  14.826  1.0759  0.6835  0.9799
  106CHL1  H21C14085   1.646   4.862  14.737  0.3194 -0.6191 -0.3920
  106CHL1   C2214086   1.793   5.082  14.825  0.3736  0.2559 -0.2803
  106CHL1  H22A14087   1.814   5.161  14.900  3.3541  0.6199 -1.3926
  106CHL1  H22B14088   1.883   5.038  14.777  0.1661  1.6157 -2.0031
  106CHL1   C2314089   1.694   5.140  14.720 -0.3248  0.1546  0.3575
  106CHL1  H23A14090   1.650   5.056  14.663  2.9876 -1.2619 -0.3514
  106CHL1  H23B14091   1.621   5.202  14.775 -1.5756  0.2741 -1.3631
  106CHL1   C2414092   1.773   5.241  14.629 -1.2183 -0.1112 -0.6814
  106CHL1  H24A14093   1.835   5.313  14.686 -0.1465 -1.8194  0.3833
  106CHL1  H24B14094   1.852   5.186  14.574 -0.8920 -2.0355  1.5599
  106CHL1   C2514095   1.693   5.311  14.515 -0.9399 -0.5575 -0.0116
  106CHL1   H2514096   1.627   5.388  14.560 -1.5338 -1.0927  0.0460
  106CHL1   C2614097   1.779   5.408  14.416  0.7930  0.4661  0.1592
  106CHL1  H26A14098   1.719   5.438  14.328 -1.5268 -0.7603  1.2132
  106CHL1  H26B14099   1.813   5.498  14.470  0.2582  1.3916 -1.0038
  106CHL1  H26C14100   1.864   5.359  14.364 -0.9215  0.3668 -2.7466
  106CHL1   C2714101   1.596   5.221  14.446  0.1317  0.5047 -0.0022
  106CHL1  H27A14102   1.647   5.126  14.417  2.9431  2.4889 -2.1145
  106CHL1  H27B14103   1.505   5.200  14.505  0.1263 -1.7092 -0.6803
  106CHL1  H27C14104   1.561   5.267  14.351  1.2249 -0.5377 -0.9558
  107CHL1    C314105   3.348   0.230  16.144 -0.7648 -0.1518  0.7578
  107CHL1    H314106   3.256   0.177  16.177 -0.1865 -2.4940 -1.0995
  107CHL1    O314107   3.416   0.254  16.267 -0.5572  0.5288 -0.4794
  107CHL1   H3'14108   3.366   0.199  16.328 -2.1410  3.3079  0.9477
  107CHL1    C414109   3.428   0.145  16.062  0.2707 -0.3311 -0.3352
  107CHL1   H4A14110   3.523   0.199  16.038 -0.1211  1.2398  1.4546
  107CHL1   H4B14111   3.466   0.060  16.121  3.5861  0.2674 -1.3829
  107CHL1    C514112   3.360   0.097  15.936 -0.6413  0.2509  0.1984
  107CHL1    C614113   3.331  -0.032  15.908 -0.8524  0.2334  0.3102
  107CHL1    H614114   3.353  -0.111  15.981  0.1478  0.6714  0.4938
  107CHL1    C714115   3.264  -0.081  15.775 -0.4161  0.0085 -0.0260
  107CHL1   H7A14116   3.319  -0.164  15.726 -1.6227 -0.0076 -1.4259
  107CHL1   H7B14117   3.164  -0.114  15.809 -0.3497 -1.6452 -1.3155
  107CHL1    C814118   3.261   0.034  15.664  0.1930 -1.1548 -0.0991
  107CHL1    H814119   3.362   0.053  15.622  0.0379  0.6852  0.2528
  107CHL1   C1414120   3.160  -0.007  15.555 -0.0266  0.2256  0.2365
  107CHL1   H1414121   3.057  -0.017  15.595 -1.3050  0.6357 -2.6770
  107CHL1   C1514122   3.170  -0.138  15.474  0.0131 -0.5548  0.1441
  107CHL1  H15A14123   3.271  -0.161  15.434 -0.3375  0.4198 -1.3892
  107CHL1  H15B14124   3.147  -0.227  15.537 -1.5288 -0.2760  0.0287
  107CHL1   C1614125   3.065  -0.130  15.356  0.4225  0.9777 -0.4872
  107CHL1  H16A14126   3.113  -0.178  15.268  0.7593 -0.3919  0.4145
  107CHL1  H16B14127   2.975  -0.191  15.380  0.3628  0.7941 -1.1464
  107CHL1   C1714128   3.026   0.018  15.341  0.4239  0.1059  0.2019
  107CHL1   H1714129   2.929   0.021  15.395  0.6235 -0.2608  0.5882
  107CHL1   C1314130   3.132   0.092  15.436 -0.1950 -0.4644 -0.1499
  107CHL1   C1814131   3.264   0.118  15.365  0.0567 -0.5963  0.4588
  107CHL1  H18A14132   3.303   0.027  15.315 -3.3273 -1.5085 -0.8177
  107CHL1  H18B14133   3.249   0.188  15.280 -0.8218 -2.7509 -1.2864
  107CHL1  H18C14134   3.339   0.159  15.435 -0.1258  1.0154 -0.2520
  107CHL1   C1214135   3.071   0.228  15.506 -0.3618  0.8078 -0.3316
  107CHL1  H12A14136   3.075   0.313  15.434  0.7370  0.9667 -0.0940
  107CHL1  H12B14137   2.967   0.209  15.539 -0.7639  1.3022 -1.2733
  107CHL1   C1114138   3.165   0.272  15.622  0.3841  0.6210  0.1508
  107CHL1  H11A14139   3.253   0.328  15.583  0.3087  0.2964 -0.4974
  107CHL1  H11B14140   3.093   0.340  15.672 -2.8881 -0.5431 -2.5892
  107CHL1    C914141   3.214   0.169  15.731  0.6776  0.5964  0.2550
  107CHL1    H914142   3.120   0.144  15.785  1.3453 -1.5076  0.5247
  107CHL1   C1014143   3.317   0.215  15.839 -0.1859 -0.8581  0.3714
  107CHL1   C1914144   3.445   0.277  15.762  0.1875  0.1061  0.0377
  107CHL1  H19A14145   3.516   0.325  15.833  0.4357  1.0749 -0.8368
  107CHL1  H19B14146   3.493   0.186  15.720 -1.1992 -1.4079  1.5609
  107CHL1  H19C14147   3.418   0.348  15.681 -0.0908 -1.5033 -1.3553
  107CHL1    C114148   3.243   0.314  15.935 -0.2156  0.1684 -0.3438
  107CHL1   H1A14149   3.214   0.398  15.868 -2.0973 -1.4296 -1.6784
  107CHL1   H1B14150   3.146   0.264  15.956 -0.9770  1.4457 -0.6859
  107CHL1    C214151   3.313   0.357  16.064  0.8740  0.1445  1.1522
  107CHL1   H2A14152   3.246   0.422  16.125 -1.7555  0.3340 -1.6897
  107CHL1   H2B14153   3.405   0.411  16.034  0.1617  0.1256 -1.2387
  107CHL1   C2014154   3.009   0.070  15.195 -0.5146 -0.0393  0.1353
  107CHL1   H2014155   3.098   0.044  15.133 -2.1298  1.4283 -3.0499
  107CHL1   C2114156   2.988   0.223  15.189 -0.1227 -0.7239 -0.2192
  107CHL1  H21A14157   2.959   0.268  15.091 -1.8472  0.8538  0.9582
  107CHL1  H21B14158   3.085   0.270  15.214  0.0191 -1.3051  0.3640
  107CHL1  H21C14159   2.924   0.253  15.274  0.6267  0.0120  0.0891
  107CHL1   C2214160   2.887  -0.004  15.131  0.3434 -0.2047  0.2364
  107CHL1  H22A14161   2.913  -0.112  15.132  0.5989 -0.2530 -2.6770
  107CHL1  H22B14162   2.790   0.010  15.183 -1.0472  0.8015 -2.4567
  107CHL1   C2314163   2.856   0.019  14.982  0.4481 -0.4549 -0.0969
  107CHL1  H23A14164   2.783  -0.061  14.959 -0.3606  0.4380 -0.7035
  107CHL1  H23B14165   2.806   0.117  14.967  0.9970  0.1099  1.5887
  107CHL1   C2414166   2.972   0.006  14.880  0.1325 -0.7453 -0.2804
  107CHL1  H24A14167   3.040   0.092  14.894 -0.7698 -0.0152 -0.3191
  107CHL1  H24B14168   3.028  -0.086  14.906  1.1533  0.1648  0.8337
  107CHL1   C2514169   2.930  -0.009  14.723  0.3771  0.1680  0.4232
  107CHL1   H2514170   2.851   0.068  14.706  1.6357  1.7948  1.5331
  107CHL1   C2614171   3.039   0.032  14.621  0.0087  0.2881 -0.8432
  107CHL1  H26A14172   3.122  -0.041  14.624  0.6011  0.9561 -0.7918
  107CHL1  H26B14173   2.988   0.047  14.523 -0.3739  3.3670 -0.2676
  107CHL1  H26C14174   3.086   0.128  14.649  0.4536 -0.3059  0.5270
  107CHL1   C2714175   2.877  -0.153  14.688  0.0766  0.4144 -0.2794
  107CHL1  H27A14176   2.859  -0.146  14.578 -0.7862  1.3334 -0.0912
  107CHL1  H27B14177   2.954  -0.232  14.703 -3.5340 -3.3743  0.2374
  107CHL1  H27C14178   2.782  -0.188  14.734  0.2884  2.7981  2.2428
  108CHL1    C314179   5.229   3.782  15.935  0.6843  0.2409 -0.0528
  108CHL1    H314180   5.293   3.872  15.943  1.0691 -0.0872  0.7443
  108CHL1    O314181   5.124   3.788  16.027 -0.2013  0.3243  0.6160
  108CHL1   H3'14182   5.095   3.879  16.030 -1.1225  0.0598  0.1162
  108CHL1    C414183   5.164   3.772  15.799  0.2567  0.3556 -0.0292
  108CHL1   H4A14184   5.081   3.698  15.794  1.8701 -1.4723 -1.2878
  108CHL1   H4B14185   5.121   3.870  15.770 -1.1530 -0.7721 -2.0378
  108CHL1    C514186   5.273   3.750  15.693 -0.2069  0.0396  0.1502
  108CHL1    C614187   5.285   3.841  15.597  0.2051  0.6770 -0.1705
  108CHL1    H614188   5.213   3.924  15.586 -1.4810 -0.8974 -1.6810
  108CHL1    C714189   5.392   3.828  15.488 -0.1289 -0.1779  0.5200
  108CHL1   H7A14190   5.337   3.834  15.392 -0.6591 -2.0366  0.6692
  108CHL1   H7B14191   5.461   3.914  15.500 -2.3336  2.0613 -1.5791
  108CHL1    C814192   5.466   3.693  15.485  0.9371 -0.5851  0.4154
  108CHL1    H814193   5.391   3.622  15.443 -1.1047  1.2088  0.8310
  108CHL1   C1414194   5.588   3.713  15.405 -0.1988 -0.0113 -0.0008
  108CHL1   H1414195   5.654   3.782  15.461 -1.1143  0.1989  0.8579
  108CHL1   C1514196   5.575   3.771  15.260  0.2418 -0.5288 -0.1953
  108CHL1  H15A14197   5.479   3.736  15.217 -0.7717  0.4911  1.1268
  108CHL1  H15B14198   5.581   3.882  15.261  1.7025 -0.5880 -0.4918
  108CHL1   C1614199   5.700   3.717  15.187 -0.0505 -0.0582 -0.4810
  108CHL1  H16A14200   5.677   3.638  15.113  0.2519 -0.4911 -0.1225
  108CHL1  H16B14201   5.759   3.803  15.149  0.3818  0.1493  0.6149
  108CHL1   C1714202   5.782   3.643  15.296 -0.5238 -0.1167 -0.4282
  108CHL1   H1714203   5.842   3.718  15.351  0.4153  0.5120 -2.2310
  108CHL1   C1314204   5.674   3.594  15.395 -0.1111  0.4193  0.5036
  108CHL1   C1814205   5.595   3.478  15.322  0.0380 -0.0344  0.3606
  108CHL1  H18A14206   5.654   3.384  15.316 -1.5943 -1.1893  1.4477
  108CHL1  H18B14207   5.506   3.448  15.381 -0.6407  1.7644  0.3182
  108CHL1  H18C14208   5.545   3.498  15.225  0.0809  0.9206  0.5201
  108CHL1   C1214209   5.718   3.548  15.536  0.0175  0.0497  0.2670
  108CHL1  H12A14210   5.766   3.448  15.532 -0.6816 -0.2698 -3.0351
  108CHL1  H12B14211   5.787   3.623  15.581 -1.6387  1.2129  0.9632
  108CHL1   C1114212   5.599   3.531  15.630  0.4742  0.6455 -0.0058
  108CHL1  H11A14213   5.549   3.442  15.585  0.9430  1.2034 -1.7035
  108CHL1  H11B14214   5.638   3.515  15.733 -0.0223  1.3424  0.2953
  108CHL1    C914215   5.500   3.652  15.625 -0.4199  0.4667  0.5710
  108CHL1    H914216   5.554   3.738  15.671 -0.5706  0.1372  1.3903
  108CHL1   C1014217   5.376   3.635  15.716 -0.2654 -0.0154 -0.0087
  108CHL1   C1914218   5.311   3.496  15.695  0.2052 -0.1213  0.0140
  108CHL1  H19A14219   5.383   3.414  15.715 -0.2472 -0.4422  0.3303
  108CHL1  H19B14220   5.226   3.478  15.764  1.9935  0.9769  2.6529
  108CHL1  H19C14221   5.279   3.495  15.588  2.2797  1.1396 -0.6858
  108CHL1    C114222   5.422   3.643  15.862  0.1800  0.2489  0.7414
  108CHL1   H1A14223   5.491   3.556  15.873  2.4657  1.8363 -0.1965
  108CHL1   H1B14224   5.488   3.731  15.882  0.3880  0.3884 -0.5232
  108CHL1    C214225   5.314   3.660  15.970  0.1857  0.1132  0.3069
  108CHL1   H2A14226   5.368   3.678  16.066 -0.5288 -2.0170  1.1700
  108CHL1   H2B14227   5.260   3.563  15.981  2.5786 -1.2864  0.3773
  108CHL1   C2014228   5.883   3.544  15.233 -0.4157  0.0366  0.0217
  108CHL1   H2014229   5.830   3.457  15.188 -1.0852  0.9494 -1.0103
  108CHL1   C2114230   5.974   3.494  15.349  0.4647  0.2174  0.8084
  108CHL1  H21A14231   6.058   3.431  15.312 -0.3035 -0.3477 -0.0372
  108CHL1  H21B14232   5.909   3.432  15.415 -0.4606  2.7836  2.4352
  108CHL1  H21C14233   6.025   3.567  15.415  1.4449  0.6237 -0.3622
  108CHL1   C2214234   5.969   3.596  15.114 -0.3620 -0.2193 -0.1513
  108CHL1  H22A14235   6.036   3.516  15.075 -0.9088 -0.1396 -1.2790
  108CHL1  H22B14236   5.900   3.638  15.038  0.2598  0.1884 -0.4945
  108CHL1   C2314237   6.065   3.712  15.155 -0.0909 -0.2547  0.3613
  108CHL1  H23A14238   6.004   3.799  15.186  0.4090 -0.9261  3.5662
  108CHL1  H23B14239   6.131   3.678  15.237  1.6437 -0.5893 -1.1108
  108CHL1   C2414240   6.145   3.757  15.035  0.1189 -0.6398  0.7109
  108CHL1  H24A14241   6.203   3.674  14.989  0.8921  1.2916 -2.0771
  108CHL1  H24B14242   6.074   3.799  14.961 -0.6803  2.2345  2.9049
  108CHL1   C2514243   6.258   3.863  15.072 -0.8392 -0.6431 -0.1396
  108CHL1   H2514244   6.209   3.934  15.143 -0.1583 -3.2939  3.2062
  108CHL1   C2614245   6.371   3.798  15.153  0.1271 -0.2297 -0.3401
  108CHL1  H26A14246   6.432   3.725  15.096  1.9127 -0.0576  1.2496
  108CHL1  H26B14247   6.436   3.878  15.194 -0.5507 -0.9101  2.2798
  108CHL1  H26C14248   6.333   3.743  15.242  2.1861 -1.0843  0.0728
  108CHL1   C2714249   6.316   3.936  14.948  0.1369 -0.1034 -0.8087
  108CHL1  H27A14250   6.383   4.022  14.970 -0.3937  0.8628 -2.7248
  108CHL1  H27B14251   6.378   3.860  14.896  2.6239  0.7291  0.7797
  108CHL1  H27C14252   6.222   3.967  14.897  0.8945  0.6548 -1.7746
  109CHL1    C314253   2.953   7.149  15.831 -0.6782  0.2975 -0.1610
  109CHL1    H314254   2.893   7.216  15.897  0.0782  1.6477 -0.8039
  109CHL1    O314255   3.045   7.086  15.919 -1.0520 -0.6505  0.2254
  109CHL1   H3'14256   3.072   7.009  15.868 -1.8338  0.3274 -1.7987
  109CHL1    C414257   2.860   7.034  15.785 -0.2685 -0.0800  0.5309
  109CHL1   H4A14258   2.915   6.941  15.757 -2.0407 -1.2777  0.8715
  109CHL1   H4B14259   2.793   6.999  15.866 -2.3095  1.8583 -0.2377
  109CHL1    C514260   2.777   7.065  15.665 -0.2579  0.4971  0.0156
  109CHL1    C614261   2.648   7.053  15.670 -0.0684  0.1612 -0.3088
  109CHL1    H614262   2.604   7.000  15.755  1.6791  1.1407  1.2824
  109CHL1    C714263   2.558   7.083  15.557 -0.0775 -0.4224 -0.2752
  109CHL1   H7A14264   2.480   7.005  15.548 -0.7556  0.2880 -0.6621
  109CHL1   H7B14265   2.507   7.177  15.586 -0.0805  0.0216 -1.6368
  109CHL1    C814266   2.623   7.091  15.415  0.7291  0.0076  0.3478
  109CHL1    H814267   2.640   6.989  15.374 -3.3979 -0.9458  0.6111
  109CHL1   C1414268   2.533   7.165  15.320 -0.2622  0.3008  0.3699
  109CHL1   H1414269   2.537   7.269  15.357  3.7402  0.2650  0.5178
  109CHL1   C1514270   2.396   7.106  15.302 -0.2597 -1.1110 -0.7890
  109CHL1  H15A14271   2.397   6.995  15.311  0.0316 -1.1421 -1.1822
  109CHL1  H15B14272   2.326   7.136  15.382 -1.0624 -0.1645 -1.8231
  109CHL1   C1614273   2.362   7.158  15.167 -0.4071  0.3288  0.1451
  109CHL1  H16A14274   2.344   7.071  15.101 -2.5065  1.5918 -1.0573
  109CHL1  H16B14275   2.268   7.217  15.166 -0.5388  0.2858 -3.3931
  109CHL1   C1714276   2.483   7.241  15.113  0.3059 -0.0486 -0.0154
  109CHL1   H1714277   2.468   7.345  15.150  2.0747 -0.4381  2.0446
  109CHL1   C1314278   2.599   7.183  15.184  0.2345  0.4915 -0.9545
  109CHL1   C1814279   2.633   7.042  15.117 -0.0239 -0.6606  0.0666
  109CHL1  H18A14280   2.704   6.980  15.176  0.5158 -0.2948 -0.1920
  109CHL1  H18B14281   2.543   6.977  15.118  0.6087 -1.5754  1.7691
  109CHL1  H18C14282   2.677   7.032  15.015 -0.3721 -2.4637  0.0607
  109CHL1   C1214283   2.731   7.268  15.194 -0.3957 -0.4415  0.1238
  109CHL1  H12A14284   2.771   7.291  15.093 -0.4442 -2.8166 -0.4892
  109CHL1  H12B14285   2.707   7.365  15.244  2.3315  0.4561 -0.1363
  109CHL1   C1114286   2.823   7.208  15.292 -0.2943 -0.0298 -0.4391
  109CHL1  H11A14287   2.862   7.117  15.241 -0.6696  1.0561 -2.7840
  109CHL1  H11B14288   2.906   7.277  15.317 -1.1480  0.8087  0.1711
  109CHL1    C914289   2.754   7.171  15.425 -0.6963  0.0568  0.7802
  109CHL1    H914290   2.721   7.272  15.460 -0.3489  0.6121 -0.4677
  109CHL1   C1014291   2.850   7.126  15.545 -0.2104  0.3721  0.0888
  109CHL1   C1914292   2.949   7.018  15.487  0.4319 -0.4144 -0.2402
  109CHL1  H19A14293   3.024   6.987  15.563  0.1540  1.3532  0.8303
  109CHL1  H19B14294   2.889   6.934  15.447  1.2141 -0.0046 -2.3773
  109CHL1  H19C14295   3.001   7.061  15.399 -0.2246  3.5726  1.0986
  109CHL1    C114296   2.934   7.245  15.593  0.6714 -0.7637 -0.0203
  109CHL1   H1A14297   2.994   7.293  15.513  0.8423  0.5038  0.8206
  109CHL1   H1B14298   2.863   7.326  15.620  3.3527  1.2110  1.7540
  109CHL1    C214299   3.021   7.227  15.720 -0.7737  0.3794  0.3617
  109CHL1   H2A14300   3.063   7.319  15.765 -2.3542 -0.0572  2.9335
  109CHL1   H2B14301   3.108   7.167  15.687  1.3193  2.8910  0.9865
  109CHL1   C2014302   2.477   7.256  14.966  0.1788 -0.8023 -0.0470
  109CHL1   H2014303   2.497   7.153  14.929  1.1603 -0.4237 -0.5958
  109CHL1   C2114304   2.584   7.349  14.919  0.0755 -0.9565  0.5053
  109CHL1  H21A14305   2.583   7.351  14.807 -1.2238 -2.2954  0.4420
  109CHL1  H21B14306   2.684   7.304  14.935  0.8424  0.3001 -0.5599
  109CHL1  H21C14307   2.574   7.452  14.957  0.0519 -0.9105  0.3750
  109CHL1   C2214308   2.335   7.289  14.909 -0.4024 -0.0776 -0.5366
  109CHL1  H22A14309   2.266   7.204  14.928  0.5629 -1.7345 -3.7240
  109CHL1  H22B14310   2.295   7.380  14.958  1.2149  0.8447 -0.8424
  109CHL1   C2314311   2.311   7.297  14.761  0.4002  0.1498  0.5509
  109CHL1  H23A14312   2.389   7.363  14.716  0.3165 -1.8828 -2.9975
  109CHL1  H23B14313   2.323   7.194  14.722 -2.6962  0.2106 -0.8758
  109CHL1   C2414314   2.170   7.344  14.716 -0.3265  0.0495 -0.0920
  109CHL1  H24A14315   2.089   7.278  14.754 -0.6088 -0.6275 -1.8033
  109CHL1  H24B14316   2.158   7.449  14.751  1.7541 -0.0040  0.9554
  109CHL1   C2514317   2.143   7.345  14.559 -0.3696  0.3956  0.2089
  109CHL1   H2514318   2.224   7.405  14.514 -0.1528  0.7396  1.0541
  109CHL1   C2614319   2.147   7.198  14.504 -0.1441  0.2716  0.1125
  109CHL1  H26A14320   2.248   7.155  14.524 -0.0272  0.7179  0.4991
  109CHL1  H26B14321   2.072   7.140  14.561  0.5141 -1.1836 -0.4526
  109CHL1  H26C14322   2.109   7.192  14.400 -1.7993  2.8162  0.4748
  109CHL1   C2714323   2.014   7.407  14.513 -0.6238 -0.0201 -0.7763
  109CHL1  H27A14324   1.926   7.358  14.560  0.4827 -2.4273 -1.1207
  109CHL1  H27B14325   2.014   7.517  14.528 -0.6948  0.0266 -1.1144
  109CHL1  H27C14326   2.000   7.403  14.403 -1.6929  1.2174 -0.7160
  110CHL1    C314327   0.124   7.184  15.519 -0.4691  0.0479 -0.2864
  110CHL1    H314328   0.087   7.080  15.516  2.0645 -0.9975  1.4876
  110CHL1    O314329   0.154   7.226  15.659  0.1436 -0.5451  0.3405
  110CHL1   H3'14330   0.249   7.210  15.665  0.2556  0.2504  0.7762
  110CHL1    C414331   0.265   7.183  15.452  0.6253  0.6501  0.2359
  110CHL1   H4A14332   0.311   7.282  15.472 -0.2256  0.7371  1.9143
  110CHL1   H4B14333   0.317   7.101  15.507 -1.9840 -1.1924  0.1314
  110CHL1    C514334   0.258   7.157  15.301 -0.0325  1.0621  0.3523
  110CHL1    C614335   0.316   7.044  15.252 -0.3279  0.0679  0.0873
  110CHL1    H614336   0.375   6.984  15.322 -1.4759 -2.6494 -1.1266
  110CHL1    C714337   0.325   7.014  15.104  0.7250 -0.1929 -0.1653
  110CHL1   H7A14338   0.427   6.981  15.076  0.0051 -0.4568 -2.6959
  110CHL1   H7B14339   0.263   6.926  15.078 -1.1939  0.8135  0.7554
  110CHL1    C814340   0.273   7.125  15.015 -0.1749 -0.2196  0.0299
  110CHL1    H814341   0.359   7.194  15.002 -1.1155  0.8073 -0.9531
  110CHL1   C1414342   0.242   7.081  14.875  0.4206  0.4399  0.5335
  110CHL1   H1414343   0.151   7.017  14.873  0.1343  0.8544 -0.0815
  110CHL1   C1514344   0.352   6.994  14.799  0.3430 -0.5733  0.7496
  110CHL1  H15A14345   0.455   7.035  14.815  0.8193 -1.6080  0.4344
  110CHL1  H15B14346   0.355   6.885  14.816 -0.1601 -0.5969  0.6756
  110CHL1   C1614347   0.313   7.017  14.650 -0.4862 -0.5116  0.1167
  110CHL1  H16A14348   0.394   7.076  14.601 -0.1379  0.0106  1.2617
  110CHL1  H16B14349   0.303   6.922  14.594 -0.2970  0.2397 -1.2112
  110CHL1   C1714350   0.188   7.108  14.645  0.2656  0.0362  0.2829
  110CHL1   H1714351   0.099   7.043  14.655 -0.4966  0.6581 -1.9036
  110CHL1   C1314352   0.196   7.189  14.783  0.0647  0.1686 -0.0642
  110CHL1   C1814353   0.313   7.286  14.760 -0.0017 -0.7774 -0.1824
  110CHL1  H18A14354   0.343   7.338  14.853  1.2292 -2.1676  0.2469
  110CHL1  H18B14355   0.410   7.253  14.717  0.5838  1.5498 -0.7879
  110CHL1  H18C14356   0.275   7.371  14.700  1.0765 -0.3743 -0.3052
  110CHL1   C1214357   0.058   7.234  14.839 -0.1996  0.0036  0.4580
  110CHL1  H12A14358   0.021   7.314  14.772 -0.0546 -0.2466  0.0797
  110CHL1  H12B14359  -0.016   7.152  14.835 -0.7201  0.3858  1.7416
  110CHL1   C1114360   0.073   7.286  14.978  0.4076  0.5609 -0.0451
  110CHL1  H11A14361   0.126   7.383  14.968  2.1211 -0.2767  0.4165
  110CHL1  H11B14362  -0.031   7.302  15.014  0.0621  1.4481 -1.3604
  110CHL1    C914363   0.148   7.187  15.076 -0.2811 -0.8389  0.0031
  110CHL1    H914364   0.082   7.098  15.075  0.9621 -1.8277 -2.7035
  110CHL1   C1014365   0.171   7.247  15.211  0.2075 -0.4224 -0.5773
  110CHL1   C1914366   0.231   7.384  15.194 -0.0848  0.3717 -0.1912
  110CHL1  H19A14367   0.153   7.454  15.156 -0.9618 -1.1445 -1.3098
  110CHL1  H19B14368   0.278   7.423  15.287 -0.3957  0.8374 -0.2235
  110CHL1  H19C14369   0.313   7.373  15.120 -0.6303 -0.1933 -0.7242
  110CHL1    C114370   0.032   7.256  15.288 -0.3517  0.7328 -0.0319
  110CHL1   H1A14371  -0.034   7.330  15.239 -2.5563 -1.3882 -0.4863
  110CHL1   H1B14372  -0.019   7.158  15.275 -0.6894  1.0623 -1.3189
  110CHL1    C214373   0.046   7.287  15.442  0.6339  0.3276 -0.3321
  110CHL1   H2A14374  -0.058   7.293  15.479  0.9412 -1.5368  0.9577
  110CHL1   H2B14375   0.086   7.391  15.450 -1.5803  1.1887  0.2484
  110CHL1   C2014376   0.160   7.192  14.522 -0.3000  0.0969 -0.3684
  110CHL1   H2014377   0.134   7.293  14.561  0.9878  0.5055 -0.5331
  110CHL1   C2114378   0.030   7.142  14.453 -0.7997 -0.2047 -0.0441
  110CHL1  H21A14379  -0.019   7.214  14.384  1.9957  0.4658 -1.5051
  110CHL1  H21B14380  -0.044   7.111  14.529  0.8632 -3.0993  0.5769
  110CHL1  H21C14381   0.055   7.049  14.396 -0.5982 -0.0208 -0.2575
  110CHL1   C2214382   0.279   7.212  14.428  0.3154 -0.1903 -0.0645
  110CHL1  H22A14383   0.362   7.254  14.489 -0.4800  0.4328  0.6054
  110CHL1  H22B14384   0.315   7.109  14.406  0.0532 -0.2700 -0.1217
  110CHL1   C2314385   0.269   7.286  14.304 -0.4814  0.4687 -0.2696
  110CHL1  H23A14386   0.194   7.255  14.228  0.0107 -1.8156  0.1079
  110CHL1  H23B14387   0.248   7.392  14.331  1.9000  1.2858 -1.3248
  110CHL1   C2414388   0.404   7.293  14.228  0.8178 -0.4417 -0.3696
  110CHL1  H24A14389   0.473   7.339  14.302 -0.2745 -0.5240  0.7386
  110CHL1  H24B14390   0.444   7.198  14.186  0.7644 -0.3843 -0.5506
  110CHL1   C2514391   0.399   7.373  14.100  0.2828 -0.7076 -0.0599
  110CHL1   H2514392   0.507   7.386  14.076  0.4072 -0.3044  0.6718
  110CHL1   C2614393   0.324   7.302  13.986  0.7326 -0.1401  0.2804
  110CHL1  H26A14394   0.358   7.198  13.964  0.2277  0.0751 -1.7625
  110CHL1  H26B14395   0.218   7.284  14.011  0.8663 -1.1496  0.2013
  110CHL1  H26C14396   0.317   7.361  13.892  2.5463 -0.1192  0.1075
  110CHL1   C2714397   0.333   7.509  14.133 -0.9401 -0.7581  0.0173
  110CHL1  H27A14398   0.341   7.581  14.049  2.8152 -1.1378 -0.1606
  110CHL1  H27B14399   0.224   7.496  14.150 -0.5532 -1.9294  1.8967
  110CHL1  H27C14400   0.390   7.552  14.218  1.2996 -0.2936 -1.5888
  111CHL1    C314401   2.026   2.388  15.802 -0.6335  0.0743  0.3210
  111CHL1    H314402   1.928   2.439  15.789  0.0326  1.4132  0.3629
  111CHL1    O314403   2.048   2.362  15.938  0.3082  0.0273  0.1841
  111CHL1   H3'14404   2.093   2.277  15.934 -1.9766 -1.2620 -0.5557
  111CHL1    C414405   2.031   2.259  15.721  0.1952 -0.4626  0.1475
  111CHL1   H4A14406   2.129   2.206  15.727  0.9858  0.8492 -0.6777
  111CHL1   H4B14407   1.970   2.179  15.769  4.0912 -3.5752  0.4872
  111CHL1    C514408   2.014   2.291  15.572 -0.0729 -0.0006  0.7245
  111CHL1    C614409   1.911   2.244  15.500  0.1105  0.8752  0.1219
  111CHL1    H614410   1.836   2.177  15.545  0.4401 -0.9352 -1.8411
  111CHL1    C714411   1.895   2.256  15.354  0.0317 -0.1960 -0.0316
  111CHL1   H7A14412   1.868   2.156  15.312  2.0625 -1.4258  1.3711
  111CHL1   H7B14413   1.812   2.329  15.349  0.1099 -0.0290  1.0556
  111CHL1    C814414   2.019   2.310  15.282  0.2645  0.3491 -0.3015
  111CHL1    H814415   2.091   2.226  15.277 -1.7761 -1.5439  0.4228
  111CHL1   C1414416   1.981   2.363  15.145  0.5568 -0.6039  0.3810
  111CHL1   H1414417   1.915   2.449  15.169 -0.6928 -1.4353  0.0546
  111CHL1   C1514418   1.871   2.290  15.053  0.1254 -0.3481 -1.1243
  111CHL1  H15A14419   1.864   2.182  15.079  1.0732 -0.3506 -0.8476
  111CHL1  H15B14420   1.770   2.328  15.078  0.1237 -1.2940  0.4303
  111CHL1   C1614421   1.914   2.322  14.914  0.4173 -0.2178 -0.0182
  111CHL1  H16A14422   1.961   2.231  14.872  0.5684 -0.8985  1.5758
  111CHL1  H16B14423   1.824   2.332  14.849  0.0331 -1.5465  0.2724
  111CHL1   C1714424   2.007   2.442  14.932 -0.1844  0.1388 -0.1504
  111CHL1   H1714425   1.939   2.526  14.954 -1.8059 -1.0575 -0.3800
  111CHL1   C1314426   2.091   2.412  15.059 -0.5083 -0.4750  0.2271
  111CHL1   C1814427   2.199   2.302  15.027  0.9077  0.1703  0.0011
  111CHL1  H18A14428   2.265   2.348  14.950  0.0111  0.3967 -0.6516
  111CHL1  H18B14429   2.258   2.276  15.117  0.2200 -2.3361 -0.1963
  111CHL1  H18C14430   2.148   2.215  14.982 -0.0577  1.6571 -1.9247
  111CHL1   C1214431   2.154   2.533  15.135  0.7068  0.4257  0.4328
  111CHL1  H12A14432   2.241   2.580  15.085  0.5982 -1.1940 -1.3722
  111CHL1  H12B14433   2.088   2.623  15.135 -0.7676 -0.5506 -1.9295
  111CHL1   C1114434   2.189   2.492  15.277  0.3046  0.2970 -0.4586
  111CHL1  H11A14435   2.272   2.418  15.270 -0.6846 -0.9643  0.5691
  111CHL1  H11B14436   2.234   2.574  15.336 -0.1027 -0.0035  0.2824
  111CHL1    C914437   2.079   2.425  15.358 -0.7422 -0.4324 -0.4075
  111CHL1    H914438   1.995   2.497  15.364  0.1893  0.6272  0.4919
  111CHL1   C1014439   2.122   2.385  15.504  0.1754  0.5590 -0.5926
  111CHL1   C1914440   2.268   2.308  15.501  0.3030  0.4022  0.2470
  111CHL1  H19A14441   2.268   2.228  15.424 -1.3985  0.2251  0.3781
  111CHL1  H19B14442   2.343   2.385  15.472  0.4294 -0.4816 -2.0131
  111CHL1  H19C14443   2.294   2.265  15.599 -0.9896 -0.1517  0.3711
  111CHL1    C114444   2.127   2.509  15.590 -0.1586 -0.1882  0.1752
  111CHL1   H1A14445   2.211   2.577  15.566 -1.0408  0.5824 -0.8374
  111CHL1   H1B14446   2.036   2.574  15.585 -0.5955 -0.7118  1.0907
  111CHL1    C214447   2.140   2.473  15.741  0.1516 -0.2076 -0.0413
  111CHL1   H2A14448   2.151   2.569  15.796  0.8139 -0.0904 -0.3627
  111CHL1   H2B14449   2.237   2.423  15.762  0.3039  0.4177  0.8206
  111CHL1   C2014450   2.081   2.479  14.801 -0.4590 -0.9611 -0.0692
  111CHL1   H2014451   2.142   2.392  14.769  0.2636  0.3255 -2.3758
  111CHL1   C2114452   2.186   2.591  14.831  0.1687  0.2122 -0.1786
  111CHL1  H21A14453   2.272   2.551  14.888 -0.2813  1.3443  1.3435
  111CHL1  H21B14454   2.160   2.666  14.908  2.6705  0.6206  0.3451
  111CHL1  H21C14455   2.223   2.648  14.743 -0.9286 -0.0176 -0.8140
  111CHL1   C2214456   1.988   2.527  14.695  0.3673 -0.6790  0.3233
  111CHL1  H22A14457   1.895   2.467  14.689 -0.9884  1.3953 -4.0757
  111CHL1  H22B14458   1.954   2.631  14.716 -2.4919 -1.3697 -0.4188
  111CHL1   C2314459   2.040   2.525  14.551 -0.8016  0.0394 -0.6075
  111CHL1  H23A14460   2.109   2.611  14.534  0.7285 -1.0546 -0.1512
  111CHL1  H23B14461   2.106   2.440  14.521  0.0013  1.3436 -2.8043
  111CHL1   C2414462   1.929   2.543  14.449 -0.1784  0.2884  0.1453
  111CHL1  H24A14463   1.863   2.454  14.437 -0.4194  0.6267 -1.1917
  111CHL1  H24B14464   1.857   2.615  14.493 -1.0372 -1.0229  0.9759
  111CHL1   C2514465   1.976   2.616  14.319  0.1984 -0.2111  0.0188
  111CHL1   H2514466   2.018   2.716  14.344 -0.6822  0.2011 -0.1144
  111CHL1   C2614467   2.093   2.538  14.250  0.1348  0.3517  0.2982
  111CHL1  H26A14468   2.062   2.433  14.230 -1.0170  0.5925  0.7698
  111CHL1  H26B14469   2.105   2.582  14.149  2.9487  1.5891  1.0650
  111CHL1  H26C14470   2.191   2.542  14.303  0.0318  1.5986  0.4237
  111CHL1   C2714471   1.869   2.652  14.224  0.7365 -0.1916  0.6719
  111CHL1  H27A14472   1.789   2.710  14.274  1.3357 -0.0849  1.5345
  111CHL1  H27B14473   1.905   2.696  14.129 -0.9164  1.5450  0.8123
  111CHL1  H27C14474   1.817   2.558  14.196  1.5922 -1.1614  2.1334
  112CHL1    C314475   3.546   3.302  15.858  0.6355 -0.1078 -1.2016
  112CHL1    H314476   3.642   3.355  15.842  0.6439  0.0411 -0.6608
  112CHL1    O314477   3.527   3.284  16.001 -0.4588  0.2767  0.4249
  112CHL1   H3'14478   3.447   3.235  16.021  1.0245 -1.1224  3.8238
  112CHL1    C414479   3.428   3.387  15.802 -0.1365  0.1046  0.1632
  112CHL1   H4A14480   3.327   3.344  15.820 -0.4549  0.5876 -0.4151
  112CHL1   H4B14481   3.422   3.486  15.851 -1.9444  0.9666 -1.6435
  112CHL1    C514482   3.443   3.397  15.649  0.4335 -0.4522  0.3382
  112CHL1    C614483   3.438   3.522  15.593 -0.5615  0.9598 -0.1405
  112CHL1    H614484   3.425   3.606  15.663  0.9342  1.0424  0.0575
  112CHL1    C714485   3.450   3.543  15.442  0.0887 -0.2727  0.1725
  112CHL1   H7A14486   3.378   3.616  15.399 -1.0894  0.2043  2.7672
  112CHL1   H7B14487   3.547   3.595  15.433 -0.4233  1.0842  1.8129
  112CHL1    C814488   3.443   3.417  15.352 -0.1928 -0.0741 -0.0647
  112CHL1    H814489   3.337   3.388  15.338 -0.1157 -0.0643 -0.6849
  112CHL1   C1414490   3.499   3.445  15.216  0.1296 -0.2881 -0.1829
  112CHL1   H1414491   3.608   3.468  15.223  0.2122  0.0415 -1.9647
  112CHL1   C1514492   3.432   3.568  15.147  0.7664 -0.0532 -0.5007
  112CHL1  H15A14493   3.323   3.547  15.134  0.7791 -1.9651  1.8985
  112CHL1  H15B14494   3.448   3.672  15.181 -1.3683  0.4108 -0.7939
  112CHL1   C1614495   3.487   3.552  15.004  0.1256  0.5608 -0.2457
  112CHL1  H16A14496   3.409   3.582  14.931  2.1759  1.5606 -2.1612
  112CHL1  H16B14497   3.576   3.619  14.995  0.0321  0.7660  0.3028
  112CHL1   C1714498   3.552   3.408  14.993  0.3010 -0.0668  0.0869
  112CHL1   H1714499   3.662   3.413  15.013  0.7547 -0.7952 -1.9951
  112CHL1   C1314500   3.496   3.333  15.118 -0.6146 -0.4190 -0.0048
  112CHL1   C1814501   3.353   3.282  15.086  0.2265 -0.3074  0.6881
  112CHL1  H18A14502   3.291   3.364  15.043 -0.4561 -0.2291  1.7847
  112CHL1  H18B14503   3.359   3.202  15.009  4.2363  1.6613 -1.3063
  112CHL1  H18C14504   3.298   3.238  15.172 -0.1970  0.5778  0.8819
  112CHL1   C1214505   3.581   3.220  15.178  0.1183  0.0520  0.1929
  112CHL1  H12A14506   3.581   3.124  15.122 -1.4539  1.4146 -2.3070
  112CHL1  H12B14507   3.686   3.256  15.185  0.2360 -0.3080  0.2760
  112CHL1   C1114508   3.524   3.185  15.320  0.1665  0.4271  0.2942
  112CHL1  H11A14509   3.422   3.142  15.313 -0.3325  1.6832 -0.2969
  112CHL1  H11B14510   3.604   3.126  15.370  0.3684  1.9260  1.8151
  112CHL1    C914511   3.519   3.309  15.416 -0.3130  0.7353 -0.0582
  112CHL1    H914512   3.625   3.344  15.421 -0.7180  1.9284  0.6447
  112CHL1   C1014513   3.463   3.275  15.561  0.0758  0.2759 -0.6104
  112CHL1   C1914514   3.323   3.212  15.549 -0.2999 -0.2490 -0.2775
  112CHL1  H19A14515   3.325   3.112  15.502 -0.8246 -1.7441  2.6312
  112CHL1  H19B14516   3.279   3.194  15.649 -2.2275  0.1113 -1.0307
  112CHL1  H19C14517   3.252   3.273  15.490  0.7223  0.3148 -0.9579
  112CHL1    C114518   3.564   3.185  15.628 -0.0942 -0.1630  0.0090
  112CHL1   H1A14519   3.579   3.080  15.593  1.8701 -0.9924  3.0068
  112CHL1   H1B14520   3.658   3.243  15.620  0.2687 -0.8984 -1.5982
  112CHL1    C214521   3.548   3.171  15.782 -0.1102  0.9004  0.9994
  112CHL1   H2A14522   3.630   3.104  15.814 -0.6757 -0.7434 -0.8485
  112CHL1   H2B14523   3.452   3.118  15.797 -0.7554  2.1406  1.3643
  112CHL1   C2014524   3.548   3.336  14.857  0.0807  0.5420 -0.3687
  112CHL1   H2014525   3.442   3.326  14.827  0.0596 -1.9591  0.3227
  112CHL1   C2114526   3.610   3.194  14.852  0.7165  0.5970 -0.6923
  112CHL1  H21A14527   3.718   3.192  14.878  0.6649 -1.4340 -0.4378
  112CHL1  H21B14528   3.588   3.145  14.755  0.0344 -1.9582  0.6486
  112CHL1  H21C14529   3.546   3.137  14.923 -1.0291  1.7611 -1.2659
  112CHL1   C2214530   3.609   3.429  14.757  0.1356  0.4648 -0.0542
  112CHL1  H22A14531   3.528   3.504  14.740 -1.5971 -0.9545  1.4905
  112CHL1  H22B14532   3.704   3.481  14.783 -0.1341  0.7637  0.3685
  112CHL1   C2314533   3.628   3.369  14.616  0.0122  0.3220 -0.5402
  112CHL1  H23A14534   3.684   3.444  14.555  0.5005  1.2284  0.9732
  112CHL1  H23B14535   3.684   3.276  14.639 -1.9872 -0.7877  0.0080
  112CHL1   C2414536   3.499   3.341  14.538 -0.1119  0.5929  0.0545
  112CHL1  H24A14537   3.424   3.300  14.610  1.9018 -0.5245  1.6214
  112CHL1  H24B14538   3.458   3.441  14.512  0.6920  1.3378  1.5183
  112CHL1   C2514539   3.504   3.250  14.418  0.2011 -0.0530  0.4433
  112CHL1   H2514540   3.401   3.269  14.380 -0.0881  2.4824  2.2972
  112CHL1   C2614541   3.609   3.291  14.317  0.0955 -0.6699  0.5410
  112CHL1  H26A14542   3.707   3.270  14.366  0.6328  2.8143  1.1901
  112CHL1  H26B14543   3.602   3.240  14.219 -0.2248 -2.6621  1.5281
  112CHL1  H26C14544   3.597   3.398  14.294 -2.1796 -0.9879  0.0494
  112CHL1   C2714545   3.514   3.097  14.447 -0.5665 -0.6317  0.1068
  112CHL1  H27A14546   3.454   3.073  14.538  1.0333  0.3195  1.4858
  112CHL1  H27B14547   3.487   3.042  14.354 -0.7945  1.0596 -0.8656
  112CHL1  H27C14548   3.615   3.058  14.471 -0.7532 -1.1771  0.0190
  113CHL1    C314549   7.418   6.260  15.875  0.6426 -0.3369  0.1307
  113CHL1    H314550   7.329   6.196  15.853  0.3234  0.0564  0.2731
  113CHL1    O314551   7.431   6.279  16.020  0.6625  0.0199  0.4158
  113CHL1   H3'14552   7.523   6.290  16.045  0.7615  0.8956 -0.2703
  113CHL1    C414553   7.537   6.189  15.803 -0.1659 -0.4144 -0.2189
  113CHL1   H4A14554   7.622   6.257  15.823 -0.1481 -0.9937  1.9891
  113CHL1   H4B14555   7.562   6.101  15.866  1.8241  0.1984 -0.1090
  113CHL1    C514556   7.511   6.179  15.652 -0.4891 -0.2939  0.2068
  113CHL1    C614557   7.510   6.062  15.590 -0.5086 -0.1033  0.4307
  113CHL1    H614558   7.532   5.970  15.647  0.2710  1.7075  3.2445
  113CHL1    C714559   7.482   6.044  15.442  0.3057 -0.2092  0.1096
  113CHL1   H7A14560   7.547   5.962  15.406 -1.3335 -1.9571  1.0015
  113CHL1   H7B14561   7.375   6.022  15.423  0.3486  0.5946 -1.2001
  113CHL1    C814562   7.511   6.175  15.363 -0.2281  0.4862 -0.3690
  113CHL1    H814563   7.620   6.196  15.361 -0.0401 -0.3933 -2.4464
  113CHL1   C1414564   7.457   6.167  15.219  0.1007  0.3772  0.2238
  113CHL1   H1414565   7.354   6.127  15.227  0.6589 -1.1168  0.2996
  113CHL1   C1514566   7.521   6.061  15.126 -0.4472 -0.5646  0.1631
  113CHL1  H15A14567   7.632   6.059  15.131 -0.3421 -0.1950 -1.3387
  113CHL1  H15B14568   7.488   5.956  15.138 -0.5366 -0.7956 -1.7094
  113CHL1   C1614569   7.477   6.106  14.987  0.2518  0.4423 -0.4975
  113CHL1  H16A14570   7.560   6.108  14.914 -0.7659  0.0037 -1.6995
  113CHL1  H16B14571   7.391   6.046  14.951 -1.0319  2.3869 -0.8003
  113CHL1   C1714572   7.412   6.249  15.002  0.2515 -0.2242 -0.3405
  113CHL1   H1714573   7.303   6.246  15.022  0.5557 -0.5220  1.3897
  113CHL1   C1314574   7.467   6.297  15.140  0.1656  0.7042  0.1003
  113CHL1   C1814575   7.611   6.344  15.123  0.0687  0.1066  0.2109
  113CHL1  H18A14576   7.664   6.264  15.066 -1.9195 -1.5192  0.5318
  113CHL1  H18B14577   7.622   6.445  15.079 -1.2657  0.8446  1.4775
  113CHL1  H18C14578   7.663   6.362  15.220 -0.8913 -2.3064  1.2547
  113CHL1   C1214579   7.376   6.401  15.213 -0.1464  0.2535 -0.1635
  113CHL1  H12A14580   7.367   6.501  15.165  0.9327  0.9943  1.1181
  113CHL1  H12B14581   7.272   6.363  15.224 -0.2578  1.0689  2.0094
  113CHL1   C1114582   7.424   6.428  15.357  0.3124  0.2245  0.1026
  113CHL1  H11A14583   7.519   6.484  15.345 -1.0645  2.5950 -0.6661
  113CHL1  H11B14584   7.341   6.492  15.394 -0.0692 -0.3554  0.2648
  113CHL1    C914585   7.430   6.294  15.434  0.7445  0.0488 -0.3275
  113CHL1    H914586   7.327   6.251  15.431  0.9145 -0.3485 -2.7834
  113CHL1   C1014587   7.474   6.315  15.583 -0.2165  0.1003 -0.2485
  113CHL1   C1914588   7.604   6.407  15.573 -0.4598  0.8733  0.5263
  113CHL1  H19A14589   7.573   6.506  15.534 -1.3572  0.0457 -0.9945
  113CHL1  H19B14590   7.650   6.415  15.674 -2.2146  0.2557  1.4220
  113CHL1  H19C14591   7.673   6.355  15.503 -0.8516  0.2364  0.6030
  113CHL1    C114592   7.361   6.394  15.662 -1.2001  0.2653 -0.3412
  113CHL1   H1A14593   7.346   6.500  15.632 -1.3117 -0.1995 -2.0451
  113CHL1   H1B14594   7.262   6.344  15.654 -0.9018 -0.1923 -1.4129
  113CHL1    C214595   7.397   6.395  15.815  0.6237  0.2876  0.4539
  113CHL1   H2A14596   7.318   6.453  15.868 -0.2422  0.3049 -0.8037
  113CHL1   H2B14597   7.477   6.469  15.839  0.0253  1.1350 -0.1061
  113CHL1   C2014598   7.425   6.340  14.874 -0.1751 -0.1220  0.0602
  113CHL1   H2014599   7.535   6.340  14.860  0.1751  0.6869  2.3935
  113CHL1   C2114600   7.383   6.494  14.892  1.0026 -0.0342  0.1671
  113CHL1  H21A14601   7.371   6.547  14.795 -0.8516  2.2210  1.5366
  113CHL1  H21B14602   7.460   6.539  14.958  1.0085 -1.9983  1.6097
  113CHL1  H21C14603   7.282   6.502  14.938 -1.2956 -1.3701 -4.0985
  113CHL1   C2214604   7.367   6.276  14.743  0.1744  0.3434 -0.8648
  113CHL1  H22A14605   7.358   6.165  14.747 -2.4866  0.5243  1.3553
  113CHL1  H22B14606   7.260   6.305  14.728 -0.4111 -1.7077 -1.0165
  113CHL1   C2314607   7.443   6.321  14.619  0.7867  0.5357 -0.4925
  113CHL1  H23A14608   7.453   6.432  14.628 -0.2283  0.4767  2.5405
  113CHL1  H23B14609   7.541   6.267  14.615  1.0041  0.9407 -0.7334
  113CHL1   C2414610   7.376   6.289  14.481  0.9194  0.0591  0.1736
  113CHL1  H24A14611   7.281   6.346  14.487  0.7749 -0.1874  0.1999
  113CHL1  H24B14612   7.437   6.322  14.394  1.7542 -3.1806 -0.6050
  113CHL1   C2514613   7.334   6.144  14.466  0.3533  0.6976  0.3327
  113CHL1   H2514614   7.262   6.119  14.547  0.1506  0.5985  0.1228
  113CHL1   C2614615   7.256   6.126  14.333 -0.1885 -0.2021 -0.1951
  113CHL1  H26A14616   7.216   6.023  14.328 -1.8192  0.4109 -0.2105
  113CHL1  H26B14617   7.174   6.200  14.324 -1.2076 -1.3812 -0.8266
  113CHL1  H26C14618   7.321   6.143  14.244  2.2060 -1.7449  1.1326
  113CHL1   C2714619   7.459   6.048  14.484  0.5618  0.5185 -0.1458
  113CHL1  H27A14620   7.539   6.087  14.416  0.8364 -1.6404 -1.1493
  113CHL1  H27B14621   7.495   6.053  14.589 -0.1949  1.4563  0.0819
  113CHL1  H27C14622   7.433   5.945  14.451  0.8563  0.2144  0.5425
  114CHL1    C314623   4.137   1.551  15.960 -0.2617  0.4385  0.0475
  114CHL1    H314624   4.164   1.451  16.000  4.0047  1.1145 -0.6165
  114CHL1    O314625   4.141   1.633  16.075 -0.0698 -0.6472 -0.0649
  114CHL1   H3'14626   4.057   1.679  16.079 -0.0387 -0.5008 -0.8599
  114CHL1    C414627   4.248   1.588  15.856  0.4453  0.3530 -0.2621
  114CHL1   H4A14628   4.222   1.691  15.826 -1.4499 -0.6718 -2.3858
  114CHL1   H4B14629   4.343   1.604  15.913 -0.5003  0.3154  1.3974
  114CHL1    C514630   4.246   1.499  15.732  0.3491 -0.4415 -0.5394
  114CHL1    C614631   4.356   1.426  15.695 -0.3226  0.0006  0.5336
  114CHL1    H614632   4.451   1.438  15.749  0.4784  0.5852 -0.9249
  114CHL1    C714633   4.358   1.333  15.576 -0.0125  0.3405 -0.4467
  114CHL1   H7A14634   4.445   1.360  15.513 -0.3495 -1.3919 -1.7468
  114CHL1   H7B14635   4.344   1.227  15.604 -1.4902  0.7594  0.5700
  114CHL1    C814636   4.235   1.366  15.481  0.1031 -0.1657  0.7883
  114CHL1    H814637   4.251   1.463  15.429  0.8772 -0.1987  0.9493
  114CHL1   C1414638   4.218   1.250  15.383 -0.2548  0.5243 -0.2697
  114CHL1   H1414639   4.189   1.160  15.441 -0.4317  0.4253 -0.5086
  114CHL1   C1514640   4.343   1.194  15.307  0.2933 -0.2661  0.7764
  114CHL1  H15A14641   4.396   1.280  15.261  1.4597 -0.7667  1.1298
  114CHL1  H15B14642   4.411   1.127  15.364 -1.3280 -1.7866  0.9913
  114CHL1   C1614643   4.288   1.111  15.198  0.3764  0.1872  0.7401
  114CHL1  H16A14644   4.317   1.152  15.099 -1.5758  2.4653  0.9979
  114CHL1  H16B14645   4.296   1.001  15.211 -0.0722  0.2522  1.5947
  114CHL1   C1714646   4.132   1.137  15.199 -0.9524  0.6506 -0.2466
  114CHL1   H1714647   4.089   1.055  15.261  2.4941 -1.4431 -0.3849
  114CHL1   C1314648   4.108   1.268  15.279  0.4723  0.8075 -0.4566
  114CHL1   C1814649   4.126   1.391  15.176 -0.3179  0.6039 -1.1628
  114CHL1  H18A14650   4.229   1.380  15.135  0.8315 -1.4707  1.9057
  114CHL1  H18B14651   4.042   1.389  15.103 -0.0279 -0.6970 -1.4844
  114CHL1  H18C14652   4.125   1.488  15.230  0.1118 -1.0109  2.0081
  114CHL1   C1214653   3.978   1.269  15.359 -0.1743 -0.5900  0.1717
  114CHL1  H12A14654   3.889   1.290  15.296  0.7249 -0.4010 -1.0805
  114CHL1  H12B14655   3.962   1.172  15.410 -3.7457  0.3693  1.1432
  114CHL1   C1114656   3.976   1.382  15.466  0.4028  0.4310 -0.8469
  114CHL1  H11A14657   3.954   1.482  15.422 -0.1638  0.5160 -0.3783
  114CHL1  H11B14658   3.886   1.366  15.528  0.4026  0.8578 -0.7324
  114CHL1    C914659   4.104   1.376  15.553  0.7672 -0.3014  0.7507
  114CHL1    H914660   4.100   1.278  15.606  0.9678  0.0149  1.3718
  114CHL1   C1014661   4.111   1.489  15.663 -0.7733  0.3490 -0.4132
  114CHL1   C1914662   4.086   1.627  15.592  0.1472 -0.0701 -0.0834
  114CHL1  H19A14663   3.984   1.643  15.551 -0.0146 -0.9333 -0.0437
  114CHL1  H19B14664   4.105   1.710  15.662  0.2898  0.8389 -1.1727
  114CHL1  H19C14665   4.156   1.639  15.506 -1.1572 -1.7957 -1.4748
  114CHL1    C114666   3.999   1.451  15.773 -0.0745 -0.2193 -0.5892
  114CHL1   H1A14667   3.898   1.456  15.725 -0.7745 -0.9741  0.7593
  114CHL1   H1B14668   4.007   1.342  15.790 -1.2856 -0.4351 -1.2515
  114CHL1    C214669   4.002   1.539  15.906  0.5536  0.5298  0.1939
  114CHL1   H2A14670   3.927   1.501  15.979  2.2280  1.4325  2.5027
  114CHL1   H2B14671   3.959   1.640  15.885 -3.1920 -0.5819  1.5927
  114CHL1   C2014672   4.062   1.114  15.057 -0.1305  0.0591 -0.1782
  114CHL1   H2014673   4.106   1.189  14.988  0.5055 -0.6294 -0.5285
  114CHL1   C2114674   3.909   1.142  15.064  0.0892 -0.1015  0.5693
  114CHL1  H21A14675   3.873   1.147  14.959 -0.6299 -0.2811  0.8025
  114CHL1  H21B14676   3.898   1.250  15.087 -2.1845 -0.0230 -0.6014
  114CHL1  H21C14677   3.853   1.072  15.129 -1.3199  0.1293 -0.3515
  114CHL1   C2214678   4.095   0.976  14.997  0.1011  0.1027 -0.5951
  114CHL1  H22A14679   4.205   0.958  15.001 -0.2636 -2.4473  1.4429
  114CHL1  H22B14680   4.050   0.898  15.063  2.0039  1.0726  2.0462
  114CHL1   C2314681   4.052   0.973  14.857 -0.0859 -0.1211  0.2508
  114CHL1  H23A14682   3.942   0.983  14.868  0.0971 -0.2877  3.0716
  114CHL1  H23B14683   4.090   1.058  14.797 -1.4853 -0.2528 -0.8539
  114CHL1   C2414684   4.095   0.844  14.782  0.2221  0.1493 -0.2564
  114CHL1  H24A14685   4.205   0.834  14.797  0.0625 -2.2531 -0.1890
  114CHL1  H24B14686   4.050   0.758  14.836 -3.4862  1.7668 -0.4778
  114CHL1   C2514687   4.068   0.839  14.629 -0.5418 -0.2694 -0.3055
  114CHL1   H2514688   4.105   0.933  14.584 -2.3108  0.0656 -1.1466
  114CHL1   C2614689   4.127   0.724  14.552 -1.0344  0.5305  0.6777
  114CHL1  H26A14690   4.095   0.620  14.574  2.1700 -0.7531 -0.1023
  114CHL1  H26B14691   4.106   0.730  14.443 -1.6989 -2.6037  0.5255
  114CHL1  H26C14692   4.238   0.721  14.556 -0.9863  0.2875 -0.3960
  114CHL1   C2714693   3.915   0.843  14.609  0.1753 -0.2184 -0.4989
  114CHL1  H27A14694   3.874   0.927  14.669  2.1426 -0.5719  1.4502
  114CHL1  H27B14695   3.898   0.867  14.502 -1.5071 -0.1317 -0.2458
  114CHL1  H27C14696   3.871   0.743  14.629  0.2630 -0.3196 -0.7970
  115CHL1    C314697   1.890   1.543  15.904 -0.4060  0.2912  0.4605
  115CHL1    H314698   1.855   1.647  15.890 -0.3361  0.2243 -0.2194
  115CHL1    O314699   1.992   1.536  15.998 -0.4962 -0.5296 -0.2420
  115CHL1   H3'14700   1.961   1.585  16.074  0.0961  0.1930 -0.4560
  115CHL1    C414701   1.768   1.453  15.944 -0.2101 -0.9680  0.0578
  115CHL1   H4A14702   1.803   1.357  15.988  2.0179  0.9050  2.7536
  115CHL1   H4B14703   1.722   1.507  16.030 -0.9585 -0.4679 -0.6405
  115CHL1    C514704   1.662   1.436  15.839  0.5354 -0.4203  0.2518
  115CHL1    C614705   1.531   1.459  15.858 -0.1874  0.6720  0.4904
  115CHL1    H614706   1.496   1.481  15.959  0.1373 -2.9089  1.5089
  115CHL1    C714707   1.426   1.441  15.751  0.3562 -0.4572 -0.5768
  115CHL1   H7A14708   1.344   1.386  15.801 -0.6339  1.2981 -0.1602
  115CHL1   H7B14709   1.387   1.542  15.727 -1.6823 -1.2840 -0.9487
  115CHL1    C814710   1.468   1.372  15.618 -0.3157 -0.1501 -0.5370
  115CHL1    H814711   1.467   1.262  15.633  2.5493 -0.1261  0.4867
  115CHL1   C1414712   1.371   1.414  15.511  0.1245  0.4411  0.0225
  115CHL1   H1414713   1.374   1.525  15.511 -0.0367  0.4629 -1.3863
  115CHL1   C1514714   1.215   1.393  15.535 -0.2581 -0.0023  0.9993
  115CHL1  H15A14715   1.204   1.308  15.605 -0.1540 -0.0596  0.9464
  115CHL1  H15B14716   1.172   1.475  15.595 -0.1444  0.7079  0.1354
  115CHL1   C1614717   1.152   1.375  15.397 -0.2897  0.0291  0.9014
  115CHL1  H16A14718   1.099   1.278  15.380  0.5921 -0.3606  0.2657
  115CHL1  H16B14719   1.074   1.453  15.384  1.1353  1.2419 -0.7660
  115CHL1   C1714720   1.272   1.399  15.298 -0.0529  0.4874  0.3935
  115CHL1   H1714721   1.285   1.508  15.282  0.1360  0.0059 -3.7757
  115CHL1   C1314722   1.398   1.355  15.376 -0.5304  0.2070 -0.2791
  115CHL1   C1814723   1.391   1.197  15.386 -0.0362 -0.6538 -0.1953
  115CHL1  H18A14724   1.289   1.161  15.409 -0.9090  0.4935 -2.0688
  115CHL1  H18B14725   1.405   1.155  15.284 -0.2529  1.8029 -1.3053
  115CHL1  H18C14726   1.471   1.152  15.449  1.2319  2.2422  0.3850
  115CHL1   C1214727   1.531   1.415  15.331 -0.4337 -0.6719  0.1544
  115CHL1  H12A14728   1.562   1.364  15.237  0.0339 -2.4585  1.2421
  115CHL1  H12B14729   1.521   1.525  15.313  2.9027  0.1071  2.2334
  115CHL1   C1114730   1.648   1.386  15.429  0.5849  0.1710 -0.4570
  115CHL1  H11A14731   1.666   1.277  15.416  0.1523  0.0404  0.0033
  115CHL1  H11B14732   1.744   1.431  15.396  1.6704 -2.0517 -0.5259
  115CHL1    C914733   1.607   1.424  15.576 -0.8744 -0.1636  0.4075
  115CHL1    H914734   1.601   1.535  15.580  1.4439  0.0109 -0.0553
  115CHL1   C1014735   1.711   1.397  15.693 -0.0872 -0.2520  0.2254
  115CHL1   C1914736   1.763   1.246  15.699  0.4301 -0.3791  1.0492
  115CHL1  H19A14737   1.673   1.185  15.721 -1.5216  2.2476  0.8512
  115CHL1  H19B14738   1.812   1.218  15.604  1.8692 -0.6644  1.8360
  115CHL1  H19C14739   1.843   1.243  15.777  1.2768 -0.0139  0.2165
  115CHL1    C114740   1.841   1.488  15.663  0.2191  0.6199  0.3231
  115CHL1   H1A14741   1.888   1.448  15.571 -0.1294  2.3482 -0.6545
  115CHL1   H1B14742   1.806   1.592  15.645 -2.1073 -0.1164  0.2818
  115CHL1    C214743   1.947   1.493  15.770 -0.3536 -0.3818 -0.4433
  115CHL1   H2A14744   2.028   1.565  15.746 -0.0405  0.4273  2.6135
  115CHL1   H2B14745   1.994   1.394  15.786 -1.2421 -0.5410  1.4782
  115CHL1   C2014746   1.231   1.325  15.174  0.3232  0.3881 -0.3208
  115CHL1   H2014747   1.214   1.217  15.195  1.3442  0.1759 -0.5378
  115CHL1   C2114748   1.342   1.329  15.070 -0.8928 -0.3039  0.5929
  115CHL1  H21A14749   1.378   1.432  15.050  0.5251 -1.0018 -0.6488
  115CHL1  H21B14750   1.337   1.276  14.972  1.7389 -2.3918  1.4852
  115CHL1  H21C14751   1.436   1.286  15.111 -0.8898 -1.9228 -0.9666
  115CHL1   C2214752   1.099   1.389  15.109  0.5200  0.1957  0.4306
  115CHL1  H22A14753   1.012   1.381  15.177  0.4979 -3.1065  0.1626
  115CHL1  H22B14754   1.122   1.491  15.069  0.0147  0.3032  0.4162
  115CHL1   C2314755   1.037   1.316  14.990 -0.1596  0.1539 -0.5452
  115CHL1  H23A14756   1.109   1.300  14.907 -0.9273 -0.2494 -1.1495
  115CHL1  H23B14757   1.004   1.217  15.030 -3.2435  1.5971  0.7930
  115CHL1   C2414758   0.923   1.382  14.913  0.3045  0.2783  0.4429
  115CHL1  H24A14759   0.873   1.459  14.976 -3.2146  0.6230 -2.4437
  115CHL1  H24B14760   0.966   1.450  14.836  1.7363 -0.2107  0.7784
  115CHL1   C2514761   0.832   1.278  14.850  0.0296 -0.6431  0.6256
  115CHL1   H2514762   0.791   1.214  14.931 -2.5883 -2.4312 -1.9203
  115CHL1   C2614763   0.718   1.337  14.767 -0.1726 -0.3458 -0.3132
  115CHL1  H26A14764   0.642   1.380  14.836  2.3790  1.4111  1.5907
  115CHL1  H26B14765   0.757   1.417  14.700  0.1826  0.5215  0.8933
  115CHL1  H26C14766   0.677   1.256  14.703 -0.5986  0.0225 -0.5095
  115CHL1   C2714767   0.919   1.190  14.750  0.2787  0.4966 -0.0210
  115CHL1  H27A14768   0.960   1.255  14.670  0.7098 -1.4702 -1.4965
  115CHL1  H27B14769   1.000   1.133  14.799 -0.5328 -2.1901 -1.5685
  115CHL1  H27C14770   0.854   1.105  14.717  0.5637  1.0209 -2.0995
  116CHL1    C314771   2.702   2.771  15.871  0.5422 -0.0644  0.6205
  116CHL1    H314772   2.804   2.814  15.869  0.8304 -0.6859  1.4667
  116CHL1    O314773   2.657   2.781  16.000  0.3905 -0.6124 -0.2163
  116CHL1   H3'14774   2.569   2.744  16.010 -0.6760  1.2987 -1.8212
  116CHL1    C414775   2.598   2.842  15.782 -0.5114  0.0558  0.4294
  116CHL1   H4A14776   2.495   2.812  15.812 -1.5200  0.7916 -2.0504
  116CHL1   H4B14777   2.595   2.953  15.792 -4.2739  0.3090 -1.5484
  116CHL1    C514778   2.629   2.815  15.636  0.4435 -0.1773  0.7389
  116CHL1    C614779   2.667   2.914  15.555  0.0238 -0.6272 -0.5125
  116CHL1    H614780   2.653   3.016  15.593  0.0681 -0.7321 -0.2116
  116CHL1    C714781   2.716   2.901  15.414  0.5324 -0.1165  0.2514
  116CHL1   H7A14782   2.677   2.985  15.353  3.1293  0.4984 -0.6560
  116CHL1   H7B14783   2.827   2.902  15.410  0.5040  1.2378 -0.7719
  116CHL1    C814784   2.663   2.764  15.356 -0.3311 -0.0877  0.4580
  116CHL1    H814785   2.552   2.769  15.343 -0.2123 -1.1224 -1.1844
  116CHL1   C1414786   2.735   2.734  15.219  0.3394  0.6516 -0.2731
  116CHL1   H1414787   2.842   2.730  15.249 -0.2634  1.9952  2.3241
  116CHL1   C1514788   2.737   2.845  15.110 -0.2019  0.2117 -0.1005
  116CHL1  H15A14789   2.630   2.867  15.094 -0.3120 -0.6330 -0.5855
  116CHL1  H15B14790   2.794   2.938  15.132  1.6388 -0.6035 -1.1568
  116CHL1   C1614791   2.776   2.775  14.982 -0.0218  0.2329  0.1946
  116CHL1  H16A14792   2.706   2.797  14.898  1.5923  0.6007 -1.1119
  116CHL1  H16B14793   2.875   2.809  14.947 -0.3509  1.4605  0.4058
  116CHL1   C1714794   2.772   2.627  15.019 -0.0559  0.2781 -0.0126
  116CHL1   H1714795   2.880   2.604  15.035  0.1193  0.4564 -0.8795
  116CHL1   C1314796   2.691   2.603  15.151 -1.0510 -0.0227 -0.3397
  116CHL1   C1814797   2.545   2.599  15.121 -0.0545 -0.1962  0.0547
  116CHL1  H18A14798   2.481   2.609  15.211 -0.6124 -0.9514 -0.2375
  116CHL1  H18B14799   2.512   2.682  15.055  2.8339  0.4829 -0.6882
  116CHL1  H18C14800   2.513   2.507  15.067 -1.5946  0.1517  0.3320
  116CHL1   C1214801   2.734   2.486  15.244 -0.2573  0.5102 -0.2560
  116CHL1  H12A14802   2.711   2.384  15.207  0.1457  0.8613 -1.5397
  116CHL1  H12B14803   2.844   2.487  15.261  0.0272 -0.0919 -1.8574
  116CHL1   C1114804   2.666   2.509  15.383  0.3171 -0.6219 -0.2734
  116CHL1  H11A14805   2.556   2.497  15.380 -0.0687  2.3411 -1.0682
  116CHL1  H11B14806   2.709   2.436  15.454 -3.0965  0.9432  3.8216
  116CHL1    C914807   2.692   2.651  15.449 -0.5250 -0.7884  1.0672
  116CHL1    H914808   2.803   2.647  15.461 -0.3242 -0.2267 -0.3666
  116CHL1   C1014809   2.630   2.667  15.593 -0.1217 -0.0559  0.0929
  116CHL1   C1914810   2.489   2.608  15.607  0.0679  0.0465 -0.0693
  116CHL1  H19A14811   2.503   2.499  15.588  1.5613 -0.3780  2.8936
  116CHL1  H19B14812   2.449   2.614  15.710  1.3024  0.3380  0.4035
  116CHL1  H19C14813   2.416   2.659  15.541 -0.3542 -0.0273  0.3377
  116CHL1    C114814   2.726   2.590  15.698  0.4060  0.7246 -0.1770
  116CHL1   H1A14815   2.711   2.480  15.691  0.0139  0.7501  0.2139
  116CHL1   H1B14816   2.832   2.619  15.683  0.2252  1.0601 -0.8757
  116CHL1    C214817   2.695   2.625  15.842  0.3050  0.0218 -1.4247
  116CHL1   H2A14818   2.760   2.567  15.910 -1.2312 -0.7414 -0.5510
  116CHL1   H2B14819   2.597   2.583  15.872  0.4871  1.7696  2.2265
  116CHL1   C2014820   2.742   2.538  14.897  0.6787  0.2078  0.0276
  116CHL1   H2014821   2.633   2.544  14.877  0.8291  0.9001 -0.6365
  116CHL1   C2114822   2.796   2.401  14.937 -0.0669  0.8056  0.5132
  116CHL1  H21A14823   2.784   2.327  14.856  0.8837 -0.5709  1.5841
  116CHL1  H21B14824   2.752   2.359  15.030 -1.1515  0.5992 -0.0791
  116CHL1  H21C14825   2.906   2.403  14.950  0.3682  0.5022 -2.3883
  116CHL1   C2214826   2.822   2.583  14.770  0.4060 -0.7289  0.1847
  116CHL1  H22A14827   2.783   2.682  14.739  1.8481 -0.8803 -2.3751
  116CHL1  H22B14828   2.929   2.582  14.798  0.1323 -0.1814  1.3481
  116CHL1   C2314829   2.812   2.491  14.649 -0.3224 -0.2880  0.7846
  116CHL1  H23A14830   2.863   2.399  14.686  3.7896  0.9887 -1.0752
  116CHL1  H23B14831   2.705   2.475  14.623 -0.8370  0.8043  2.1515
  116CHL1   C2414832   2.890   2.542  14.535  0.2809 -0.0876 -0.2725
  116CHL1  H24A14833   2.868   2.648  14.508  0.4139 -0.0403 -0.1946
  116CHL1  H24B14834   2.997   2.552  14.564  0.3296  0.2342 -0.5593
  116CHL1   C2514835   2.869   2.473  14.401  0.1855 -0.1193 -0.4677
  116CHL1   H2514836   2.758   2.481  14.394  0.3731  2.0989 -2.6124
  116CHL1   C2614837   2.942   2.538  14.282 -0.5168 -0.3185 -0.0087
  116CHL1  H26A14838   2.911   2.643  14.267  2.0800  0.4091 -0.7278
  116CHL1  H26B14839   3.052   2.531  14.294 -0.5317 -0.2862  0.1472
  116CHL1  H26C14840   2.914   2.485  14.188 -1.0169 -0.0627 -0.0031
  116CHL1   C2714841   2.910   2.328  14.403  0.2357 -0.2977  0.1353
  116CHL1  H27A14842   2.981   2.308  14.487 -0.7139  0.3808  1.1350
  116CHL1  H27B14843   2.819   2.268  14.424 -0.0765  0.2296  0.2963
  116CHL1  H27C14844   2.949   2.287  14.307  0.4867  0.1975  0.0251
  117CHL1    C314845   4.627   1.970  15.957 -0.0194  0.4310 -0.1079
  117CHL1    H314846   4.518   1.974  15.979 -0.0493 -3.3264  1.0739
  117CHL1    O314847   4.687   1.917  16.073  0.4077 -0.2414  0.2557
  117CHL1   H3'14848   4.779   1.908  16.046  0.2501 -0.1281 -0.3342
  117CHL1    C414849   4.644   1.876  15.841  0.3078 -0.1249  0.0868
  117CHL1   H4A14850   4.749   1.860  15.810  0.0222  0.2298 -1.1434
  117CHL1   H4B14851   4.614   1.774  15.874  0.8624  0.2917  1.9463
  117CHL1    C514852   4.557   1.919  15.724  0.6507 -0.0320  0.5710
  117CHL1    C614853   4.454   1.838  15.680  0.7201  0.2157  0.4389
  117CHL1    H614854   4.450   1.737  15.724  1.9425 -0.3804 -0.7315
  117CHL1    C714855   4.368   1.871  15.562 -0.4470  0.0532 -0.1010
  117CHL1   H7A14856   4.368   1.781  15.497  2.0895  1.6625 -2.6152
  117CHL1   H7B14857   4.260   1.882  15.583 -0.5829 -0.6215 -0.4335
  117CHL1    C814858   4.421   1.997  15.479 -0.4194  1.3896 -0.2633
  117CHL1    H814859   4.506   1.964  15.415 -0.6439 -0.7926  0.4908
  117CHL1   C1414860   4.310   2.052  15.397  0.0149 -0.2631  0.0620
  117CHL1   H1414861   4.235   2.089  15.470  2.3790 -1.1573  3.1582
  117CHL1   C1514862   4.233   1.971  15.292 -0.4097  0.2533  0.1773
  117CHL1  H15A14863   4.313   1.908  15.248 -0.8327  0.2321 -0.5643
  117CHL1  H15B14864   4.152   1.907  15.334  0.2010  0.5382  1.8704
  117CHL1   C1614865   4.172   2.064  15.188 -0.8097 -0.0796  0.3622
  117CHL1  H16A14866   4.204   2.031  15.087  3.0588 -3.5470  2.4069
  117CHL1  H16B14867   4.062   2.066  15.196 -0.7450  2.4540  2.1187
  117CHL1   C1714868   4.208   2.207  15.241  0.2688 -0.0023 -0.1319
  117CHL1   H1714869   4.133   2.214  15.324 -2.4201 -2.7214 -2.0916
  117CHL1   C1314870   4.339   2.182  15.321 -0.1448  0.0040  0.4370
  117CHL1   C1814871   4.461   2.150  15.222  0.7997  0.2200 -0.9675
  117CHL1  H18A14872   4.427   2.078  15.145  0.1889 -1.2802  0.6473
  117CHL1  H18B14873   4.487   2.244  15.169  0.3308 -0.0010 -1.6000
  117CHL1  H18C14874   4.553   2.121  15.278 -0.4792 -0.9839  0.6055
  117CHL1   C1214875   4.376   2.298  15.421 -0.6154  0.4788 -0.1500
  117CHL1  H12A14876   4.421   2.386  15.370 -1.2878 -0.0552 -1.7408
  117CHL1  H12B14877   4.278   2.324  15.466  0.4465  0.8507  2.0694
  117CHL1   C1114878   4.485   2.251  15.521  0.1107  0.2827 -0.3251
  117CHL1  H11A14879   4.579   2.247  15.461  1.3220  0.5404  1.4751
  117CHL1  H11B14880   4.492   2.316  15.610 -0.3856 -3.0448  2.3334
  117CHL1    C914881   4.463   2.100  15.579 -0.1538 -0.1265  0.3329
  117CHL1    H914882   4.380   2.109  15.653  1.9087  0.8067  2.7047
  117CHL1   C1014883   4.580   2.058  15.673  0.2469  0.4289 -0.0341
  117CHL1   C1914884   4.710   2.066  15.594  0.4580 -0.2628  0.4336
  117CHL1  H19A14885   4.744   2.171  15.590  2.4797 -0.7409  2.3953
  117CHL1  H19B14886   4.783   2.000  15.647  1.3681  1.0930  0.9162
  117CHL1  H19C14887   4.716   2.015  15.496  1.3102  0.6335  0.0101
  117CHL1    C114888   4.593   2.149  15.801 -0.2400 -0.7297  0.3554
  117CHL1   H1A14889   4.634   2.250  15.777  1.4121 -0.9800  1.9211
  117CHL1   H1B14890   4.492   2.173  15.840  0.1973  0.3794  0.8540
  117CHL1    C214891   4.689   2.101  15.914  0.4094  0.2590 -0.2977
  117CHL1   H2A14892   4.694   2.168  16.002  0.5143 -0.9077  0.6098
  117CHL1   H2B14893   4.795   2.098  15.879  0.2137  3.0854 -1.3936
  117CHL1   C2014894   4.212   2.327  15.147 -0.6666 -0.7762  0.2309
  117CHL1   H2014895   4.317   2.361  15.131 -0.3123 -1.1145  1.6630
  117CHL1   C2114896   4.137   2.443  15.216 -0.6874 -0.0195  0.0183
  117CHL1  H21A14897   4.027   2.431  15.217 -0.6662 -0.7075 -1.5542
  117CHL1  H21B14898   4.147   2.533  15.151  2.2490  0.8537  1.4893
  117CHL1  H21C14899   4.175   2.454  15.319 -0.1092 -1.5391  0.0031
  117CHL1   C2214900   4.156   2.297  15.008 -0.2662 -0.0900 -0.4448
  117CHL1  H22A14901   4.231   2.231  14.960  0.3823  0.1499  0.2164
  117CHL1  H22B14902   4.058   2.244  15.016 -0.5248  0.5735  1.0555
  117CHL1   C2314903   4.148   2.426  14.923  0.7650  0.2763 -0.2795
  117CHL1  H23A14904   4.052   2.475  14.948  0.6592 -0.6537  1.2457
  117CHL1  H23B14905   4.230   2.493  14.955  0.9615  0.3796 -0.9757
  117CHL1   C2414906   4.164   2.404  14.775 -0.1318 -0.1135  1.2225
  117CHL1  H24A14907   4.267   2.374  14.747 -0.0394 -1.2059  2.6231
  117CHL1  H24B14908   4.103   2.322  14.731 -0.3838 -0.9154  2.9737
  117CHL1   C2514909   4.136   2.540  14.705 -0.3975 -0.3475  0.3294
  117CHL1   H2514910   4.096   2.611  14.780 -2.5961  0.6980 -1.6936
  117CHL1   C2614911   4.260   2.596  14.632  0.1836 -0.1809 -0.2811
  117CHL1  H26A14912   4.238   2.685  14.569  0.4843  0.8592  1.0385
  117CHL1  H26B14913   4.337   2.621  14.707  1.1265 -2.5293 -0.4014
  117CHL1  H26C14914   4.302   2.520  14.563 -0.9212 -1.3199  0.2448
  117CHL1   C2714915   4.024   2.524  14.598 -0.0682  0.7653  0.4239
  117CHL1  H27A14916   4.057   2.461  14.512 -4.1912 -1.4695  0.2464
  117CHL1  H27B14917   3.926   2.486  14.634 -0.1453  1.6014  1.1218
  117CHL1  H27C14918   4.002   2.628  14.565 -1.4474 -0.1553 -1.8354
  118CHL1    C314919   6.587   2.406  15.611  0.1311  0.1275 -0.4037
  118CHL1    H314920   6.618   2.299  15.610  2.0392  0.6371 -1.1656
  118CHL1    O314921   6.551   2.443  15.744 -0.0558  0.2096 -0.4574
  118CHL1   H3'14922   6.504   2.526  15.737  0.4012  0.5350  0.2281
  118CHL1    C414923   6.689   2.503  15.545  0.5532 -0.4332 -0.4538
  118CHL1   H4A14924   6.657   2.609  15.558 -0.9254 -0.7479 -1.3083
  118CHL1   H4B14925   6.785   2.505  15.602  0.3959 -1.9111 -0.1085
  118CHL1    C514926   6.710   2.476  15.402 -0.0178  0.6245  0.0340
  118CHL1    C614927   6.834   2.454  15.352  0.3406  0.3376 -0.2910
  118CHL1    H614928   6.918   2.442  15.422  0.2763 -0.8969 -0.4043
  118CHL1    C714929   6.857   2.426  15.206  0.3410 -0.5556 -0.5047
  118CHL1   H7A14930   6.942   2.489  15.171  1.7258 -1.7588  0.5446
  118CHL1   H7B14931   6.876   2.319  15.184 -0.5127 -0.7510 -0.3267
  118CHL1    C814932   6.744   2.463  15.110  0.6818 -0.4806 -0.2757
  118CHL1    H814933   6.742   2.573  15.093  0.5958  0.1080  2.9100
  118CHL1   C1414934   6.767   2.381  14.984  0.8821 -0.2315  0.1863
  118CHL1   H1414935   6.770   2.274  15.014  0.1968 -0.1137  0.7080
  118CHL1   C1514936   6.899   2.394  14.906 -0.8074 -0.0386 -1.3069
  118CHL1  H15A14937   6.943   2.496  14.913 -1.7906  0.3162  0.1036
  118CHL1  H15B14938   6.973   2.322  14.946 -1.5146  0.3507  0.8247
  118CHL1   C1614939   6.867   2.360  14.763 -0.0500  0.0853  0.7643
  118CHL1  H16A14940   6.869   2.452  14.702  0.9224  1.4499  2.7407
  118CHL1  H16B14941   6.938   2.283  14.727 -0.0201 -0.5664  2.1415
  118CHL1   C1714942   6.712   2.315  14.765 -0.3817 -0.4148 -0.5283
  118CHL1   H1714943   6.709   2.209  14.797 -1.2028 -0.6163 -1.2236
  118CHL1   C1314944   6.649   2.391  14.883  0.1273  0.3036 -0.3088
  118CHL1   C1814945   6.633   2.538  14.841  0.2066  0.5240 -0.0976
  118CHL1  H18A14946   6.720   2.588  14.793  1.2976  0.6261  1.8593
  118CHL1  H18B14947   6.552   2.543  14.765 -0.0005 -1.4830 -0.0512
  118CHL1  H18C14948   6.603   2.605  14.924  1.4315  0.2114  0.6280
  118CHL1   C1214949   6.527   2.337  14.949  0.7669  0.0775 -0.5407
  118CHL1  H12A14950   6.443   2.325  14.878  1.6370 -0.8361 -1.4385
  118CHL1  H12B14951   6.549   2.235  14.987 -1.4121 -0.3919 -0.4145
  118CHL1   C1114952   6.494   2.424  15.075  0.5314  0.4889 -0.0661
  118CHL1  H11A14953   6.466   2.527  15.045 -2.5530  0.4961  2.3994
  118CHL1  H11B14954   6.401   2.384  15.120  1.7602 -0.3992  1.7836
  118CHL1    C914955   6.610   2.416  15.173  0.4390 -0.4594  0.1462
  118CHL1    H914956   6.640   2.311  15.195  0.9082  0.0759  2.3538
  118CHL1   C1014957   6.586   2.471  15.311  1.0656 -0.7324 -0.3147
  118CHL1   C1914958   6.534   2.621  15.297 -0.1962 -0.0291  0.1338
  118CHL1  H19A14959   6.439   2.623  15.239  1.2962 -2.0084 -2.6197
  118CHL1  H19B14960   6.502   2.673  15.389  1.7318  1.4523  0.0305
  118CHL1  H19C14961   6.608   2.688  15.248 -1.0933  1.9319  1.3322
  118CHL1    C114962   6.472   2.386  15.381 -0.1214 -1.2337 -0.8474
  118CHL1   H1A14963   6.382   2.413  15.321 -1.0156 -1.8872  0.1522
  118CHL1   H1B14964   6.486   2.277  15.361 -1.1594 -1.1296 -2.3617
  118CHL1    C214965   6.453   2.414  15.530  0.3857  0.5723  0.2344
  118CHL1   H2A14966   6.394   2.332  15.576 -0.2467  1.1400  0.4593
  118CHL1   H2B14967   6.395   2.509  15.534  2.3684  1.8502 -0.1422
  118CHL1   C2014968   6.647   2.324  14.620 -0.2547 -0.2242 -0.3087
  118CHL1   H2014969   6.655   2.427  14.578 -0.6054 -0.5342 -1.1700
  118CHL1   C2114970   6.496   2.296  14.625 -0.3470  0.1808 -0.0659
  118CHL1  H21A14971   6.451   2.288  14.523  0.5415  0.2488 -0.4754
  118CHL1  H21B14972   6.438   2.372  14.682 -0.4585  0.3408 -0.3877
  118CHL1  H21C14973   6.474   2.200  14.676 -1.5930 -0.0785 -1.0438
  118CHL1   C2214974   6.702   2.218  14.522 -0.8861  0.0328 -0.0411
  118CHL1  H22A14975   6.812   2.211  14.534 -0.2274  2.8278 -2.9527
  118CHL1  H22B14976   6.669   2.119  14.560 -1.9747  0.1322 -0.6884
  118CHL1   C2314977   6.667   2.247  14.376 -0.4355  0.0491 -0.3166
  118CHL1  H23A14978   6.559   2.224  14.369 -0.6623  1.1177 -0.6028
  118CHL1  H23B14979   6.697   2.354  14.367  0.5287 -0.0868  1.0252
  118CHL1   C2414980   6.756   2.165  14.285  0.9531 -0.7579  0.0615
  118CHL1  H24A14981   6.861   2.195  14.305  0.7617  2.5491 -2.8399
  118CHL1  H24B14982   6.747   2.058  14.314 -2.0399 -0.6324 -0.1347
  118CHL1   C2514983   6.717   2.183  14.145  0.2795  0.1277 -0.6442
  118CHL1   H2514984   6.688   2.288  14.123  1.4540  0.6436  0.1675
  118CHL1   C2614985   6.834   2.144  14.057 -0.0069 -0.3480  0.4629
  118CHL1  H26A14986   6.919   2.214  14.068 -0.3828  0.0107  1.1277
  118CHL1  H26B14987   6.871   2.041  14.076  1.8873  0.5831  2.1313
  118CHL1  H26C14988   6.800   2.149  13.951  0.4634  1.5295  0.3697
  118CHL1   C2714989   6.595   2.092  14.126  0.5427  1.0113 -0.6326
  118CHL1  H27A14990   6.505   2.124  14.184 -0.0857 -3.3131  1.1651
  118CHL1  H27B14991   6.575   2.085  14.017 -0.2501 -0.1656 -0.4288
  118CHL1  H27C14992   6.610   1.990  14.166  1.2604  1.4266  0.1917
  119CHL1    C314993   0.252   2.242  15.894 -0.6756 -0.8330  0.3474
  119CHL1    H314994   0.149   2.285  15.898  0.1404  1.2819 -0.1953
  119CHL1    O314995   0.279   2.158  16.005 -0.5392  0.4898  0.5290
  119CHL1   H3'14996   0.282   2.212  16.084 -1.0687  1.1315  0.1320
  119CHL1    C414997   0.267   2.160  15.768 -0.4738 -0.0001  0.3083
  119CHL1   H4A14998   0.367   2.114  15.753 -0.6914 -0.2832 -0.2662
  119CHL1   H4B14999   0.201   2.071  15.765 -1.7653  0.9314  0.1046
  119CHL1    C515000   0.234   2.246  15.647  0.1056 -0.7215 -0.2746
  119CHL1    C615001   0.138   2.224  15.561 -0.5285  0.5631  0.5219
  119CHL1    H615002   0.081   2.130  15.564  1.9340 -1.0031  0.8983
  119CHL1    C715003   0.099   2.315  15.449  0.3671  0.1156 -0.3429
  119CHL1   H7A15004   0.073   2.246  15.366  1.1004 -0.5486 -0.0338
  119CHL1   H7B15005   0.014   2.375  15.488 -0.0109 -0.4168 -0.3483
  119CHL1    C815006   0.212   2.402  15.395 -0.0415 -0.2559 -0.0670
  119CHL1    H815007   0.296   2.337  15.360 -0.2594 -0.5264 -0.0915
  119CHL1   C1415008   0.164   2.500  15.289 -0.8036  0.1121  0.1286
  119CHL1   H1415009   0.089   2.566  15.338 -0.4956 -0.8446  1.9512
  119CHL1   C1515010   0.080   2.444  15.170  0.2154 -0.1980  0.9445
  119CHL1  H15A15011   0.119   2.354  15.117 -2.5816  0.5434 -2.7892
  119CHL1  H15B15012  -0.021   2.422  15.209 -0.3168  1.5703  0.6314
  119CHL1   C1615013   0.086   2.556  15.066 -0.1529 -0.2002 -0.3907
  119CHL1  H16A15014   0.131   2.506  14.978 -0.5345 -2.0909  0.4389
  119CHL1  H16B15015  -0.006   2.607  15.029  0.9191  0.8806 -1.6658
  119CHL1   C1715016   0.191   2.659  15.122  0.4711 -0.4600  0.5853
  119CHL1   H1715017   0.141   2.742  15.177 -0.1741 -1.8898  2.2542
  119CHL1   C1315018   0.278   2.589  15.233 -0.2615 -0.1929  0.0719
  119CHL1   C1815019   0.387   2.514  15.158 -0.4349  0.1551  0.5359
  119CHL1  H18A15020   0.353   2.468  15.063  0.8766  1.0114 -0.3836
  119CHL1  H18B15021   0.468   2.589  15.146 -1.0686  0.8736  0.7091
  119CHL1  H18C15022   0.429   2.426  15.211 -0.3871 -1.3501 -1.8278
  119CHL1   C1215023   0.332   2.668  15.352 -0.2408 -0.4596 -0.2087
  119CHL1  H12A15024   0.425   2.725  15.332  0.1874 -1.3250 -0.7433
  119CHL1  H12B15025   0.248   2.737  15.377  0.2251  1.0161 -2.4107
  119CHL1   C1115026   0.380   2.583  15.472 -0.5114 -0.4815  0.1823
  119CHL1  H11A15027   0.472   2.536  15.430  1.1110  2.7120 -0.1188
  119CHL1  H11B15028   0.395   2.649  15.560  1.6340 -1.2997  0.4960
  119CHL1    C915029   0.272   2.479  15.516 -0.0551  0.9435 -0.5158
  119CHL1    H915030   0.190   2.532  15.568 -0.3573  0.0590 -0.0824
  119CHL1   C1015031   0.318   2.380  15.633 -0.7534  0.4867 -0.2045
  119CHL1   C1915032   0.463   2.333  15.603  0.3617 -0.7387  0.7511
  119CHL1  H19A15033   0.532   2.417  15.579 -0.2323 -0.6537 -0.7875
  119CHL1  H19B15034   0.518   2.292  15.690  1.5137 -1.9554 -0.5022
  119CHL1  H19C15035   0.466   2.263  15.516 -1.4888 -1.2830  1.0812
  119CHL1    C115036   0.321   2.449  15.765  0.0362 -0.8932 -0.4780
  119CHL1   H1A15037   0.400   2.526  15.757 -0.1185 -0.8364 -1.5400
  119CHL1   H1B15038   0.229   2.509  15.775  0.6057  0.2359 -1.8047
  119CHL1    C215039   0.343   2.365  15.894  1.0536 -0.3485  0.3676
  119CHL1   H2A15040   0.325   2.444  15.970  0.4994  0.2705 -0.3876
  119CHL1   H2B15041   0.447   2.326  15.893  1.4630  0.5953 -2.5353
  119CHL1   C2015042   0.257   2.740  15.005 -0.3192 -0.1518 -0.3771
  119CHL1   H2015043   0.305   2.658  14.948 -1.1327 -1.2612  0.4822
  119CHL1   C2115044   0.360   2.837  15.073  0.2616 -0.3972  0.0797
  119CHL1  H21A15045   0.437   2.780  15.130 -0.6818  0.6017  2.4785
  119CHL1  H21B15046   0.299   2.906  15.134 -0.8780  0.9107 -2.3745
  119CHL1  H21C15047   0.412   2.898  14.995  1.2536 -1.2291  0.0741
  119CHL1   C2215048   0.160   2.808  14.905 -0.6682 -0.2898  0.5908
  119CHL1  H22A15049   0.075   2.742  14.880  0.2854 -0.8357 -1.3351
  119CHL1  H22B15050   0.135   2.907  14.950  0.0377 -0.4891  1.4602
  119CHL1   C2315051   0.235   2.840  14.781  0.4801 -0.3072 -0.3729
  119CHL1  H23A15052   0.322   2.903  14.812 -1.0236  0.8091  1.8139
  119CHL1  H23B15053   0.283   2.747  14.743 -0.0177  0.4020 -2.9033
  119CHL1   C2415054   0.143   2.898  14.675 -0.8054 -0.1107  0.3374
  119CHL1  H24A15055   0.074   2.821  14.634 -1.2166  0.1545  0.5189
  119CHL1  H24B15056   0.086   2.983  14.718  0.2394  1.5231 -1.3988
  119CHL1   C2515057   0.212   2.962  14.553  0.1295  0.3703  0.4024
  119CHL1   H2515058   0.271   3.044  14.600  1.7794  0.0969 -1.0957
  119CHL1   C2615059   0.295   2.858  14.475 -0.0549 -0.7713 -0.0552
  119CHL1  H26A15060   0.319   2.921  14.387  0.9812  0.5875  1.1468
  119CHL1  H26B15061   0.382   2.820  14.534 -0.1599 -1.1692 -0.1593
  119CHL1  H26C15062   0.235   2.772  14.440  0.5976 -1.0536 -0.4871
  119CHL1   C2715063   0.111   3.025  14.458  0.3387  0.0357  0.2853
  119CHL1  H27A15064   0.146   3.112  14.399 -0.6580  0.6846  0.6242
  119CHL1  H27B15065   0.054   2.952  14.397 -1.9435  2.1452 -0.2652
  119CHL1  H27C15066   0.030   3.058  14.527 -0.3304  0.0267 -0.4815
  120CHL1    C315067   7.190   1.648  15.716  0.0967  0.2678  0.2394
  120CHL1    H315068   7.091   1.597  15.729  0.9918 -1.0662  2.4679
  120CHL1    O315069   7.207   1.730  15.824  0.2415 -0.4625  0.0959
  120CHL1   H3'15070   7.172   1.683  15.900 -0.3089 -0.1652  0.0304
  120CHL1    C415071   7.309   1.565  15.680  0.2465  0.5858  0.0100
  120CHL1   H4A15072   7.397   1.632  15.667  0.8404 -0.1352  0.2176
  120CHL1   H4B15073   7.342   1.496  15.761  1.7779  1.2970  0.0340
  120CHL1    C515074   7.286   1.480  15.555 -0.8960  0.8507 -0.3592
  120CHL1    C615075   7.292   1.345  15.553 -0.1914 -0.0822  1.2028
  120CHL1    H615076   7.326   1.282  15.637 -0.9836 -0.4729  1.2374
  120CHL1    C715077   7.269   1.259  15.431 -0.0798  0.6524  0.1117
  120CHL1   H7A15078   7.341   1.174  15.440  0.1177  0.6595 -1.1832
  120CHL1   H7B15079   7.174   1.202  15.436  1.3199 -1.7393  1.8693
  120CHL1    C815080   7.270   1.338  15.301  0.2878 -0.5945  0.1051
  120CHL1    H815081   7.373   1.361  15.269  0.6351 -4.1373 -1.8998
  120CHL1   C1415082   7.223   1.247  15.182 -0.2974 -0.4520 -0.4792
  120CHL1   H1415083   7.120   1.213  15.205  0.6726 -0.7633  4.4381
  120CHL1   C1515084   7.302   1.122  15.157 -0.7485 -0.1515  0.0416
  120CHL1  H15A15085   7.407   1.158  15.159 -0.8437  0.1078  1.0745
  120CHL1  H15B15086   7.272   1.056  15.242 -0.2959  0.3618  0.6045
  120CHL1   C1615087   7.261   1.076  15.012 -0.4009  0.4108 -0.4030
  120CHL1  H16A15088   7.354   1.049  14.957 -0.4745  1.9745 -1.3674
  120CHL1  H16B15089   7.194   0.988  15.025  0.2354  0.0328  0.4767
  120CHL1   C1715090   7.179   1.202  14.955 -0.3600 -0.4310 -0.4988
  120CHL1   H1715091   7.073   1.180  14.983  0.0607 -2.9553 -0.6175
  120CHL1   C1315092   7.218   1.321  15.045 -0.3667  0.7306  0.0670
  120CHL1   C1815093   7.356   1.365  14.991 -0.0885  0.4169  0.7720
  120CHL1  H18A15094   7.350   1.411  14.890  0.4474 -1.3669 -0.1190
  120CHL1  H18B15095   7.392   1.442  15.063 -0.1046 -0.5189  1.8119
  120CHL1  H18C15096   7.427   1.283  14.966  0.2922  1.8985 -4.0027
  120CHL1   C1215097   7.119   1.434  15.063  0.0726  0.2605 -0.2726
  120CHL1  H12A15098   7.119   1.498  14.972 -1.0543  1.0330  0.2453
  120CHL1  H12B15099   7.015   1.401  15.083 -1.0663  3.8695  0.4992
  120CHL1   C1115100   7.159   1.530  15.178 -0.3080  0.5988  0.2033
  120CHL1  H11A15101   7.253   1.573  15.137  0.7324 -2.5695 -1.0513
  120CHL1  H11B15102   7.077   1.605  15.179  0.0118  1.0003  2.8020
  120CHL1    C915103   7.184   1.461  15.314  0.4434 -0.3385  0.5574
  120CHL1    H915104   7.083   1.436  15.353  0.0463  0.8173  0.3100
  120CHL1   C1015105   7.238   1.556  15.427  0.1370  0.0405 -0.0216
  120CHL1   C1915106   7.367   1.623  15.373 -0.4002  0.5000  0.1575
  120CHL1  H19A15107   7.436   1.544  15.338 -1.2195  0.1138 -0.6202
  120CHL1  H19B15108   7.356   1.695  15.289  1.4186  0.6758  0.0441
  120CHL1  H19C15109   7.416   1.686  15.450 -0.4346 -0.1201  0.6947
  120CHL1    C115110   7.133   1.661  15.469 -0.1169  0.3996  0.1520
  120CHL1   H1A15111   7.131   1.731  15.383  0.0111 -1.4166 -1.4057
  120CHL1   H1B15112   7.031   1.616  15.471 -0.4286  1.0817 -0.0634
  120CHL1    C215113   7.165   1.745  15.596 -0.7729  0.1293  0.1203
  120CHL1   H2A15114   7.080   1.815  15.612  0.2490  1.6868 -0.9443
  120CHL1   H2B15115   7.256   1.809  15.587  0.9719 -2.2314  0.0225
  120CHL1   C2015116   7.186   1.211  14.805 -0.6398  0.8043  0.3429
  120CHL1   H2015117   7.289   1.218  14.765 -0.2466 -2.8631  0.3598
  120CHL1   C2115118   7.116   1.334  14.758 -0.1057 -0.3337  0.0942
  120CHL1  H21A15119   7.170   1.424  14.792  2.4700 -1.9465  0.5474
  120CHL1  H21B15120   7.011   1.332  14.794 -0.1649 -0.0379 -0.0624
  120CHL1  H21C15121   7.096   1.337  14.648 -2.0861 -0.6981  0.4114
  120CHL1   C2215122   7.137   1.078  14.726 -0.4873 -0.2236  0.0266
  120CHL1  H22A15123   7.165   1.099  14.620  1.0529  1.7274  0.7530
  120CHL1  H22B15124   7.197   0.992  14.762 -0.6266 -0.2408  0.2189
  120CHL1   C2315125   6.988   1.043  14.743  0.2608  0.3903 -0.7454
  120CHL1  H23A15126   6.970   1.021  14.851 -1.0428 -0.8534 -1.1861
  120CHL1  H23B15127   6.934   1.135  14.712  0.6093  0.3667 -1.4454
  120CHL1   C2415128   6.947   0.933  14.653 -0.8173  1.1625  0.2225
  120CHL1  H24A15129   6.945   0.962  14.545 -2.2685 -0.1941 -0.1466
  120CHL1  H24B15130   7.012   0.844  14.651 -1.5210  0.6480 -1.1035
  120CHL1   C2515131   6.798   0.884  14.678 -0.3325  0.0055  0.4116
  120CHL1   H2515132   6.734   0.971  14.652  1.4674  0.4112 -3.2567
  120CHL1   C2615133   6.768   0.771  14.576 -0.1906  0.0068  0.1021
  120CHL1  H26A15134   6.824   0.676  14.595 -0.8574 -0.6646 -1.1648
  120CHL1  H26B15135   6.661   0.744  14.588  0.3166 -0.7988  4.8906
  120CHL1  H26C15136   6.798   0.810  14.477  0.8418 -1.7494 -0.3205
  120CHL1   C2715137   6.783   0.833  14.826 -0.5352 -0.4790  0.3487
  120CHL1  H27A15138   6.827   0.905  14.899  2.0003 -1.2067 -0.3564
  120CHL1  H27B15139   6.675   0.821  14.850 -0.3331 -2.0856  0.5526
  120CHL1  H27C15140   6.839   0.738  14.839  0.3532 -0.1473 -0.9036
  121CHL1    C315141   3.821   4.284  12.790  0.4031  0.1479  0.1082
  121CHL1    H315142   3.860   4.222  12.873 -0.1094  1.5205  1.4203
  121CHL1    O315143   3.840   4.223  12.668  0.2114 -0.0796 -0.3824
  121CHL1   H3'15144   3.790   4.141  12.671 -1.3716  0.8462 -0.1750
  121CHL1    C415145   3.667   4.306  12.803  0.1092  0.1698 -0.1791
  121CHL1   H4A15146   3.638   4.373  12.719  0.2739  0.1179 -0.2761
  121CHL1   H4B15147   3.598   4.218  12.809  0.9089 -0.4946 -0.5405
  121CHL1    C515148   3.650   4.370  12.947 -0.2361 -0.1846  0.1543
  121CHL1    C615149   3.584   4.312  13.049 -0.4069 -0.3301 -0.2114
  121CHL1    H615150   3.540   4.212  13.034  0.3560 -0.7188  0.0608
  121CHL1    C715151   3.561   4.367  13.183  0.5515  0.2857  0.1680
  121CHL1   H7A15152   3.457   4.343  13.214  1.9305 -0.8173  4.7303
  121CHL1   H7B15153   3.625   4.312  13.255  0.9963  2.4424  1.5309
  121CHL1    C815154   3.588   4.523  13.188 -0.2442 -0.1688  0.3289
  121CHL1    H815155   3.504   4.572  13.135 -1.0002 -0.0422  1.6281
  121CHL1   C1415156   3.592   4.574  13.327  0.0434  0.2086 -0.5635
  121CHL1   H1415157   3.673   4.509  13.366 -1.3589 -0.9133  0.6229
  121CHL1   C1515158   3.478   4.540  13.424  0.1788  0.4266 -0.2081
  121CHL1  H15A15159   3.379   4.573  13.386  0.7359  1.7295 -0.5851
  121CHL1  H15B15160   3.476   4.436  13.461 -2.5197  0.6960  0.6143
  121CHL1   C1615161   3.497   4.642  13.540  0.2555 -0.0156 -0.9360
  121CHL1  H16A15162   3.396   4.684  13.560  0.2218  0.6211 -2.3584
  121CHL1  H16B15163   3.543   4.599  13.632 -2.1018 -1.2777 -0.2672
  121CHL1   C1715164   3.612   4.745  13.490 -0.5107  0.1596 -0.0697
  121CHL1   H1715165   3.710   4.728  13.539 -0.2468  2.5747  0.3176
  121CHL1   C1315166   3.629   4.719  13.339  0.1141 -0.4372  0.2295
  121CHL1   C1815167   3.519   4.800  13.272  0.1142 -0.5509  1.2544
  121CHL1  H18A15168   3.530   4.910  13.281  3.5748 -0.3966 -2.1943
  121CHL1  H18B15169   3.526   4.805  13.161 -3.3008  1.0020  0.9668
  121CHL1  H18C15170   3.423   4.775  13.322  0.3140 -0.7783  1.5267
  121CHL1   C1215171   3.764   4.741  13.277 -0.5672 -0.4870  0.5862
  121CHL1  H12A15172   3.786   4.850  13.279  1.1198 -0.7752 -0.4485
  121CHL1  H12B15173   3.839   4.676  13.327 -0.1769 -0.3171  0.2268
  121CHL1   C1115174   3.771   4.702  13.129  0.4724  0.2939 -0.1621
  121CHL1  H11A15175   3.714   4.776  13.069 -1.6809 -0.6819  0.5636
  121CHL1  H11B15176   3.878   4.700  13.097 -0.3244  0.1163 -3.1060
  121CHL1    C915177   3.723   4.552  13.114  0.7364  0.7030 -0.8187
  121CHL1    H915178   3.793   4.495  13.178  0.0003  1.5832  0.8141
  121CHL1   C1015179   3.727   4.504  12.964 -0.1131 -0.5810  0.0409
  121CHL1   C1915180   3.664   4.612  12.870 -0.3907  0.7872  0.0099
  121CHL1  H19A15181   3.704   4.715  12.883  0.2952  0.6232 -0.6811
  121CHL1  H19B15182   3.690   4.595  12.763 -2.3473  0.2161 -0.4040
  121CHL1  H19C15183   3.554   4.626  12.873 -0.4690  1.2574 -2.5426
  121CHL1    C115184   3.873   4.491  12.926 -0.3105  0.0749 -0.3355
  121CHL1   H1A15185   3.922   4.590  12.920 -0.8195  0.4223  1.0591
  121CHL1   H1B15186   3.926   4.441  13.009  0.0247  0.7719 -0.1264
  121CHL1    C215187   3.905   4.413  12.795 -0.0040 -0.9796  0.3808
  121CHL1   H2A15188   4.016   4.399  12.792  0.4346  0.9154  3.5367
  121CHL1   H2B15189   3.872   4.465  12.703  3.4985 -0.2770 -0.6579
  121CHL1   C2015190   3.590   4.886  13.533  0.0517  0.2054  0.1945
  121CHL1   H2015191   3.500   4.927  13.481  0.1585 -1.0777 -1.0623
  121CHL1   C2115192   3.710   4.976  13.490 -0.1400 -0.1050 -0.4427
  121CHL1  H21A15193   3.807   4.929  13.517  0.4686  1.1322 -0.4180
  121CHL1  H21B15194   3.682   5.072  13.537 -0.8029 -0.6584  0.3249
  121CHL1  H21C15195   3.716   4.998  13.381 -2.5737 -0.8545 -0.7916
  121CHL1   C2215196   3.554   4.908  13.681 -0.1333  0.0708 -0.0230
  121CHL1  H22A15197   3.526   5.012  13.707 -0.5622  0.3703 -1.5823
  121CHL1  H22B15198   3.457   4.855  13.694 -0.2353  0.7812  2.4258
  121CHL1   C2315199   3.664   4.866  13.782  0.6457 -0.1216 -0.4705
  121CHL1  H23A15200   3.705   4.765  13.762  1.7761  0.1563  0.3034
  121CHL1  H23B15201   3.742   4.945  13.769  1.7804 -0.9727  0.8515
  121CHL1   C2415202   3.621   4.883  13.931  0.1897  0.2832 -0.7893
  121CHL1  H24A15203   3.586   4.987  13.949 -1.1744 -0.6048  2.4957
  121CHL1  H24B15204   3.528   4.826  13.950 -0.7617  1.0148 -2.9541
  121CHL1   C2515205   3.724   4.852  14.044 -0.3678 -0.1094 -0.7133
  121CHL1   H2515206   3.768   4.750  14.038 -1.6228 -0.6484 -1.1894
  121CHL1   C2615207   3.847   4.956  14.039  0.1430  0.0860 -0.3853
  121CHL1  H26A15208   3.804   5.058  14.049  1.4159  0.7122 -1.0208
  121CHL1  H26B15209   3.911   4.939  14.128 -0.0903 -2.1391 -0.5746
  121CHL1  H26C15210   3.901   4.954  13.942 -0.7592  1.1393 -0.9344
  121CHL1   C2715211   3.654   4.860  14.182  0.2373 -0.0608 -0.0749
  121CHL1  H27A15212   3.576   4.939  14.179 -0.4187 -0.7307 -1.0715
  121CHL1  H27B15213   3.608   4.762  14.202  1.1262 -0.4399  0.1800
  121CHL1  H27C15214   3.719   4.890  14.267  0.0115 -1.6139  0.6714
  122CHL1    C315215   2.449   5.787  12.858  0.2239  0.2885 -0.3452
  122CHL1    H315216   2.558   5.768  12.861  0.4116  1.1322 -1.2704
  122CHL1    O315217   2.417   5.859  12.734  0.0496 -0.5173 -0.1859
  122CHL1   H3'15218   2.488   5.924  12.732 -1.8645  1.6768 -2.0930
  122CHL1    C415219   2.371   5.655  12.861  0.8818 -0.3407 -0.4885
  122CHL1   H4A15220   2.265   5.679  12.840  0.9904  0.2284 -0.3901
  122CHL1   H4B15221   2.407   5.592  12.777  0.0804 -1.1408 -0.2503
  122CHL1    C515222   2.389   5.596  12.997 -0.1061  0.1482  0.0564
  122CHL1    C615223   2.432   5.464  12.998  0.1731  0.1694 -0.6005
  122CHL1    H615224   2.457   5.410  12.905  0.7212 -0.6897  0.0417
  122CHL1    C715225   2.437   5.388  13.128  0.0094  0.2781  0.7254
  122CHL1   H7A15226   2.404   5.283  13.113  0.4885 -0.1393  2.3488
  122CHL1   H7B15227   2.539   5.376  13.170  0.2357  1.5832  0.5971
  122CHL1    C815228   2.357   5.456  13.239 -0.2596  0.1255  0.5073
  122CHL1    H815229   2.252   5.451  13.203  0.6336  0.1487 -2.3195
  122CHL1   C1415230   2.374   5.383  13.372 -0.1040 -0.3642 -0.4133
  122CHL1   H1415231   2.484   5.386  13.389  0.1394  2.0337 -2.0357
  122CHL1   C1515232   2.320   5.238  13.374 -0.3076 -0.1341 -0.1287
  122CHL1  H15A15233   2.219   5.239  13.328 -0.5666  0.6864  0.4295
  122CHL1  H15B15234   2.384   5.173  13.311 -1.2505 -1.5857  0.3763
  122CHL1   C1615235   2.306   5.203  13.519 -0.4128  0.3611  0.1273
  122CHL1  H16A15236   2.202   5.167  13.537  0.8740 -3.3036  1.2122
  122CHL1  H16B15237   2.378   5.124  13.548 -1.0452 -0.6162 -0.9016
  122CHL1   C1715238   2.321   5.337  13.596  0.6959 -0.7012  0.2136
  122CHL1   H1715239   2.427   5.341  13.630  1.0007 -1.0171 -0.6801
  122CHL1   C1315240   2.311   5.450  13.489  0.0125 -0.0133 -0.4110
  122CHL1   C1815241   2.158   5.479  13.462  0.4682 -0.1300 -0.2876
  122CHL1  H18A15242   2.098   5.396  13.420  0.2527 -0.3242  0.3798
  122CHL1  H18B15243   2.107   5.505  13.558  0.6609  1.7091 -0.6447
  122CHL1  H18C15244   2.149   5.553  13.380  0.3259  1.4534  1.0921
  122CHL1   C1215245   2.391   5.575  13.517 -0.2625 -0.1165 -0.0077
  122CHL1  H12A15246   2.350   5.620  13.611 -1.6393 -4.0077  1.4755
  122CHL1  H12B15247   2.494   5.550  13.552 -0.4218  0.1353  0.6701
  122CHL1   C1115248   2.375   5.673  13.397 -0.3904  0.4966  0.6639
  122CHL1  H11A15249   2.281   5.731  13.412 -0.6048  0.3224  0.0417
  122CHL1  H11B15250   2.454   5.751  13.396 -0.9740  1.1359 -1.5460
  122CHL1    C915251   2.395   5.606  13.259  0.0585  0.0371 -0.2660
  122CHL1    H915252   2.505   5.588  13.256  0.0562 -0.1733  0.7425
  122CHL1   C1015253   2.353   5.682  13.127 -0.2862 -0.2937  0.1601
  122CHL1   C1915254   2.203   5.721  13.150 -0.0419  0.3588 -0.2442
  122CHL1  H19A15255   2.156   5.759  13.057 -0.7161 -1.6855 -0.7883
  122CHL1  H19B15256   2.155   5.627  13.184  0.4000  0.1720 -0.1245
  122CHL1  H19C15257   2.191   5.798  13.229 -2.0566 -0.3097  0.1602
  122CHL1    C115258   2.436   5.813  13.116 -0.4824  0.4856 -0.3096
  122CHL1   H1A15259   2.401   5.881  13.196  0.2479  2.4413 -1.5951
  122CHL1   H1B15260   2.544   5.793  13.135 -0.3772 -0.0963 -1.4139
  122CHL1    C215261   2.414   5.879  12.980 -0.0014  0.3849  0.2527
  122CHL1   H2A15262   2.477   5.970  12.978 -0.7155  0.9647  2.4442
  122CHL1   H2B15263   2.306   5.896  12.966 -0.2116 -1.7018 -1.1262
  122CHL1   C2015264   2.234   5.338  13.729 -0.1493 -0.8617  0.5815
  122CHL1   H2015265   2.130   5.351  13.693 -0.2242 -4.3806 -0.9269
  122CHL1   C2115266   2.275   5.448  13.838 -0.0679  0.2373  0.6065
  122CHL1  H21A15267   2.374   5.427  13.883 -0.0223 -0.9876 -0.0133
  122CHL1  H21B15268   2.203   5.456  13.923 -1.5019 -0.3172 -0.5155
  122CHL1  H21C15269   2.281   5.548  13.789 -1.8410 -0.0143 -0.2244
  122CHL1   C2215270   2.242   5.207  13.817  0.7359 -0.5001  0.2235
  122CHL1  H22A15271   2.249   5.108  13.767  0.7229 -2.0935  3.1752
  122CHL1  H22B15272   2.324   5.218  13.891  0.3708  0.1691  0.5436
  122CHL1   C2315273   2.123   5.181  13.909  0.0538  0.1591  0.8414
  122CHL1  H23A15274   2.154   5.100  13.979 -1.4809 -0.9314  0.3069
  122CHL1  H23B15275   2.091   5.272  13.965 -0.2274  2.6633 -3.0585
  122CHL1   C2415276   1.999   5.130  13.837  0.1201 -0.3986 -0.3526
  122CHL1  H24A15277   1.943   5.213  13.789 -1.6488 -0.8211  0.8640
  122CHL1  H24B15278   2.004   5.050  13.760 -1.5699  0.4883 -1.4576
  122CHL1   C2515279   1.893   5.075  13.942  0.0729  0.0740 -0.0362
  122CHL1   H2515280   1.938   4.985  13.987  0.6745  0.8822  1.0124
  122CHL1   C2615281   1.856   5.182  14.047 -0.3216 -0.1853 -0.5943
  122CHL1  H26A15282   1.814   5.277  14.009 -0.0901  1.4597  2.8719
  122CHL1  H26B15283   1.782   5.140  14.118  0.0459 -0.8334 -0.5837
  122CHL1  H26C15284   1.943   5.206  14.113 -1.9457  2.3512  0.7682
  122CHL1   C2715285   1.766   5.016  13.873 -0.0661 -0.2649  0.0492
  122CHL1  H27A15286   1.796   4.943  13.794 -0.2769  0.0475 -0.3197
  122CHL1  H27B15287   1.696   4.980  13.952 -0.0819  1.2444  0.7553
  122CHL1  H27C15288   1.719   5.098  13.814 -0.5502  0.8430  1.8978
  123CHL1    C315289   4.794   3.281  12.250  0.2302 -0.1000  0.1969
  123CHL1    H315290   4.726   3.368  12.254  2.3571  1.6709 -0.6595
  123CHL1    O315291   4.826   3.240  12.117  0.2596 -0.2318  0.1707
  123CHL1   H3'15292   4.892   3.171  12.129 -0.4153 -0.7130  1.2933
  123CHL1    C415293   4.918   3.317  12.338 -0.0446  0.7192  0.2815
  123CHL1   H4A15294   4.995   3.239  12.324 -1.4657 -0.9275  1.1790
  123CHL1   H4B15295   4.949   3.415  12.296 -1.7919  0.9781 -0.5314
  123CHL1    C515296   4.874   3.335  12.485 -0.1973 -0.8414 -0.6604
  123CHL1    C615297   4.890   3.452  12.554  0.1225 -0.4306  0.4918
  123CHL1    H615298   4.925   3.541  12.501 -1.7398 -0.6589 -1.2757
  123CHL1    C715299   4.864   3.474  12.699  0.0899 -0.0832 -0.7243
  123CHL1   H7A15300   4.954   3.526  12.739 -0.9703  0.1011  1.6292
  123CHL1   H7B15301   4.778   3.544  12.711 -0.0381 -0.2464 -0.6938
  123CHL1    C815302   4.846   3.334  12.771 -0.3291 -0.0659  0.8252
  123CHL1    H815303   4.946   3.288  12.785  0.3898  0.9744 -0.6619
  123CHL1   C1415304   4.788   3.349  12.915 -0.4495  0.0692 -0.2934
  123CHL1   H1415305   4.687   3.390  12.894 -0.3438  0.7329  0.4562
  123CHL1   C1515306   4.851   3.449  13.010  0.0437  0.0111  1.0560
  123CHL1  H15A15307   4.962   3.452  13.009  0.0712 -0.8382  1.1923
  123CHL1  H15B15308   4.810   3.545  12.973 -0.9040 -1.2350 -1.2835
  123CHL1   C1615309   4.803   3.400  13.147 -0.2028 -0.1216  0.0291
  123CHL1  H16A15310   4.891   3.370  13.209 -0.1427 -1.1982 -0.5572
  123CHL1  H16B15311   4.768   3.489  13.204  1.0523  0.5223 -0.1640
  123CHL1   C1715312   4.708   3.281  13.118 -0.6737 -0.1686 -0.0490
  123CHL1   H1715313   4.608   3.315  13.083  0.5344  0.2432 -3.5532
  123CHL1   C1315314   4.762   3.220  12.991 -0.2815  1.2624  0.4209
  123CHL1   C1815315   4.895   3.134  13.018  1.0255 -0.2721  0.2269
  123CHL1  H18A15316   4.968   3.181  13.087 -0.5316  2.7229  0.0064
  123CHL1  H18B15317   4.877   3.030  13.053  2.8078 -0.4569  0.6611
  123CHL1  H18C15318   4.952   3.116  12.924  0.4168  1.1006 -0.4259
  123CHL1   C1215319   4.671   3.127  12.910 -0.4168 -0.5583 -0.2585
  123CHL1  H12A15320   4.676   3.024  12.950  0.0696 -0.8820 -1.1436
  123CHL1  H12B15321   4.568   3.171  12.911  0.5964  2.0753 -1.4992
  123CHL1   C1115322   4.716   3.115  12.769  0.1328 -0.2941 -0.0215
  123CHL1  H11A15323   4.799   3.041  12.776 -0.0884 -0.5096  0.3662
  123CHL1  H11B15324   4.636   3.061  12.714 -0.5523  1.6076 -0.9717
  123CHL1    C915325   4.752   3.244  12.690  0.5212  0.5266  0.7286
  123CHL1    H915326   4.658   3.301  12.679  0.0316 -0.2136  1.0213
  123CHL1   C1015327   4.816   3.208  12.550  0.1677  0.1701 -0.9544
  123CHL1   C1915328   4.929   3.108  12.572  0.5419 -0.2230  0.3650
  123CHL1  H19A15329   4.994   3.136  12.657  1.5941 -2.6820  0.4677
  123CHL1  H19B15330   4.891   3.007  12.598  1.4964 -0.5380  0.5807
  123CHL1  H19C15331   4.999   3.095  12.486  0.7101  2.4374  0.0262
  123CHL1    C115332   4.699   3.170  12.456 -0.2286 -0.4301  0.7008
  123CHL1   H1A15333   4.653   3.076  12.493  0.6826 -0.5667  1.5496
  123CHL1   H1B15334   4.621   3.248  12.468 -1.0248 -1.3931  1.9855
  123CHL1    C215335   4.720   3.161  12.304 -0.2448  0.4724 -0.0406
  123CHL1   H2A15336   4.630   3.142  12.243  0.6451 -0.7743 -1.0285
  123CHL1   H2B15337   4.784   3.071  12.290 -1.5130 -0.7153  1.4522
  123CHL1   C2015338   4.684   3.210  13.248  0.7887 -0.8577 -0.1595
  123CHL1   H2015339   4.780   3.174  13.289  1.1365 -0.0632 -0.2667
  123CHL1   C2115340   4.589   3.088  13.210  0.2977 -0.3184 -0.4372
  123CHL1  H21A15341   4.555   3.037  13.303  1.2645  0.9344  0.6552
  123CHL1  H21B15342   4.662   3.018  13.163  0.8284 -0.5421  0.6817
  123CHL1  H21C15343   4.502   3.104  13.144  0.2079  0.1678 -0.2056
  123CHL1   C2215344   4.615   3.307  13.351  0.4792 -0.0529  0.5322
  123CHL1  H22A15345   4.674   3.401  13.358  0.2927  0.0136  1.3272
  123CHL1  H22B15346   4.514   3.334  13.316  0.6979 -1.0309 -0.9436
  123CHL1   C2315347   4.608   3.251  13.494  1.2710  0.6767  1.2001
  123CHL1  H23A15348   4.577   3.144  13.487 -0.7688  1.2196 -5.6914
  123CHL1  H23B15349   4.713   3.257  13.528  1.5928  2.4950  0.0218
  123CHL1   C2415350   4.513   3.339  13.579 -0.0007  0.0150  0.2557
  123CHL1  H24A15351   4.545   3.444  13.564  0.9394 -0.5869 -2.4592
  123CHL1  H24B15352   4.410   3.324  13.540 -0.2155  2.2201 -0.1444
  123CHL1   C2515353   4.511   3.318  13.731  0.1676 -0.2189  0.0902
  123CHL1   H2515354   4.613   3.339  13.772 -0.5801  0.2612  1.8021
  123CHL1   C2615355   4.420   3.425  13.796 -0.2653  0.0712 -0.3275
  123CHL1  H26A15356   4.465   3.526  13.801  0.1326 -0.1212  0.0300
  123CHL1  H26B15357   4.325   3.434  13.739 -0.2821 -2.6721 -0.8969
  123CHL1  H26C15358   4.390   3.400  13.900 -0.2734 -1.0267 -0.5829
  123CHL1   C2715359   4.465   3.175  13.750  0.5439  0.0616  0.7558
  123CHL1  H27A15360   4.356   3.177  13.732  0.9302  0.1195 -1.8891
  123CHL1  H27B15361   4.516   3.097  13.690  1.5796  0.9800  0.3857
  123CHL1  H27C15362   4.480   3.146  13.856  1.2441  1.4211  1.0625
  124CHL1    C315363   3.532   5.758  13.003 -0.3983  0.6649  0.4896
  124CHL1    H315364   3.617   5.707  13.053  1.1803  1.9384 -0.8213
  124CHL1    O315365   3.555   5.726  12.864 -0.2361  0.1053  0.1470
  124CHL1   H3'15366   3.463   5.724  12.840 -0.3124 -0.4542  0.4661
  124CHL1    C415367   3.410   5.692  13.058  0.8197  0.0570 -0.0357
  124CHL1   H4A15368   3.320   5.717  12.999  1.0860 -1.6848 -1.2750
  124CHL1   H4B15369   3.420   5.582  13.044 -1.7226  0.0036 -2.0460
  124CHL1    C515370   3.388   5.743  13.207 -0.3219 -0.4020  0.2627
  124CHL1    C615371   3.354   5.659  13.302 -0.3969 -0.0375 -0.2676
  124CHL1    H615372   3.343   5.553  13.276 -2.5365 -0.1201  0.6839
  124CHL1    C715373   3.326   5.695  13.444 -0.1226 -0.2429 -0.4850
  124CHL1   H7A15374   3.244   5.635  13.488 -1.5395  1.1089 -1.1893
  124CHL1   H7B15375   3.425   5.680  13.493 -0.0308 -0.5565 -0.7657
  124CHL1    C815376   3.285   5.845  13.458 -0.3808  0.3488 -0.1485
  124CHL1    H815377   3.186   5.860  13.411 -0.6335  1.8918  0.8299
  124CHL1   C1415378   3.280   5.886  13.604  0.4423  0.1246 -0.6263
  124CHL1   H1415379   3.385   5.881  13.640 -0.3308 -0.7861  1.7014
  124CHL1   C1515380   3.196   5.804  13.708 -0.1274  0.4910  0.1564
  124CHL1  H15A15381   3.095   5.800  13.661  0.8980 -1.3346 -2.0924
  124CHL1  H15B15382   3.228   5.699  13.724  0.1604  0.3769 -1.0810
  124CHL1   C1615383   3.219   5.893  13.832 -0.3845 -0.2812 -0.4191
  124CHL1  H16A15384   3.145   5.878  13.913  3.6236 -1.1428  3.5159
  124CHL1  H16B15385   3.314   5.851  13.872  1.3110  2.1149 -1.6547
  124CHL1   C1715386   3.249   6.034  13.777 -0.1841  0.6892 -0.3533
  124CHL1   H1715387   3.358   6.045  13.796  0.2506 -2.8173 -0.1779
  124CHL1   C1315388   3.235   6.030  13.622  0.5844  0.8519 -0.4299
  124CHL1   C1815389   3.082   6.059  13.585 -0.0229  0.5422 -0.4945
  124CHL1  H18A15390   3.058   6.168  13.589 -3.2399 -0.0303 -1.4725
  124CHL1  H18B15391   3.046   6.022  13.487 -0.6572  1.2423 -0.5324
  124CHL1  H18C15392   3.025   6.016  13.670  0.9972 -1.7629 -0.8923
  124CHL1   C1215393   3.330   6.124  13.551 -0.4282  0.0624 -0.0902
  124CHL1  H12A15394   3.300   6.231  13.561  0.2712  0.3559 -0.9873
  124CHL1  H12B15395   3.427   6.111  13.602  0.1025 -0.6803 -1.2644
  124CHL1   C1115396   3.349   6.082  13.403  0.1957 -0.6716  0.6340
  124CHL1  H11A15397   3.248   6.099  13.360 -1.5823 -1.0606  4.2942
  124CHL1  H11B15398   3.422   6.156  13.363 -2.0544  0.3746 -1.8187
  124CHL1    C915399   3.387   5.935  13.388  0.0778  0.5919 -0.3038
  124CHL1    H915400   3.485   5.916  13.436 -0.2248 -1.8585 -0.5148
  124CHL1   C1015401   3.400   5.898  13.233  1.0223 -0.3033  0.1805
  124CHL1   C1915402   3.277   5.955  13.158 -0.2034 -0.2469 -0.7295
  124CHL1  H19A15403   3.255   5.903  13.063  0.6239  0.1125 -1.1239
  124CHL1  H19B15404   3.181   5.956  13.215  0.9232  2.2616  1.3292
  124CHL1  H19C15405   3.296   6.063  13.136  0.3784  0.4328  2.4914
  124CHL1    C115406   3.536   5.949  13.178  0.6479  0.6614  0.0906
  124CHL1   H1A15407   3.536   6.060  13.187 -2.2354  0.6231  1.7768
  124CHL1   H1B15408   3.623   5.902  13.227 -0.9083 -1.4714  0.9510
  124CHL1    C215409   3.553   5.911  13.031 -0.3995  0.4883  0.2807
  124CHL1   H2A15410   3.657   5.937  13.003 -0.1214  0.1048  0.9272
  124CHL1   H2B15411   3.484   5.972  12.968 -0.7473 -0.5718 -0.3942
  124CHL1   C2015412   3.164   6.146  13.851  0.4096 -0.3522  0.0594
  124CHL1   H2015413   3.054   6.137  13.840  0.0534  0.1314  2.5436
  124CHL1   C2115414   3.209   6.285  13.804  0.6387 -0.2649  0.4128
  124CHL1  H21A15415   3.184   6.286  13.696  0.3034 -2.3046  0.4446
  124CHL1  H21B15416   3.313   6.305  13.838 -0.6784  2.1894  3.5885
  124CHL1  H21C15417   3.144   6.361  13.855  0.1013 -3.0852  4.3920
  124CHL1   C2215418   3.183   6.146  14.003 -0.1311 -0.2659 -0.0565
  124CHL1  H22A15419   3.271   6.088  14.038  0.0766 -0.3997 -0.7939
  124CHL1  H22B15420   3.189   6.255  14.026 -1.3136 -0.3165  0.5744
  124CHL1   C2315421   3.066   6.101  14.089  0.1265  0.2461 -0.6992
  124CHL1  H23A15422   2.993   6.185  14.093 -0.8359 -0.4986 -1.9928
  124CHL1  H23B15423   3.022   6.010  14.045  1.0055 -1.3581  1.5622
  124CHL1   C2415424   3.101   6.082  14.238 -0.1892 -0.1415 -0.0081
  124CHL1  H24A15425   3.165   5.993  14.254  0.9016  1.0953  3.3180
  124CHL1  H24B15426   3.163   6.167  14.273 -0.0662 -1.1267  2.3061
  124CHL1   C2515427   2.973   6.081  14.325 -0.2092 -0.4301 -0.0292
  124CHL1   H2515428   2.916   6.175  14.308 -0.5985 -0.3613  1.5089
  124CHL1   C2615429   2.890   5.957  14.295 -0.3410 -0.9524  0.2172
  124CHL1  H26A15430   2.796   5.951  14.354 -1.2744 -1.8827 -1.3100
  124CHL1  H26B15431   2.852   5.963  14.191 -0.9477 -0.5553  0.4527
  124CHL1  H26C15432   2.953   5.868  14.314 -0.0343 -0.4153  1.8722
  124CHL1   C2715433   3.020   6.077  14.471  1.0251  0.3342 -0.3365
  124CHL1  H27A15434   2.938   6.099  14.542  0.5873 -3.2872  0.4783
  124CHL1  H27B15435   3.050   5.973  14.497  0.9795  0.7255  1.3751
  124CHL1  H27C15436   3.115   6.129  14.494  1.7678 -1.2596  0.3332
  125CHL1    C315437   4.330   5.233  12.790  0.0602  0.6393  0.2286
  125CHL1    H315438   4.329   5.123  12.778 -0.8191  0.7189 -0.5497
  125CHL1    O315439   4.341   5.272  12.654  0.0583 -0.4484  0.3912
  125CHL1   H3'15440   4.263   5.247  12.604  1.5944  0.2747 -2.6206
  125CHL1    C415441   4.200   5.274  12.855 -0.2750 -0.4894  0.3624
  125CHL1   H4A15442   4.198   5.383  12.834 -1.1007 -0.5805 -0.0809
  125CHL1   H4B15443   4.121   5.233  12.789 -0.4019 -1.1932  0.9358
  125CHL1    C515444   4.189   5.232  12.999 -0.3597  0.1557 -0.4996
  125CHL1    C615445   4.085   5.170  13.051 -0.1497 -0.6262  0.5278
  125CHL1    H615446   3.989   5.160  12.999 -0.6438  3.1560  0.4786
  125CHL1    C715447   4.090   5.124  13.196 -0.1721  0.3278 -0.0395
  125CHL1   H7A15448   3.990   5.115  13.243  0.9998  0.4273  2.6595
  125CHL1   H7B15449   4.131   5.022  13.184  1.0137  0.5719  1.6508
  125CHL1    C815450   4.195   5.190  13.294 -0.4044  0.7162  0.5586
  125CHL1    H815451   4.165   5.296  13.309  2.0507  1.7598 -1.2328
  125CHL1   C1415452   4.200   5.123  13.432  0.1572 -0.0522  0.1471
  125CHL1   H1415453   4.235   5.018  13.422 -0.4217 -0.1717 -0.7337
  125CHL1   C1515454   4.071   5.122  13.511  0.3773  0.5212 -0.2909
  125CHL1  H15A15455   4.022   5.221  13.502  2.0094  1.5755  1.5453
  125CHL1  H15B15456   3.995   5.045  13.487  0.0886  0.8959 -0.6076
  125CHL1   C1615457   4.115   5.106  13.653 -0.5655  0.1432 -0.3537
  125CHL1  H16A15458   4.082   5.198  13.706 -0.1581  0.7318 -1.1152
  125CHL1  H16B15459   4.064   5.020  13.702 -0.3595  0.5385  0.5771
  125CHL1   C1715460   4.268   5.096  13.659 -0.8914  0.7399  0.0426
  125CHL1   H1715461   4.295   4.990  13.638  0.6423  1.1790 -0.3882
  125CHL1   C1315462   4.309   5.175  13.533 -0.5058 -0.2967 -0.2264
  125CHL1   C1815463   4.289   5.327  13.557  0.0449  0.0467 -0.1041
  125CHL1  H18A15464   4.362   5.358  13.634 -2.4765  1.9537  1.6966
  125CHL1  H18B15465   4.307   5.377  13.460 -0.3180  1.2160  0.4109
  125CHL1  H18C15466   4.183   5.336  13.590  0.0101 -1.5085  0.2869
  125CHL1   C1215467   4.451   5.156  13.456  0.4893  0.2370 -0.1191
  125CHL1  H12A15468   4.524   5.204  13.524 -0.3498  0.3577  0.7198
  125CHL1  H12B15469   4.467   5.046  13.446  0.2637 -0.0098  1.8688
  125CHL1   C1115470   4.455   5.224  13.314 -0.7139  0.6413 -0.9552
  125CHL1  H11A15471   4.463   5.333  13.333  0.0943  0.4644 -0.2166
  125CHL1  H11B15472   4.548   5.189  13.263  1.0222  1.8447  1.1947
  125CHL1    C915473   4.330   5.191  13.223  0.1167  0.5793  0.2978
  125CHL1    H915474   4.343   5.084  13.196  0.7268  0.8895 -0.6992
  125CHL1   C1015475   4.321   5.266  13.088  0.2808 -0.0744 -0.3114
  125CHL1   C1915476   4.325   5.418  13.119  0.3662  0.2727  0.2173
  125CHL1  H19A15477   4.335   5.474  13.024  2.1567 -2.9388 -1.6501
  125CHL1  H19B15478   4.234   5.458  13.169 -2.2494 -0.3512 -3.6292
  125CHL1  H19C15479   4.419   5.436  13.176  0.8208 -0.3041 -0.3425
  125CHL1    C115480   4.447   5.220  13.016 -0.1543 -0.6276 -0.0669
  125CHL1   H1A15481   4.535   5.256  13.074 -0.8459  0.6363  0.2526
  125CHL1   H1B15482   4.448   5.110  13.007 -2.7700 -0.9655  2.4494
  125CHL1    C215483   4.456   5.284  12.873 -0.2602 -0.0707 -0.4887
  125CHL1   H2A15484   4.550   5.252  12.824  0.6048  1.7586 -0.1082
  125CHL1   H2B15485   4.448   5.394  12.884 -1.2729  0.0663 -2.3062
  125CHL1   C2015486   4.331   5.128  13.795  1.0909 -0.3447  0.0957
  125CHL1   H2015487   4.317   5.235  13.820  1.0851 -0.1484 -0.7269
  125CHL1   C2115488   4.486   5.117  13.795  0.7899 -0.4398 -0.2048
  125CHL1  H21A15489   4.523   5.081  13.893  0.0704 -0.0448  0.2207
  125CHL1  H21B15490   4.530   5.214  13.762 -3.0668  0.4859 -3.4719
  125CHL1  H21C15491   4.519   5.045  13.717 -1.3081 -1.4476 -0.2210
  125CHL1   C2215492   4.269   5.039  13.911 -0.1208 -0.0852  0.2936
  125CHL1  H22A15493   4.162   5.026  13.882 -0.2243  0.5028  0.4037
  125CHL1  H22B15494   4.330   4.947  13.913 -0.1022 -0.1106 -0.7793
  125CHL1   C2315495   4.264   5.128  14.034 -0.2366 -0.7651 -0.4974
  125CHL1  H23A15496   4.366   5.170  14.046 -0.5375 -0.0920 -0.2243
  125CHL1  H23B15497   4.185   5.206  14.022 -0.9463 -1.2935  0.5117
  125CHL1   C2415498   4.242   5.040  14.153  0.0498  0.3773 -0.5352
  125CHL1  H24A15499   4.169   4.958  14.133  2.4979 -1.9728 -0.4672
  125CHL1  H24B15500   4.327   4.970  14.166 -0.2216  0.1966  0.3274
  125CHL1   C2515501   4.214   5.107  14.296  0.3352 -0.5314  0.4882
  125CHL1   H2515502   4.294   5.178  14.327  0.3074 -0.9556  1.5746
  125CHL1   C2615503   4.094   5.203  14.294 -0.1638  0.8455  0.1111
  125CHL1  H26A15504   4.094   5.282  14.216  1.0092 -0.0228 -0.7932
  125CHL1  H26B15505   4.007   5.140  14.267  0.6125 -0.8707  1.4109
  125CHL1  H26C15506   4.090   5.240  14.399  0.4997 -0.4826  0.6252
  125CHL1   C2715507   4.202   4.992  14.399  0.6044  0.3223 -0.6228
  125CHL1  H27A15508   4.296   4.932  14.397  1.9675  2.2837  0.7270
  125CHL1  H27B15509   4.171   5.025  14.500 -1.2327 -0.6159 -0.8364
  125CHL1  H27C15510   4.112   4.935  14.369 -1.5205  2.2535  1.6701
  126CHL1    C315511   2.483   6.451  12.978  0.5674 -0.2632  0.2245
  126CHL1    H315512   2.546   6.540  12.998 -0.7446  0.2390  2.4229
  126CHL1    O315513   2.455   6.435  12.843  0.0563 -0.0632  0.0907
  126CHL1   H3'15514   2.379   6.377  12.845 -0.3014  0.3444 -0.9306
  126CHL1    C415515   2.557   6.332  13.036 -0.2992  0.3618 -0.1666
  126CHL1   H4A15516   2.493   6.242  13.021 -0.1954  0.2300  0.1785
  126CHL1   H4B15517   2.648   6.318  12.973  0.2627 -1.7965  1.0015
  126CHL1    C515518   2.589   6.356  13.179 -0.9337  0.0515  0.1004
  126CHL1    C615519   2.715   6.349  13.221 -0.5107  0.3900 -0.4332
  126CHL1    H615520   2.795   6.325  13.150 -1.5495  1.3420 -1.9886
  126CHL1    C715521   2.754   6.340  13.368  0.3804  1.5610 -0.1406
  126CHL1   H7A15522   2.819   6.251  13.383  0.6883  1.5126 -1.6309
  126CHL1   H7B15523   2.789   6.435  13.413 -0.4653  1.3477  1.0167
  126CHL1    C815524   2.630   6.323  13.461  0.4791 -0.1785 -0.2601
  126CHL1    H815525   2.601   6.216  13.447  0.6055 -0.4061  1.1228
  126CHL1   C1415526   2.673   6.337  13.609  0.3614  0.5087  0.4892
  126CHL1   H1415527   2.703   6.443  13.626 -0.1232  0.6227  0.6565
  126CHL1   C1515528   2.794   6.258  13.671  0.1626  0.7769 -0.3403
  126CHL1  H15A15529   2.791   6.152  13.640 -2.7774  0.8441 -0.5841
  126CHL1  H15B15530   2.885   6.312  13.637 -0.6107  0.5352 -2.9858
  126CHL1   C1615531   2.769   6.281  13.826 -0.2221  0.5005 -0.0649
  126CHL1  H16A15532   2.784   6.185  13.881  0.2620  0.3303 -0.4876
  126CHL1  H16B15533   2.851   6.346  13.865  0.7423 -0.8184  0.1930
  126CHL1   C1715534   2.630   6.343  13.841 -0.3438  0.0927  0.4842
  126CHL1   H1715535   2.647   6.452  13.849 -0.1877 -0.0642  2.8122
  126CHL1   C1315536   2.555   6.321  13.705 -0.0300  0.3526 -0.3116
  126CHL1   C1815537   2.490   6.185  13.699  0.0240 -0.0299 -0.0062
  126CHL1  H18A15538   2.559   6.102  13.728  0.4391  0.9162  1.8524
  126CHL1  H18B15539   2.398   6.176  13.761 -0.8531 -0.2824 -1.3099
  126CHL1  H18C15540   2.447   6.163  13.599 -1.5654 -1.0774  0.8676
  126CHL1   C1215541   2.453   6.430  13.665  0.2646  0.0109 -0.2580
  126CHL1  H12A15542   2.375   6.434  13.744  1.2928  0.2947  0.7726
  126CHL1  H12B15543   2.503   6.530  13.665  0.3681  0.1256 -4.1308
  126CHL1   C1115544   2.394   6.409  13.527  0.1212  0.4308 -0.2947
  126CHL1  H11A15545   2.326   6.322  13.515  0.5557 -0.2113  1.5046
  126CHL1  H11B15546   2.329   6.497  13.503 -1.0459 -0.7071 -1.4943
  126CHL1    C915547   2.508   6.409  13.418  0.3621  0.2219 -0.3461
  126CHL1    H915548   2.542   6.515  13.421  1.6543 -0.1575 -0.8682
  126CHL1   C1015549   2.469   6.379  13.268  0.4145  0.4085 -0.0076
  126CHL1   C1915550   2.389   6.246  13.269  0.2576 -0.0673  0.2341
  126CHL1  H19A15551   2.290   6.263  13.316 -0.6142 -0.0371 -1.5392
  126CHL1  H19B15552   2.360   6.200  13.172  0.7580  0.4420 -0.1627
  126CHL1  H19C15553   2.449   6.174  13.329 -0.1666 -0.1113  0.6102
  126CHL1    C115554   2.384   6.500  13.212  0.3251 -0.6723  0.0952
  126CHL1   H1A15555   2.293   6.516  13.275  1.9992  2.1515  1.9807
  126CHL1   H1B15556   2.442   6.591  13.236 -0.8625 -0.1318  1.0771
  126CHL1    C215557   2.356   6.475  13.058 -0.1070 -0.7646  0.1063
  126CHL1   H2A15558   2.295   6.560  13.021 -0.4509 -0.6215  0.9792
  126CHL1   H2B15559   2.288   6.388  13.041  1.0231 -1.6668  0.0728
  126CHL1   C2015560   2.575   6.296  13.974  0.1730  0.6668  0.7021
  126CHL1   H2015561   2.545   6.190  13.963 -2.5051  0.9799  3.4101
  126CHL1   C2115562   2.448   6.366  14.001  0.3403 -0.7645 -0.3766
  126CHL1  H21A15563   2.410   6.334  14.100 -2.6539 -1.0174 -1.4974
  126CHL1  H21B15564   2.365   6.348  13.929 -0.4751  0.3126  0.2730
  126CHL1  H21C15565   2.465   6.475  13.991 -0.2896 -0.6281 -0.0050
  126CHL1   C2215566   2.663   6.304  14.098 -0.7286  0.4234  0.4407
  126CHL1  H22A15567   2.612   6.264  14.188 -1.5321  0.2599 -0.0738
  126CHL1  H22B15568   2.757   6.246  14.082 -0.9113  0.7007 -1.9535
  126CHL1   C2315569   2.720   6.441  14.131  0.3197 -0.3208 -0.4595
  126CHL1  H23A15570   2.761   6.494  14.042  0.8721 -0.7579 -0.4693
  126CHL1  H23B15571   2.634   6.506  14.157  1.1425  1.3703 -1.7469
  126CHL1   C2415572   2.828   6.434  14.244  0.7133 -0.5983  0.5059
  126CHL1  H24A15573   2.785   6.375  14.327  0.3231 -0.8852  0.1033
  126CHL1  H24B15574   2.913   6.378  14.199  0.3006 -0.9668  0.1749
  126CHL1   C2515575   2.882   6.579  14.292 -0.0297  0.2513  0.6273
  126CHL1   H2515576   2.887   6.650  14.206  0.0470  1.8488  1.9083
  126CHL1   C2615577   2.790   6.648  14.389 -0.3765 -0.2786 -0.3585
  126CHL1  H26A15578   2.703   6.690  14.335  0.6816  1.0578 -1.0704
  126CHL1  H26B15579   2.762   6.568  14.462  1.5554 -0.8755 -0.2055
  126CHL1  H26C15580   2.848   6.732  14.432  0.5657  0.0102 -2.1333
  126CHL1   C2715581   3.023   6.564  14.353 -0.3628  0.2099  0.7140
  126CHL1  H27A15582   3.082   6.657  14.365 -0.4548  0.7621 -2.3009
  126CHL1  H27B15583   3.003   6.521  14.454  3.2017  0.0128  1.4485
  126CHL1  H27C15584   3.082   6.505  14.279  0.0664  3.1100 -1.4149
  127CHL1    C315585   4.576   7.138  12.854  0.1351 -0.5070  0.5605
  127CHL1    H315586   4.645   7.219  12.884 -1.7913  2.2837 -1.9525
  127CHL1    O315587   4.633   7.081  12.749 -0.2180  0.0727  0.3369
  127CHL1   H3'15588   4.562   7.055  12.690 -1.2819  0.3452  1.4781
  127CHL1    C415589   4.564   7.040  12.974  0.0474 -0.3182 -0.1086
  127CHL1   H4A15590   4.514   6.949  12.934 -0.9243  1.2251 -2.6620
  127CHL1   H4B15591   4.669   7.019  13.004  0.0517 -0.2996 -0.1116
  127CHL1    C515592   4.498   7.118  13.089  0.2320  0.2196 -0.3877
  127CHL1    C615593   4.556   7.138  13.212  0.6646 -0.6747 -0.1087
  127CHL1    H615594   4.653   7.089  13.229  0.0839 -1.4757  1.0326
  127CHL1    C715595   4.493   7.200  13.334  0.4538 -0.4529 -0.2203
  127CHL1   H7A15596   4.529   7.147  13.424 -0.2860  0.3060  0.5449
  127CHL1   H7B15597   4.528   7.305  13.338  0.2931 -0.3749 -0.7208
  127CHL1    C815598   4.338   7.197  13.318 -0.2577 -0.1149  0.5525
  127CHL1    H815599   4.295   7.094  13.323 -0.0431 -0.1441  2.1293
  127CHL1   C1415600   4.274   7.285  13.422  0.1605 -0.7538  0.2965
  127CHL1   H1415601   4.303   7.387  13.389 -0.9101 -0.7367 -0.6865
  127CHL1   C1515602   4.329   7.277  13.565 -0.7755 -0.6969  0.3917
  127CHL1  H15A15603   4.330   7.171  13.598  1.0109 -0.1005  2.5021
  127CHL1  H15B15604   4.428   7.324  13.582 -1.2399  0.3926  0.1728
  127CHL1   C1615605   4.218   7.346  13.647  0.2446  0.0655 -0.1482
  127CHL1  H16A15606   4.187   7.271  13.723 -0.5633 -0.5411 -1.0521
  127CHL1  H16B15607   4.257   7.431  13.706  0.7207  0.0807 -0.4812
  127CHL1   C1715608   4.102   7.387  13.542  0.0560  0.7827  0.1877
  127CHL1   H1715609   4.123   7.493  13.514  0.0736  1.1290  1.4641
  127CHL1   C1315610   4.122   7.289  13.425  0.1129 -0.7390 -0.6622
  127CHL1   C1815611   4.061   7.153  13.461 -0.3598  0.1433  0.1336
  127CHL1  H18A15612   4.093   7.064  13.402  0.7264  0.2851  0.4933
  127CHL1  H18B15613   4.108   7.133  13.560  0.9270  0.1183 -0.4578
  127CHL1  H18C15614   3.952   7.173  13.457 -0.2424  0.8186  0.2736
  127CHL1   C1215615   4.080   7.348  13.287 -0.5934 -0.4011 -0.4541
  127CHL1  H12A15616   3.970   7.342  13.285 -0.7037 -0.2421  2.0760
  127CHL1  H12B15617   4.116   7.453  13.282 -1.9522  0.0591 -0.9413
  127CHL1   C1115618   4.147   7.266  13.171 -0.1402 -0.0243  0.4740
  127CHL1  H11A15619   4.095   7.169  13.185  2.0346 -1.3490 -0.0894
  127CHL1  H11B15620   4.122   7.324  13.080 -0.4526  2.2669  1.9449
  127CHL1    C915621   4.301   7.244  13.175  0.3423  0.4547 -0.3205
  127CHL1    H915622   4.352   7.342  13.164 -0.1193  0.8252  0.7169
  127CHL1   C1015623   4.358   7.160  13.056 -0.5376 -0.2396 -0.4737
  127CHL1   C1915624   4.267   7.036  13.038 -0.2919  0.1350 -0.0933
  127CHL1  H19A15625   4.160   7.061  13.018 -0.0301  0.1103 -1.6294
  127CHL1  H19B15626   4.276   6.981  12.942 -1.6751 -0.6932  0.2210
  127CHL1  H19C15627   4.277   6.969  13.126 -1.7978 -0.9586 -0.7127
  127CHL1    C115628   4.355   7.255  12.934  0.4601 -0.5507  0.6622
  127CHL1   H1A15629   4.251   7.280  12.905  0.4027  0.4636  1.6509
  127CHL1   H1B15630   4.400   7.355  12.955 -1.6287  0.6970 -0.4808
  127CHL1    C215631   4.441   7.214  12.814 -0.0194 -0.1259 -0.3062
  127CHL1   H2A15632   4.458   7.299  12.745  0.5081 -1.5175 -1.9907
  127CHL1   H2B15633   4.383   7.132  12.765  1.9570 -0.4051 -2.3535
  127CHL1   C2015634   3.967   7.390  13.622 -0.4632 -0.2944  0.3582
  127CHL1   H2015635   3.934   7.287  13.650 -1.8573  0.6092  2.2587
  127CHL1   C2115636   3.860   7.438  13.523  0.3681 -0.2920 -0.4047
  127CHL1  H21A15637   3.764   7.454  13.576  1.2847  1.5234  0.7928
  127CHL1  H21B15638   3.833   7.365  13.443  0.4950 -0.6008 -0.1662
  127CHL1  H21C15639   3.899   7.533  13.482  0.3433 -0.9642 -2.0710
  127CHL1   C2215640   3.963   7.486  13.743 -0.2907  0.6616 -0.1578
  127CHL1  H22A15641   4.049   7.558  13.745  0.2986 -0.0497  0.6784
  127CHL1  H22B15642   3.873   7.547  13.719 -1.0499 -0.9363 -1.5759
  127CHL1   C2315643   3.950   7.418  13.878  0.5331  0.5275 -0.2572
  127CHL1  H23A15644   3.844   7.387  13.887  0.5600  0.7579  1.1705
  127CHL1  H23B15645   4.012   7.326  13.871  1.2104  0.9984 -0.5808
  127CHL1   C2415646   3.990   7.514  13.994  0.0118  0.1960  0.1151
  127CHL1  H24A15647   4.095   7.552  13.992  0.2015 -0.2952 -2.4969
  127CHL1  H24B15648   3.921   7.600  13.992 -1.0408 -0.6042  0.9539
  127CHL1   C2515649   3.959   7.445  14.133 -0.3589  0.3594 -0.5611
  127CHL1   H2515650   3.852   7.418  14.147 -0.9355  2.8112  0.3214
  127CHL1   C2615651   4.046   7.328  14.158  0.3105  0.4081 -0.1253
  127CHL1  H26A15652   4.152   7.361  14.163  0.4695 -0.0672 -0.3262
  127CHL1  H26B15653   4.024   7.267  14.248 -1.3816  2.4429  0.9200
  127CHL1  H26C15654   4.039   7.256  14.073 -0.5653  0.7802 -0.3795
  127CHL1   C2715655   3.983   7.548  14.244 -0.2778 -0.9798 -0.2305
  127CHL1  H27A15656   3.903   7.625  14.233  3.1045  2.5661 -2.6170
  127CHL1  H27B15657   3.986   7.495  14.341  1.1646 -1.0366 -0.2786
  127CHL1  H27C15658   4.081   7.600  14.234 -0.5570 -0.7014 -2.0040
  128CHL1    C315659   2.937   2.414  13.072  0.5877  0.4501  0.0234
  128CHL1    H315660   3.038   2.422  13.117 -0.1280 -0.7299  1.9552
  128CHL1    O315661   2.937   2.353  12.937  0.4029  0.7245 -0.4194
  128CHL1   H3'15662   2.848   2.366  12.906  0.4043 -1.3734 -1.4955
  128CHL1    C415663   2.852   2.325  13.160 -0.2397 -0.1379  0.0949
  128CHL1   H4A15664   2.753   2.319  13.111 -0.5644  0.2105  0.6953
  128CHL1   H4B15665   2.892   2.221  13.168 -1.3734 -0.5748  0.2051
  128CHL1    C515666   2.843   2.388  13.301 -0.1464  0.3008 -0.4670
  128CHL1    C615667   2.882   2.314  13.405 -0.0997 -0.2101 -0.4408
  128CHL1    H615668   2.916   2.209  13.403 -1.6665 -0.8828  2.6044
  128CHL1    C715669   2.870   2.361  13.547 -0.3978 -0.1531  0.1073
  128CHL1   H7A15670   2.831   2.286  13.620  0.6809  1.2549  2.2579
  128CHL1   H7B15671   2.968   2.395  13.587 -1.1050 -0.4551  2.2808
  128CHL1    C815672   2.771   2.476  13.562  0.4237 -0.6581  0.5567
  128CHL1    H815673   2.667   2.441  13.548  0.7821 -1.8997  0.8748
  128CHL1   C1415674   2.781   2.544  13.696  0.1526 -0.6170  0.2565
  128CHL1   H1415675   2.883   2.587  13.699  1.4391 -3.2018 -1.6718
  128CHL1   C1515676   2.776   2.454  13.822  0.1669 -0.2346  0.2393
  128CHL1  H15A15677   2.685   2.391  13.817  0.7075 -1.2637  2.1349
  128CHL1  H15B15678   2.861   2.383  13.825 -0.1349 -0.6070  2.9595
  128CHL1   C1615679   2.760   2.558  13.936  0.0181  0.5342  0.4619
  128CHL1  H16A15680   2.673   2.520  13.996  0.2210 -0.8646 -0.0944
  128CHL1  H16B15681   2.852   2.566  13.998  0.1806  1.3666  0.1216
  128CHL1   C1715682   2.731   2.696  13.876 -0.0150  0.3624  0.4407
  128CHL1   H1715683   2.828   2.745  13.854  1.3013 -2.1965  0.1756
  128CHL1   C1315684   2.684   2.662  13.733  0.0196 -0.0867  0.4036
  128CHL1   C1815685   2.535   2.619  13.739 -0.7713  0.2066 -0.1807
  128CHL1  H18A15686   2.513   2.552  13.825  0.1746  1.8155  1.3729
  128CHL1  H18B15687   2.474   2.711  13.747 -0.9144  0.1503 -0.5912
  128CHL1  H18C15688   2.510   2.571  13.642 -0.1513  2.6765 -1.6605
  128CHL1   C1215689   2.702   2.777  13.630 -0.6408  0.3278 -0.5044
  128CHL1  H12A15690   2.626   2.858  13.636 -1.4037 -0.3272 -1.1799
  128CHL1  H12B15691   2.801   2.826  13.644  0.5972 -1.2286 -2.9871
  128CHL1   C1115692   2.702   2.717  13.485 -1.2889 -0.7381 -0.3361
  128CHL1  H11A15693   2.599   2.684  13.461 -1.0517 -1.7736  0.0285
  128CHL1  H11B15694   2.732   2.786  13.403 -2.3826 -1.5869 -1.4780
  128CHL1    C915695   2.792   2.591  13.460  0.2146  0.0495 -0.1856
  128CHL1    H915696   2.893   2.633  13.481 -0.9653  1.8674  2.3297
  128CHL1   C1015697   2.785   2.530  13.316  0.2890 -0.7674 -0.4601
  128CHL1   C1915698   2.635   2.521  13.280 -0.0117 -0.1134  0.0426
  128CHL1  H19A15699   2.579   2.615  13.263  1.4250  0.3602 -2.5836
  128CHL1  H19B15700   2.628   2.474  13.180  0.2400 -1.7284  0.7509
  128CHL1  H19C15701   2.595   2.451  13.356  0.7533  2.1064  2.6650
  128CHL1    C115702   2.861   2.620  13.210  1.0114  0.1137  0.2664
  128CHL1   H1A15703   2.802   2.714  13.203  0.0742 -0.5160 -0.4558
  128CHL1   H1B15704   2.960   2.645  13.255  0.6842  0.4953  0.7766
  128CHL1    C215705   2.881   2.556  13.070 -0.2507  0.1276 -0.3965
  128CHL1   H2A15706   2.940   2.615  12.997 -1.8554 -0.1119 -1.9491
  128CHL1   H2B15707   2.783   2.560  13.018 -0.4940  1.3997  0.1174
  128CHL1   C2015708   2.648   2.784  13.975 -0.4987 -0.1991 -0.3036
  128CHL1   H2015709   2.541   2.755  13.979 -0.5047 -0.1405 -0.0108
  128CHL1   C2115710   2.651   2.936  13.913  0.0838  0.1250 -0.9212
  128CHL1  H21A15711   2.587   3.000  13.977  0.4518  0.5896 -1.0141
  128CHL1  H21B15712   2.605   2.937  13.812  0.6783 -2.0707 -1.2753
  128CHL1  H21C15713   2.749   2.988  13.910 -0.5108  1.2475 -1.5093
  128CHL1   C2215714   2.713   2.778  14.114 -0.6020 -0.7662  0.2777
  128CHL1  H22A15715   2.720   2.674  14.153  0.3098 -0.5143  0.8225
  128CHL1  H22B15716   2.810   2.832  14.120 -0.5481 -0.6574 -1.3037
  128CHL1   C2315717   2.616   2.838  14.225  0.6495  0.6913 -0.0312
  128CHL1  H23A15718   2.580   2.938  14.193 -0.9805  0.6412  1.4631
  128CHL1  H23B15719   2.528   2.771  14.228  1.0823  0.1388  1.1458
  128CHL1   C2415720   2.680   2.849  14.363  0.8959  0.4503  0.2828
  128CHL1  H24A15721   2.718   2.747  14.389 -0.3747 -0.2128 -0.3754
  128CHL1  H24B15722   2.766   2.919  14.368  1.8513 -0.6733  0.2159
  128CHL1   C2515723   2.589   2.907  14.478  0.5226 -0.4354 -0.1971
  128CHL1   H2515724   2.556   3.009  14.449 -0.9894 -0.5527  0.9539
  128CHL1   C2615725   2.455   2.825  14.501 -0.1058 -0.4153 -0.2578
  128CHL1  H26A15726   2.391   2.881  14.573 -0.7928 -2.7495  1.0604
  128CHL1  H26B15727   2.390   2.814  14.412  1.4830  0.8627 -1.6452
  128CHL1  H26C15728   2.472   2.721  14.536  0.2895  0.2218  1.6127
  128CHL1   C2715729   2.671   2.928  14.605  0.4408 -0.2342  0.2800
  128CHL1  H27A15730   2.604   2.961  14.686  1.2108  2.6613 -0.1526
  128CHL1  H27B15731   2.726   2.839  14.642  0.9470 -0.8695 -1.8256
  128CHL1  H27C15732   2.743   3.010  14.584  1.3956 -0.1350  3.4022
  129CHL1    C315733   5.668   6.043  12.802  0.3191  0.5551 -0.0702
  129CHL1    H315734   5.665   5.932  12.811  2.1777  0.3345 -1.4957
  129CHL1    O315735   5.649   6.067  12.667  0.5056 -0.0925 -0.0278
  129CHL1   H3'15736   5.650   6.163  12.662  1.6911  0.0595  1.9929
  129CHL1    C415737   5.564   6.110  12.886  0.3501  0.1430 -0.2129
  129CHL1   H4A15738   5.565   6.221  12.877 -1.1233  0.1030 -1.4203
  129CHL1   H4B15739   5.468   6.077  12.839  0.7024 -0.6599 -0.3852
  129CHL1    C515740   5.573   6.076  13.031 -0.4175 -0.0540  0.6393
  129CHL1    C615741   5.477   6.024  13.100  0.0647  0.5599  0.2389
  129CHL1    H615742   5.384   6.002  13.045  1.7356 -0.1490 -2.4933
  129CHL1    C715743   5.482   6.001  13.247  0.4815 -0.0165 -0.5486
  129CHL1   H7A15744   5.390   6.034  13.300  0.5072 -1.0373  0.1592
  129CHL1   H7B15745   5.488   5.896  13.284 -0.1076  0.3946  0.7662
  129CHL1    C815746   5.598   6.084  13.311  0.5195 -0.1703 -0.2885
  129CHL1    H815747   5.564   6.190  13.305  0.9164 -0.0974 -1.3054
  129CHL1   C1415748   5.618   6.041  13.455 -0.2894  0.4518  0.1275
  129CHL1   H1415749   5.639   5.932  13.450 -2.5885  0.0163 -2.2214
  129CHL1   C1515750   5.498   6.058  13.547  0.1285 -0.2199 -0.1035
  129CHL1  H15A15751   5.452   6.158  13.540 -1.2840 -0.7537  1.0049
  129CHL1  H15B15752   5.421   5.980  13.529 -1.9386  1.5739  0.4785
  129CHL1   C1615753   5.557   6.047  13.694 -0.3529 -0.0772  0.3912
  129CHL1  H16A15754   5.501   6.125  13.750  0.5817  1.5972 -0.8916
  129CHL1  H16B15755   5.546   5.945  13.736 -0.6625  0.3495  1.3618
  129CHL1   C1715756   5.712   6.061  13.669  0.2760 -0.8188  0.0431
  129CHL1   H1715757   5.758   5.961  13.680  1.7131 -0.0992  0.8538
  129CHL1   C1315758   5.733   6.109  13.519  0.1918  1.0275 -0.6429
  129CHL1   C1815759   5.723   6.261  13.522 -0.9128 -0.7292  0.3241
  129CHL1  H18A15760   5.630   6.290  13.576 -0.0809 -0.9318  1.9074
  129CHL1  H18B15761   5.804   6.310  13.580 -0.4071 -0.4183 -0.6226
  129CHL1  H18C15762   5.723   6.299  13.418  2.1329  1.3160  0.9491
  129CHL1   C1215763   5.856   6.059  13.447 -0.2930  0.5318 -0.1148
  129CHL1  H12A15764   5.944   6.098  13.504  0.2710  2.5527 -2.1868
  129CHL1  H12B15765   5.858   5.949  13.463 -0.3671  0.6657  0.8830
  129CHL1   C1115766   5.857   6.094  13.301 -0.0154  0.4652  0.0175
  129CHL1  H11A15767   5.883   6.201  13.287 -1.1290  0.5621 -1.4868
  129CHL1  H11B15768   5.942   6.037  13.258  1.6987  2.0655  1.1389
  129CHL1    C915769   5.722   6.069  13.223  0.0797  0.5378 -0.4671
  129CHL1    H915770   5.725   5.959  13.214 -0.2208  0.5171 -0.3199
  129CHL1   C1015771   5.707   6.126  13.088 -0.4105  0.1148 -0.3744
  129CHL1   C1915772   5.729   6.283  13.096 -0.4786  0.2686 -0.5369
  129CHL1  H19A15773   5.834   6.319  13.108 -1.8886  4.1954  1.9091
  129CHL1  H19B15774   5.692   6.330  13.003  0.8798  2.1010 -0.2165
  129CHL1  H19C15775   5.673   6.335  13.176 -0.3510  0.2860 -0.4580
  129CHL1    C115776   5.825   6.074  12.999  0.5734 -0.0548  0.0437
  129CHL1   H1A15777   5.919   6.110  13.046 -0.2218 -0.1650  1.8221
  129CHL1   H1B15778   5.833   5.964  13.014  1.7021  0.1984  1.6641
  129CHL1    C215779   5.808   6.094  12.853 -0.9310  0.2446 -0.8534
  129CHL1   H2A15780   5.887   6.045  12.791 -1.2433 -0.8385 -0.4277
  129CHL1   H2B15781   5.822   6.201  12.829  1.3848  0.6188  1.6777
  129CHL1   C2015782   5.792   6.138  13.788 -0.1990  0.0653 -0.8151
  129CHL1   H2015783   5.786   6.246  13.765  1.5012  0.6439  1.1717
  129CHL1   C2115784   5.940   6.118  13.781 -0.2211 -0.0669 -0.0230
  129CHL1  H21A15785   5.992   6.185  13.854  1.4369  0.0062 -1.2242
  129CHL1  H21B15786   5.980   6.152  13.683  0.5873  3.4742  1.3563
  129CHL1  H21C15787   5.979   6.015  13.793  2.7512  0.7095 -1.9609
  129CHL1   C2215788   5.731   6.098  13.926  0.0362 -0.3765 -0.4911
  129CHL1  H22A15789   5.626   6.136  13.933  1.0384  2.6940 -0.4824
  129CHL1  H22B15790   5.726   5.987  13.929 -0.3501 -0.3672 -0.6192
  129CHL1   C2315791   5.802   6.148  14.056  0.1412 -0.2693 -1.0493
  129CHL1  H23A15792   5.909   6.119  14.043 -0.1348 -1.3923 -0.8928
  129CHL1  H23B15793   5.794   6.258  14.072 -0.8500 -0.4431 -0.2673
  129CHL1   C2415794   5.744   6.077  14.185 -0.6638  0.0532 -0.2459
  129CHL1  H24A15795   5.635   6.099  14.187 -0.8557 -0.7985 -0.8330
  129CHL1  H24B15796   5.758   5.966  14.185  2.1213  0.3301 -1.1551
  129CHL1   C2515797   5.810   6.135  14.314  0.6382  0.0667  0.3110
  129CHL1   H2515798   5.778   6.242  14.317 -0.8457 -0.3667  0.9233
  129CHL1   C2615799   5.743   6.063  14.433 -0.5946  0.7947 -0.0573
  129CHL1  H26A15800   5.764   5.954  14.422  2.5537  1.2239  0.7386
  129CHL1  H26B15801   5.794   6.089  14.528 -0.7334 -0.5099  0.4044
  129CHL1  H26C15802   5.634   6.084  14.434 -0.5322  1.1755 -0.9896
  129CHL1   C2715803   5.959   6.119  14.323  0.3978 -0.0610 -0.2158
  129CHL1  H27A15804   5.981   6.010  14.328 -0.3088 -0.3284 -2.0211
  129CHL1  H27B15805   6.006   6.163  14.233  1.0656  1.4498  0.8429
  129CHL1  H27C15806   5.999   6.168  14.414 -1.2905  0.4005  0.3200
  130CHL1    C315807   3.286   0.753  13.399  0.4646  0.2094  0.4585
  130CHL1    H315808   3.374   0.805  13.442  0.7656  0.6104 -0.6166
  130CHL1    O315809   3.287   0.757  13.256 -0.0497 -0.1691 -0.1231
  130CHL1   H3'15810   3.281   0.848  13.227  3.2848 -0.1099 -1.0332
  130CHL1    C415811   3.301   0.605  13.434  0.0405 -0.5102 -0.0922
  130CHL1   H4A15812   3.212   0.554  13.392  0.6656 -1.4597 -0.2968
  130CHL1   H4B15813   3.392   0.566  13.382  0.8752 -0.8128  1.5276
  130CHL1    C515814   3.302   0.575  13.579 -0.3559 -0.7944 -0.3568
  130CHL1    C615815   3.397   0.509  13.638  0.6429  0.2045  0.0655
  130CHL1    H615816   3.470   0.462  13.570 -0.3086 -0.7181 -0.3549
  130CHL1    C715817   3.404   0.474  13.779 -1.0295  0.2596 -0.1527
  130CHL1   H7A15818   3.437   0.370  13.799  1.0459  0.9138  0.0430
  130CHL1   H7B15819   3.482   0.541  13.821 -1.3301  0.2854  0.3706
  130CHL1    C815820   3.281   0.519  13.861  0.1173  0.0544 -0.0168
  130CHL1    H815821   3.206   0.440  13.842  0.8852 -0.7344  0.1605
  130CHL1   C1415822   3.301   0.533  14.011 -0.3950 -0.1232 -0.6475
  130CHL1   H1415823   3.370   0.619  14.024  0.6338 -1.2149  1.5500
  130CHL1   C1515824   3.379   0.434  14.087 -0.3929  0.1848  0.4673
  130CHL1  H15A15825   3.357   0.326  14.071 -0.4535  0.0510  1.4223
  130CHL1  H15B15826   3.487   0.446  14.060 -0.6790  2.2572  0.1129
  130CHL1   C1615827   3.353   0.452  14.235 -1.0135  0.1821  0.7845
  130CHL1  H16A15828   3.310   0.355  14.268  0.1675 -0.7662 -0.3574
  130CHL1  H16B15829   3.445   0.476  14.293 -1.2876 -0.7992  1.6733
  130CHL1   C1715830   3.237   0.557  14.240  0.0058 -0.4155 -0.5832
  130CHL1   H1715831   3.297   0.651  14.244  1.7524 -1.4761 -0.8303
  130CHL1   C1315832   3.177   0.566  14.101 -0.0136 -0.7688  0.3440
  130CHL1   C1815833   3.070   0.458  14.087 -0.0463  0.4137  0.1235
  130CHL1  H18A15834   3.050   0.436  13.980  0.4734  0.1458  0.0797
  130CHL1  H18B15835   3.110   0.365  14.132  0.5642  0.4061 -0.4170
  130CHL1  H18C15836   2.969   0.485  14.124 -0.4226 -0.0912 -0.5070
  130CHL1   C1215837   3.128   0.699  14.049 -0.1224 -0.1378 -0.1333
  130CHL1  H12A15838   3.032   0.733  14.092 -0.0235  0.6353 -0.5127
  130CHL1  H12B15839   3.200   0.782  14.067 -0.0462 -0.2162 -0.0708
  130CHL1   C1115840   3.104   0.703  13.898  0.0401 -0.1024 -0.1062
  130CHL1  H11A15841   3.009   0.649  13.877 -0.2834  0.6318 -0.5688
  130CHL1  H11B15842   3.078   0.807  13.869  1.5705  0.2916 -0.1844
  130CHL1    C915843   3.217   0.649  13.807  0.0212 -0.6911 -0.3638
  130CHL1    H915844   3.289   0.732  13.822 -0.2619 -0.2326 -1.4221
  130CHL1   C1015845   3.186   0.645  13.654  0.9994  0.0754 -0.7599
  130CHL1   C1915846   3.049   0.574  13.628 -0.0679  0.3544 -0.0295
  130CHL1  H19A15847   2.975   0.610  13.703  1.4192  0.9977  1.1865
  130CHL1  H19B15848   3.010   0.609  13.530 -1.9683  1.6078  1.0940
  130CHL1  H19C15849   3.047   0.464  13.621 -1.5847  0.4059 -0.9745
  130CHL1    C115850   3.157   0.792  13.604 -0.0739  0.2922  1.0288
  130CHL1   H1A15851   3.059   0.832  13.638 -1.4908 -1.5413 -0.6422
  130CHL1   H1B15852   3.242   0.856  13.636 -0.1376  0.5605  0.6641
  130CHL1    C215853   3.155   0.805  13.451  0.3320 -0.4241 -0.3692
  130CHL1   H2A15854   3.143   0.914  13.431 -0.2685 -0.0779  1.6666
  130CHL1   H2B15855   3.072   0.743  13.411  0.2535 -1.6126  1.5096
  130CHL1   C2015856   3.149   0.545  14.362  0.3237 -0.2031  0.4532
  130CHL1   H2015857   3.101   0.445  14.363 -1.0990  0.4087 -0.9385
  130CHL1   C2115858   3.033   0.655  14.348 -0.1703 -0.2615 -0.1765
  130CHL1  H21A15859   2.975   0.648  14.442 -2.0694  3.1297 -0.9351
  130CHL1  H21B15860   2.964   0.637  14.263 -1.5863 -1.5476  1.1689
  130CHL1  H21C15861   3.089   0.748  14.325  0.2521 -0.9223 -2.0370
  130CHL1   C2215862   3.224   0.558  14.499 -0.2268 -0.0324 -0.4048
  130CHL1  H22A15863   3.323   0.509  14.490  0.9909  2.4678 -1.8921
  130CHL1  H22B15864   3.258   0.662  14.519 -0.1028 -0.2590  0.6252
  130CHL1   C2315865   3.151   0.484  14.615 -0.5392 -0.9563  0.0005
  130CHL1  H23A15866   3.047   0.520  14.627 -0.3416 -0.0156 -0.9960
  130CHL1  H23B15867   3.130   0.377  14.594 -0.3763 -1.2344  1.1633
  130CHL1   C2415868   3.229   0.493  14.744 -0.2601  0.7539 -1.0498
  130CHL1  H24A15869   3.331   0.457  14.717  0.4303  2.4602 -0.9000
  130CHL1  H24B15870   3.254   0.597  14.776  0.7747 -0.1892  1.4968
  130CHL1   C2515871   3.160   0.413  14.861 -0.3533  0.4395  0.1362
  130CHL1   H2515872   3.099   0.335  14.813  0.5539  1.1724 -2.3555
  130CHL1   C2615873   3.257   0.350  14.961 -0.0096 -0.0763 -0.0867
  130CHL1  H26A15874   3.315   0.269  14.912  0.2886  0.8313 -1.2564
  130CHL1  H26B15875   3.330   0.423  15.001  0.8978 -0.6328 -0.7203
  130CHL1  H26C15876   3.204   0.302  15.047  1.0684 -0.2436  0.4927
  130CHL1   C2715877   3.062   0.512  14.923  0.1530  0.0920 -0.0451
  130CHL1  H27A15878   3.112   0.611  14.937  2.5996 -0.7793 -1.8797
  130CHL1  H27B15879   2.965   0.533  14.873 -0.3611  0.5160  1.0786
  130CHL1  H27C15880   3.040   0.463  15.020  2.1012 -0.5099  0.1336
  131CHL1    C315881   0.472   6.841  12.979 -0.0354  0.3860 -0.2225
  131CHL1    H315882   0.418   6.932  13.010 -1.6150 -0.1360 -1.3373
  131CHL1    O315883   0.486   6.851  12.839 -0.1127  0.3334 -0.2134
  131CHL1   H3'15884   0.556   6.789  12.816  0.0472  0.0273  1.0346
  131CHL1    C415885   0.618   6.845  13.040 -0.5583 -0.0910 -1.0786
  131CHL1   H4A15886   0.679   6.773  12.980 -0.2013  1.0963 -2.1857
  131CHL1   H4B15887   0.671   6.937  13.006 -1.5350  0.7135 -0.4480
  131CHL1    C515888   0.635   6.807  13.186 -0.5133 -0.2028 -0.0738
  131CHL1    C615889   0.696   6.886  13.278 -0.0955  0.1467 -0.3695
  131CHL1    H615890   0.750   6.978  13.250  1.2363 -0.2886  0.6107
  131CHL1    C715891   0.717   6.865  13.426 -0.2428  0.1830 -0.6188
  131CHL1   H7A15892   0.821   6.877  13.464 -0.6574  1.7048  0.1431
  131CHL1   H7B15893   0.648   6.933  13.480  0.5188  1.3740 -1.0872
  131CHL1    C815894   0.683   6.716  13.450 -0.0292  0.1770 -0.3218
  131CHL1    H815895   0.759   6.646  13.409 -0.7853  0.1731 -1.7912
  131CHL1   C1415896   0.671   6.693  13.602  0.5812  0.0283 -0.4246
  131CHL1   H1415897   0.583   6.757  13.624 -1.2476 -1.2648 -3.4410
  131CHL1   C1515898   0.779   6.743  13.700 -0.3302 -0.5389  0.7674
  131CHL1  H15A15899   0.884   6.728  13.667 -0.3940  0.2840  0.1771
  131CHL1  H15B15900   0.762   6.852  13.714  1.7487 -0.3974  2.8145
  131CHL1   C1615901   0.760   6.671  13.830  0.2907  0.2939 -1.1695
  131CHL1  H16A15902   0.850   6.613  13.862 -0.8194 -1.5395 -1.2106
  131CHL1  H16B15903   0.744   6.752  13.904 -2.1714 -1.1511 -0.0235
  131CHL1   C1715904   0.635   6.578  13.813 -0.7884 -0.0073  0.9992
  131CHL1   H1715905   0.544   6.635  13.839 -0.7158  0.4284  0.3097
  131CHL1   C1315906   0.631   6.554  13.652 -0.9349 -1.0420 -0.0063
  131CHL1   C1815907   0.744   6.456  13.611 -0.3550 -0.5573 -0.5049
  131CHL1  H18A15908   0.705   6.358  13.647 -1.0295  0.4880  1.7697
  131CHL1  H18B15909   0.735   6.459  13.501 -0.5124 -0.9845 -0.5063
  131CHL1  H18C15910   0.845   6.487  13.644 -0.9134  2.8648 -1.6538
  131CHL1   C1215911   0.491   6.522  13.600  0.1356 -0.2182 -0.0163
  131CHL1  H12A15912   0.455   6.419  13.619 -0.5986 -0.0186 -0.2892
  131CHL1  H12B15913   0.416   6.594  13.639  0.2951  0.8497 -1.5854
  131CHL1   C1115914   0.492   6.537  13.447 -0.7051  0.3878 -0.6567
  131CHL1  H11A15915   0.552   6.448  13.416 -0.3207  0.4306 -0.0572
  131CHL1  H11B15916   0.389   6.523  13.407 -1.1729  1.1757  0.2307
  131CHL1    C915917   0.552   6.670  13.385  0.4031 -0.7206  0.9093
  131CHL1    H915918   0.481   6.750  13.417 -0.5199 -0.3024 -1.9144
  131CHL1   C1015919   0.559   6.678  13.234 -0.1730 -0.5863 -0.7316
  131CHL1   C1915920   0.630   6.552  13.176  0.0407  0.0863 -0.4246
  131CHL1  H19A15921   0.735   6.550  13.211 -0.7064  0.4839  2.0245
  131CHL1  H19B15922   0.577   6.458  13.203  1.4629 -0.4470  0.6569
  131CHL1  H19C15923   0.624   6.551  13.065  1.0293 -1.7125 -0.5072
  131CHL1    C115924   0.415   6.684  13.170 -0.1682 -0.4317  0.1149
  131CHL1   H1A15925   0.375   6.581  13.176 -0.8543 -0.3110 -1.6975
  131CHL1   H1B15926   0.359   6.758  13.232 -0.6957 -2.1112  1.7599
  131CHL1    C215927   0.402   6.716  13.018 -0.4735  0.6756 -0.6686
  131CHL1   H2A15928   0.293   6.716  12.998 -0.3638 -1.0942 -1.4520
  131CHL1   H2B15929   0.444   6.633  12.956  2.7776  0.8643  1.0496
  131CHL1   C2015930   0.655   6.456  13.904 -0.2875 -0.6328  0.3925
  131CHL1   H2015931   0.757   6.418  13.882 -0.1144  1.3932 -3.0464
  131CHL1   C2115932   0.550   6.351  13.869  0.2808 -0.1433 -0.1093
  131CHL1  H21A15933   0.511   6.315  13.967 -1.6421  0.7207 -0.5057
  131CHL1  H21B15934   0.590   6.268  13.807  0.2125 -0.6510  0.5143
  131CHL1  H21C15935   0.465   6.403  13.820 -0.2490 -0.0155  0.9170
  131CHL1   C2215936   0.649   6.488  14.056  0.2070 -0.6588  0.5184
  131CHL1  H22A15937   0.710   6.575  14.091  0.4554 -0.6271  0.0079
  131CHL1  H22B15938   0.544   6.512  14.084  0.5431  2.4563 -0.4701
  131CHL1   C2315939   0.703   6.377  14.142  0.2193 -0.0154 -0.0267
  131CHL1  H23A15940   0.686   6.398  14.250  2.6663 -1.9136  0.8391
  131CHL1  H23B15941   0.635   6.296  14.111 -1.0794  0.8348  0.5356
  131CHL1   C2415942   0.848   6.342  14.125 -0.2342  0.6000 -0.3050
  131CHL1  H24A15943   0.865   6.288  14.030 -0.3892  1.5527 -0.8826
  131CHL1  H24B15944   0.910   6.435  14.129 -0.0320  0.4413  2.6922
  131CHL1   C2515945   0.896   6.238  14.233  0.3343  0.3339  1.2455
  131CHL1   H2515946   0.806   6.174  14.245  1.1564 -0.8380  1.2811
  131CHL1   C2615947   1.023   6.157  14.177 -0.4089 -0.0583 -0.5983
  131CHL1  H26A15948   0.978   6.090  14.100 -2.5088  1.6748 -0.9712
  131CHL1  H26B15949   1.093   6.224  14.123 -2.5904  0.7533 -2.6003
  131CHL1  H26C15950   1.060   6.100  14.266 -0.7424 -0.3702 -0.6565
  131CHL1   C2715951   0.915   6.302  14.371  0.5513  0.3718 -0.1693
  131CHL1  H27A15952   0.985   6.388  14.358 -0.9659  1.7061  0.1720
  131CHL1  H27B15953   0.821   6.346  14.410 -0.1960 -1.4095  0.1114
  131CHL1  H27C15954   0.953   6.225  14.442  1.9052 -1.2470 -2.5175
  132CHL1    C315955   5.133   0.022  12.904  0.8681 -1.0533 -0.1952
  132CHL1    H315956   5.073   0.109  12.936 -0.8586 -1.8091 -1.2467
  132CHL1    O315957   5.184   0.052  12.774  0.2274 -0.1376  0.3263
  132CHL1   H3'15958   5.232   0.135  12.780  0.5673 -0.3693  0.9722
  132CHL1    C415959   5.247  -0.024  12.995  0.0412  0.3680 -0.0690
  132CHL1   H4A15960   5.307  -0.108  12.955  0.7840  1.1679 -0.6681
  132CHL1   H4B15961   5.312   0.064  13.013 -0.5693  0.9162 -0.4914
  132CHL1    C515962   5.202  -0.073  13.130  0.1716  0.0845 -0.1933
  132CHL1    C615963   5.255  -0.024  13.251  0.0564  0.1705  0.5168
  132CHL1    H615964   5.340   0.046  13.249  0.4339 -0.3108 -0.4221
  132CHL1    C715965   5.201  -0.069  13.376 -0.0517  0.3743 -0.8803
  132CHL1   H7A15966   5.274  -0.085  13.459 -1.6711  0.2422  0.5754
  132CHL1   H7B15967   5.136   0.011  13.416 -1.3094 -0.6777 -0.7764
  132CHL1    C815968   5.124  -0.197  13.386 -0.0194 -0.2371  0.3310
  132CHL1    H815969   5.194  -0.281  13.364 -0.2840 -0.8114  1.5796
  132CHL1   C1415970   5.054  -0.216  13.524  0.2028 -0.0031 -0.4119
  132CHL1   H1415971   4.975  -0.138  13.522 -1.3091 -1.4604 -2.1207
  132CHL1   C1515972   5.134  -0.212  13.660 -0.1790 -0.3391  0.0102
  132CHL1  H15A15973   5.224  -0.275  13.646 -1.3518 -1.8114 -1.3074
  132CHL1  H15B15974   5.156  -0.104  13.672  0.8839 -0.4958 -0.3988
  132CHL1   C1615975   5.046  -0.274  13.760  0.8716 -0.1730  0.1200
  132CHL1  H16A15976   5.106  -0.351  13.814 -0.5643 -0.5323  1.2720
  132CHL1  H16B15977   5.003  -0.204  13.834 -2.2023 -0.0676 -1.6213
  132CHL1   C1715978   4.928  -0.338  13.684 -0.1567  0.0020  0.0779
  132CHL1   H1715979   4.843  -0.266  13.683 -0.7485 -0.6711 -1.4632
  132CHL1   C1315980   4.976  -0.346  13.535  0.3807  0.1919 -0.1526
  132CHL1   C1815981   5.063  -0.473  13.521 -0.2947  0.1806  0.4938
  132CHL1  H18A15982   5.144  -0.468  13.596 -0.2872  1.9869  0.4100
  132CHL1  H18B15983   5.008  -0.569  13.532 -0.5094  0.5015  2.6942
  132CHL1  H18C15984   5.103  -0.475  13.417 -2.0755 -2.8785 -0.2507
  132CHL1   C1215985   4.865  -0.346  13.424 -0.2569  0.7131 -0.2827
  132CHL1  H12A15986   4.810  -0.442  13.411  2.9865 -1.1247 -1.4040
  132CHL1  H12B15987   4.800  -0.256  13.435  1.1282  1.7544 -0.3461
  132CHL1   C1115988   4.922  -0.313  13.281 -0.4082  0.2233 -0.3151
  132CHL1  H11A15989   4.966  -0.405  13.236 -3.1589 -0.3284 -2.1626
  132CHL1  H11B15990   4.839  -0.292  13.210  0.2674  0.0533 -1.1754
  132CHL1    C915991   5.019  -0.195  13.276  0.1687 -0.1388  0.2990
  132CHL1    H915992   4.956  -0.106  13.297  2.4617  1.8999 -1.0053
  132CHL1   C1015993   5.081  -0.176  13.131 -0.2007 -0.0337  0.0856
  132CHL1   C1915994   5.144  -0.312  13.091  0.3016  0.0552 -0.3483
  132CHL1  H19A15995   5.062  -0.376  13.052  1.8994 -2.2962 -0.0764
  132CHL1  H19B15996   5.220  -0.298  13.012  2.0918 -0.0484  1.2896
  132CHL1  H19C15997   5.199  -0.369  13.169 -1.5097 -0.3561  0.6853
  132CHL1    C115998   4.970  -0.134  13.029  0.3267 -0.0540  0.0534
  132CHL1   H1A15999   4.903  -0.220  13.007 -0.7865  1.5690 -3.7145
  132CHL1   H1B16000   4.908  -0.051  13.069  3.2037  1.4487  1.6463
  132CHL1    C216001   5.031  -0.090  12.891 -0.3388  0.1578  0.8975
  132CHL1   H2A16002   4.948  -0.069  12.819  0.5911  0.5297 -0.0927
  132CHL1   H2B16003   5.090  -0.176  12.855  0.7559  0.7036  1.3505
  132CHL1   C2016004   4.874  -0.468  13.752  0.1497  0.0003 -0.8236
  132CHL1   H2016005   4.949  -0.550  13.764 -0.7212 -0.8580 -1.1130
  132CHL1   C2116006   4.756  -0.520  13.666 -0.0385  0.1599 -0.0977
  132CHL1  H21A16007   4.703  -0.606  13.713 -0.2109  1.1935  1.7084
  132CHL1  H21B16008   4.806  -0.561  13.576  1.0505  0.8188  0.1846
  132CHL1  H21C16009   4.693  -0.435  13.632 -1.5946 -0.7111  0.5117
  132CHL1   C2216010   4.813  -0.433  13.897 -0.1528  0.2734  0.0137
  132CHL1  H22A16011   4.881  -0.364  13.952 -0.4310  2.0499 -1.7421
  132CHL1  H22B16012   4.719  -0.380  13.870 -1.2730 -0.5581  2.1594
  132CHL1   C2316013   4.777  -0.557  13.984  0.3171  0.8383 -0.1648
  132CHL1  H23A16014   4.705  -0.516  14.058  0.2470  0.3757  0.0239
  132CHL1  H23B16015   4.732  -0.635  13.920  0.6251  0.0670  0.5502
  132CHL1   C2416016   4.900  -0.616  14.062 -0.3885 -0.3245 -0.2401
  132CHL1  H24A16017   4.868  -0.708  14.116  1.1321 -2.0797 -2.1798
  132CHL1  H24B16018   4.983  -0.636  13.992 -0.9979  0.5614 -1.2530
  132CHL1   C2516019   4.967  -0.524  14.166  0.4846  0.3173  0.6693
  132CHL1   H2516020   4.997  -0.428  14.118 -2.1721  0.6302 -0.5760
  132CHL1   C2616021   4.877  -0.486  14.278  0.2478 -0.2281 -0.3593
  132CHL1  H26A16022   4.832  -0.575  14.327 -2.3832  1.9446  1.4661
  132CHL1  H26B16023   4.932  -0.433  14.359 -1.3661  0.3824  0.3882
  132CHL1  H26C16024   4.784  -0.432  14.248  0.4242 -0.1227 -0.7279
  132CHL1   C2716025   5.089  -0.600  14.222 -0.2165  0.0437 -0.5981
  132CHL1  H27A16026   5.160  -0.612  14.137 -0.9796  1.9367 -1.5604
  132CHL1  H27B16027   5.140  -0.533  14.294  0.5847 -1.8085  0.6311
  132CHL1  H27C16028   5.067  -0.697  14.272  0.1778  0.5836  0.6427
  133CHL1    C316029   2.036   3.336  12.985  0.4505 -0.2196 -0.9465
  133CHL1    H316030   1.928   3.318  13.001  0.5614 -0.3551 -0.3017
  133CHL1    O316031   2.080   3.283  12.863 -0.0569 -0.2237 -1.1691
  133CHL1   H3'16032   2.164   3.328  12.855  0.5622 -0.5578  2.0285
  133CHL1    C416033   2.068   3.486  12.979  0.0598 -0.4856 -0.3746
  133CHL1   H4A16034   2.174   3.504  12.953  0.4581  0.2801  1.5670
  133CHL1   H4B16035   2.012   3.531  12.895  0.6579 -1.2738 -1.2133
  133CHL1    C516036   2.049   3.563  13.105 -0.3874  0.0871 -0.1312
  133CHL1    C616037   1.970   3.674  13.108 -0.1257 -0.0959  0.2712
  133CHL1    H616038   1.916   3.701  13.016 -1.0556 -1.0835  0.4962
  133CHL1    C716039   1.950   3.766  13.225  0.3351  0.0291  0.2806
  133CHL1   H7A16040   1.979   3.872  13.208  0.8426 -0.3533 -1.3936
  133CHL1   H7B16041   1.841   3.760  13.246  0.3716 -2.1953  0.1389
  133CHL1    C816042   2.037   3.718  13.343  0.1265  0.3132 -0.3343
  133CHL1    H816043   2.135   3.771  13.339  0.0520  0.8004  2.3687
  133CHL1   C1416044   1.974   3.764  13.474 -0.0124  0.1204 -0.1174
  133CHL1   H1416045   1.881   3.705  13.487  0.4699 -0.2742  2.0765
  133CHL1   C1516046   1.907   3.899  13.480 -0.5291  0.1781 -0.3464
  133CHL1  H15A16047   1.976   3.971  13.431  0.7578  0.3772  1.6583
  133CHL1  H15B16048   1.806   3.919  13.439 -0.4850  0.4733 -0.3117
  133CHL1   C1616049   1.893   3.925  13.632 -0.0135  0.0812 -0.4167
  133CHL1  H16A16050   1.942   4.020  13.663  1.0937 -0.3416 -0.8185
  133CHL1  H16B16051   1.785   3.928  13.658  0.1561 -1.4212  0.6147
  133CHL1   C1716052   1.960   3.806  13.711  0.4908  0.4756  0.1997
  133CHL1   H1716053   1.884   3.726  13.724  0.0312  0.6822 -1.0147
  133CHL1   C1316054   2.055   3.746  13.603 -0.2267  0.6595 -0.3458
  133CHL1   C1816055   2.181   3.834  13.602  0.5949  0.0733 -0.0705
  133CHL1  H18A16056   2.253   3.799  13.679 -0.1745  2.8699  2.0882
  133CHL1  H18B16057   2.228   3.832  13.501  2.1390 -0.4167  0.6258
  133CHL1  H18C16058   2.140   3.930  13.640  0.1025 -0.4664  0.7987
  133CHL1   C1216059   2.093   3.596  13.607 -0.3872  0.1331 -0.1993
  133CHL1  H12A16060   2.154   3.591  13.700 -0.9443 -0.8703  0.1236
  133CHL1  H12B16061   2.000   3.541  13.632  0.9898 -1.6867  1.2250
  133CHL1   C1116062   2.156   3.535  13.482 -0.0778  0.3401 -0.6331
  133CHL1  H11A16063   2.256   3.579  13.461 -0.9713  2.1830 -1.1346
  133CHL1  H11B16064   2.175   3.425  13.490 -1.7765 -0.0122 -1.1361
  133CHL1    C916065   2.072   3.569  13.354  0.2030  0.4701  0.5369
  133CHL1    H916066   1.975   3.518  13.371  0.7162 -0.9160 -0.5256
  133CHL1   C1016067   2.116   3.504  13.224  0.2341 -0.3490 -0.3047
  133CHL1   C1916068   2.264   3.530  13.211 -0.4451 -0.1819 -0.7376
  133CHL1  H19A16069   2.320   3.465  13.282  0.7000  1.6415  0.1085
  133CHL1  H19B16070   2.298   3.504  13.108 -3.0590 -0.8369 -1.5181
  133CHL1  H19C16071   2.284   3.637  13.229  0.2947 -0.4195 -0.0587
  133CHL1    C116072   2.104   3.353  13.234 -0.1279 -0.1089  0.1140
  133CHL1   H1A16073   2.186   3.319  13.301  3.5919 -0.6459 -4.2750
  133CHL1   H1B16074   2.005   3.324  13.277  0.4058 -0.7320  0.9654
  133CHL1    C216075   2.124   3.276  13.101 -0.1105  0.5400 -0.4286
  133CHL1   H2A16076   2.097   3.168  13.108 -1.0470  0.7304 -0.8407
  133CHL1   H2B16077   2.230   3.281  13.072 -0.3286 -0.4613 -1.4465
  133CHL1   C2016078   2.011   3.864  13.848  0.3820  0.2503 -1.1495
  133CHL1   H2016079   2.090   3.938  13.825 -0.5870  1.1565 -1.6715
  133CHL1   C2116080   2.075   3.748  13.936 -0.2813 -0.2827  0.9354
  133CHL1  H21A16081   1.996   3.678  13.968 -1.1442 -0.2395 -0.9616
  133CHL1  H21B16082   2.105   3.804  14.027  0.7637 -0.6807  0.8535
  133CHL1  H21C16083   2.154   3.697  13.876  0.0991  2.7282 -1.4005
  133CHL1   C2216084   1.909   3.940  13.937  0.1234  0.6874  0.3785
  133CHL1  H22A16085   1.853   4.015  13.876  0.5352  0.0615 -0.8052
  133CHL1  H22B16086   1.824   3.875  13.968 -1.0425  3.0384  2.4412
  133CHL1   C2316087   1.958   4.017  14.065 -0.3617  0.1653  0.3262
  133CHL1  H23A16088   2.009   3.940  14.128  1.1397 -2.5165 -3.7042
  133CHL1  H23B16089   2.037   4.087  14.029 -1.2009  0.8827 -0.1531
  133CHL1   C2416090   1.851   4.096  14.138  0.4010  0.2671 -0.5028
  133CHL1  H24A16091   1.809   4.174  14.070  2.0100  2.7099  1.1244
  133CHL1  H24B16092   1.765   4.027  14.156 -0.0864  0.8399 -0.5766
  133CHL1   C2516093   1.907   4.157  14.264 -0.2007 -0.3932  0.2592
  133CHL1   H2516094   2.009   4.193  14.238 -0.9087  0.0507 -2.1725
  133CHL1   C2616095   1.831   4.280  14.308  0.1010  0.2641 -0.2467
  133CHL1  H26A16096   1.791   4.340  14.223 -0.3594 -0.5628 -0.6273
  133CHL1  H26B16097   1.736   4.264  14.363  0.1188  0.7741 -0.0661
  133CHL1  H26C16098   1.894   4.343  14.373 -0.3879 -1.4827  2.0317
  133CHL1   C2716099   1.907   4.060  14.376  0.1972  0.2287  0.3884
  133CHL1  H27A16100   1.969   4.097  14.461  0.6522  2.4630 -0.8460
  133CHL1  H27B16101   1.804   4.053  14.417  0.4326 -3.2153  0.7369
  133CHL1  H27C16102   1.939   3.958  14.345  0.7925  0.8713 -1.2011
  134CHL1    C316103   6.658   3.900  12.969 -0.5017 -0.8967 -0.4812
  134CHL1    H316104   6.553   3.910  12.934 -0.0705 -0.3008 -1.6469
  134CHL1    O316105   6.733   3.863  12.858 -0.3242  0.0453  0.1358
  134CHL1   H3'16106   6.822   3.839  12.884  0.1778  1.0291 -0.6144
  134CHL1    C416107   6.708   4.038  13.023 -0.2623 -0.2165 -0.1437
  134CHL1   H4A16108   6.815   4.036  13.052  0.2083  2.4428 -1.3824
  134CHL1   H4B16109   6.708   4.113  12.940 -2.6255 -0.4548 -0.4271
  134CHL1    C516110   6.632   4.085  13.147  0.3530  0.3583 -0.1985
  134CHL1    C616111   6.558   4.196  13.146 -0.0213 -0.1145  0.1635
  134CHL1    H616112   6.558   4.258  13.056  1.9027  3.2486  2.2685
  134CHL1    C716113   6.502   4.261  13.267  1.1954  0.4768  0.2973
  134CHL1   H7A16114   6.520   4.370  13.278  1.7266  0.4516 -0.2822
  134CHL1   H7B16115   6.390   4.259  13.268  1.1288  2.4848  0.3915
  134CHL1    C816116   6.550   4.190  13.398  0.3175 -0.5348 -0.2615
  134CHL1    H816117   6.656   4.219  13.411  0.8438 -1.7345 -1.5960
  134CHL1   C1416118   6.478   4.233  13.525 -0.0619  0.0087  0.1547
  134CHL1   H1416119   6.374   4.198  13.508  1.0957 -2.9739 -1.5209
  134CHL1   C1516120   6.473   4.385  13.556  0.3262  0.9801  0.5118
  134CHL1  H15A16121   6.573   4.433  13.568 -0.0121  1.4164  1.6630
  134CHL1  H15B16122   6.404   4.433  13.483 -0.4010  0.0336  0.5658
  134CHL1   C1616123   6.415   4.384  13.697  0.6588  0.8384 -0.8861
  134CHL1  H16A16124   6.475   4.447  13.766 -0.4008 -0.5059  1.3714
  134CHL1  H16B16125   6.310   4.422  13.703 -0.2596 -1.5254 -1.0212
  134CHL1   C1716126   6.419   4.242  13.745 -0.0077  0.5762 -0.7183
  134CHL1   H1716127   6.319   4.196  13.729  0.1832 -0.2309  0.3110
  134CHL1   C1316128   6.516   4.166  13.655  0.0616  0.3382 -0.1928
  134CHL1   C1816129   6.669   4.194  13.686 -0.5331 -0.5318 -0.3907
  134CHL1  H18A16130   6.692   4.302  13.694  2.9716 -1.1799  0.0102
  134CHL1  H18B16131   6.688   4.156  13.789  1.3312 -2.1022 -1.2614
  134CHL1  H18C16132   6.741   4.164  13.607  0.3644  0.6464 -0.0454
  134CHL1   C1216133   6.492   4.018  13.632 -0.0048  0.1124 -0.1885
  134CHL1  H12A16134   6.523   3.952  13.716 -0.0824 -0.8720 -0.9152
  134CHL1  H12B16135   6.384   3.996  13.619 -0.5738  1.0463  2.2505
  134CHL1   C1116136   6.569   3.963  13.518  0.4837  0.7039  0.4852
  134CHL1  H11A16137   6.677   3.953  13.539  1.1324  0.1977 -2.5498
  134CHL1  H11B16138   6.543   3.855  13.518  0.9208  0.5941  0.7430
  134CHL1    C916139   6.550   4.035  13.386  0.3710  0.8275  0.5782
  134CHL1    H916140   6.446   4.022  13.350 -0.7446  4.5071  1.9809
  134CHL1   C1016141   6.640   3.987  13.265  0.7310  0.1270  0.0868
  134CHL1   C1916142   6.792   3.961  13.307  0.0028  0.7492 -0.4842
  134CHL1  H19A16143   6.832   4.057  13.346  1.1761  0.5793 -1.2368
  134CHL1  H19B16144   6.796   3.882  13.385  1.7778 -0.5095 -1.7753
  134CHL1  H19C16145   6.851   3.925  13.220 -4.5511 -3.3451 -2.4253
  134CHL1    C116146   6.583   3.851  13.209 -1.1728 -0.1163  0.6855
  134CHL1   H1A16147   6.594   3.773  13.287 -1.2095  0.1023  0.9075
  134CHL1   H1B16148   6.476   3.858  13.182 -1.1489  0.0928  0.6451
  134CHL1    C216149   6.655   3.794  13.077  0.1113  0.2603 -0.3310
  134CHL1   H2A16150   6.602   3.708  13.031  0.6985 -0.1247 -0.2957
  134CHL1   H2B16151   6.756   3.759  13.105 -0.1578  0.0134  0.3460
  134CHL1   C2016152   6.437   4.243  13.895 -0.3445  0.6430 -0.1055
  134CHL1   H2016153   6.544   4.270  13.913 -0.7604  1.2582  1.6608
  134CHL1   C2116154   6.406   4.095  13.942 -0.0794  0.2574 -0.1822
  134CHL1  H21A16155   6.486   4.024  13.911 -0.0341 -0.4282  1.3701
  134CHL1  H21B16156   6.310   4.068  13.894  0.8734  2.0063 -3.3566
  134CHL1  H21C16157   6.398   4.099  14.053 -1.7323  0.8404 -0.3111
  134CHL1   C2216158   6.344   4.349  13.962 -0.3055 -0.3075 -0.3386
  134CHL1  H22A16159   6.363   4.454  13.932 -2.0442 -0.1191 -0.8781
  134CHL1  H22B16160   6.238   4.331  13.934 -0.8815 -1.7334  2.3526
  134CHL1   C2316161   6.346   4.340  14.115 -0.8191 -0.4321 -0.4250
  134CHL1  H23A16162   6.272   4.417  14.147  0.7021 -0.2753  3.1565
  134CHL1  H23B16163   6.311   4.245  14.160  2.3365 -1.1053  0.8610
  134CHL1   C2416164   6.481   4.382  14.179 -0.0506 -0.1892 -0.1520
  134CHL1  H24A16165   6.559   4.303  14.173 -0.3494 -0.6275  1.3588
  134CHL1  H24B16166   6.519   4.476  14.133  0.3550  0.3468  1.2064
  134CHL1   C2516167   6.468   4.400  14.338  0.0953 -0.1769 -0.0441
  134CHL1   H2516168   6.406   4.316  14.376  2.3039 -1.9447 -0.1334
  134CHL1   C2616169   6.609   4.386  14.400  0.3508  0.3377 -0.1366
  134CHL1  H26A16170   6.650   4.285  14.379  0.6721  0.8057 -1.9366
  134CHL1  H26B16171   6.685   4.455  14.356  1.2638 -0.5744 -0.0341
  134CHL1  H26C16172   6.604   4.404  14.509  0.3508  2.5286 -0.4478
  134CHL1   C2716173   6.419   4.542  14.355 -0.2958 -0.1745 -0.1733
  134CHL1  H27A16174   6.381   4.549  14.459 -1.1211 -0.0068 -0.4758
  134CHL1  H27B16175   6.495   4.617  14.325 -0.8651  0.1206 -0.9320
  134CHL1  H27C16176   6.330   4.567  14.292 -0.2134 -0.0939 -0.2590
  135CHL1    C316177   6.355   3.505  12.868  0.3227  0.0014  0.0921
  135CHL1    H316178   6.438   3.578  12.857  1.0070 -0.8390 -0.3964
  135CHL1    O316179   6.336   3.455  12.737 -0.2827 -0.1345  0.0656
  135CHL1   H3'16180   6.295   3.533  12.701  1.2816 -0.3987 -2.4662
  135CHL1    C416181   6.402   3.388  12.952 -0.3842 -0.2465  0.0941
  135CHL1   H4A16182   6.336   3.302  12.927  0.1606 -0.6291 -0.0479
  135CHL1   H4B16183   6.504   3.356  12.922 -0.3477 -0.2346  0.2053
  135CHL1    C516184   6.408   3.423  13.100  0.0979 -0.0394 -0.3486
  135CHL1    C616185   6.516   3.402  13.172 -0.0803  0.1435 -0.7400
  135CHL1    H616186   6.596   3.346  13.121 -0.6790  0.6328 -2.2824
  135CHL1    C716187   6.523   3.424  13.326  0.2594  0.3240 -0.1825
  135CHL1   H7A16188   6.537   3.322  13.369  2.4225  0.9197  0.6697
  135CHL1   H7B16189   6.611   3.477  13.369  0.8588 -0.3515 -0.5475
  135CHL1    C816190   6.390   3.460  13.395  0.2774 -1.1224 -0.2273
  135CHL1    H816191   6.332   3.366  13.404  1.4922 -1.6774  3.7986
  135CHL1   C1416192   6.406   3.534  13.527 -0.2236  0.3136 -0.1230
  135CHL1   H1416193   6.453   3.631  13.500 -1.7041  1.2610  0.5617
  135CHL1   C1516194   6.501   3.470  13.634 -0.3764 -0.6284 -0.7343
  135CHL1  H15A16195   6.492   3.360  13.623 -0.3127 -0.6330 -0.7426
  135CHL1  H15B16196   6.607   3.491  13.609  0.9880  0.3687  4.6487
  135CHL1   C1616197   6.462   3.534  13.767  0.0699  0.6963  0.1225
  135CHL1  H16A16198   6.418   3.457  13.834 -1.3249  2.3745  1.2256
  135CHL1  H16B16199   6.547   3.586  13.817 -0.6291  1.9663  0.0175
  135CHL1   C1716200   6.346   3.629  13.736  0.0632 -1.2675 -0.3885
  135CHL1   H1716201   6.394   3.723  13.702  0.1796 -2.1600 -2.9797
  135CHL1   C1316202   6.281   3.580  13.607 -0.5393 -0.4281  0.8639
  135CHL1   C1816203   6.186   3.457  13.627  0.3968 -0.3064 -0.1580
  135CHL1  H18A16204   6.168   3.401  13.533  3.1186 -0.4768 -0.6543
  135CHL1  H18B16205   6.224   3.385  13.702 -0.9637 -0.4914  0.3915
  135CHL1  H18C16206   6.094   3.497  13.674  1.7329 -0.3331  2.6358
  135CHL1   C1216207   6.220   3.683  13.513 -0.1492  0.3062 -0.5809
  135CHL1  H12A16208   6.125   3.729  13.549 -0.2742 -0.4518  0.0805
  135CHL1  H12B16209   6.291   3.768  13.501 -0.7755  1.1249  1.0853
  135CHL1   C1116210   6.189   3.621  13.372 -0.6836  0.5853  0.3395
  135CHL1  H11A16211   6.099   3.556  13.361 -1.1959  1.2738  0.3466
  135CHL1  H11B16212   6.152   3.704  13.307  1.7620  2.8876  1.6950
  135CHL1    C916213   6.315   3.553  13.301  0.2460 -0.1311  0.1026
  135CHL1    H916214   6.381   3.638  13.276  0.8698 -0.5759  0.2241
  135CHL1   C1016215   6.279   3.494  13.159 -0.4063  0.3072 -0.2695
  135CHL1   C1916216   6.171   3.388  13.166  0.0643  0.6901  0.1082
  135CHL1  H19A16217   6.213   3.297  13.215  0.2390  0.6687 -0.0823
  135CHL1  H19B16218   6.082   3.417  13.225 -0.1353 -1.2880  0.8430
  135CHL1  H19C16219   6.141   3.376  13.060  2.1558  3.0545 -0.8452
  135CHL1    C116220   6.231   3.609  13.069  0.5206  0.0558 -0.9123
  135CHL1   H1A16221   6.138   3.652  13.111  1.0246  0.8258 -0.5525
  135CHL1   H1B16222   6.306   3.691  13.081  0.1540  0.2549  0.0541
  135CHL1    C216223   6.221   3.574  12.917  0.1986 -0.3390 -0.0230
  135CHL1   H2A16224   6.206   3.673  12.870 -1.8616  1.9088  4.7121
  135CHL1   H2B16225   6.133   3.510  12.893  1.5187 -1.2313 -3.0278
  135CHL1   C2016226   6.256   3.648  13.864  0.0058  0.0186 -0.3055
  135CHL1   H2016227   6.227   3.546  13.896 -0.7138  0.6450  1.0981
  135CHL1   C2116228   6.134   3.736  13.835 -0.7215  0.0779 -0.6660
  135CHL1  H21A16229   6.058   3.693  13.765  0.0893 -0.7486 -1.0635
  135CHL1  H21B16230   6.166   3.840  13.816  0.7165 -0.1689  0.2581
  135CHL1  H21C16231   6.079   3.733  13.932 -1.8564  1.0212 -1.2500
  135CHL1   C2216232   6.333   3.706  13.984 -0.2387 -0.7480  0.3011
  135CHL1  H22A16233   6.442   3.697  13.961 -0.1942 -2.1399  0.9210
  135CHL1  H22B16234   6.306   3.813  13.992  0.5484 -0.1387 -3.3393
  135CHL1   C2316235   6.317   3.636  14.119  0.3633 -0.3073 -0.0768
  135CHL1  H23A16236   6.209   3.640  14.144  0.2586 -0.1097 -0.5424
  135CHL1  H23B16237   6.349   3.530  14.119 -1.7719 -0.9816 -0.4074
  135CHL1   C2416238   6.384   3.714  14.241  0.1305  0.3270  0.4955
  135CHL1  H24A16239   6.491   3.724  14.214  0.3870 -2.0991  0.3157
  135CHL1  H24B16240   6.348   3.818  14.252  1.8882  0.9327  0.7262
  135CHL1   C2516241   6.380   3.638  14.369  0.5346 -0.1091 -0.1707
  135CHL1   H2516242   6.396   3.530  14.348  1.7171  0.5459 -3.1182
  135CHL1   C2616243   6.486   3.671  14.474 -0.2806  0.6583 -0.1452
  135CHL1  H26A16244   6.472   3.774  14.514 -2.1011  0.0034  1.0556
  135CHL1  H26B16245   6.484   3.603  14.562  0.8045  0.6867 -0.0849
  135CHL1  H26C16246   6.585   3.663  14.425  1.5918  2.7372  2.9168
  135CHL1   C2716247   6.245   3.653  14.433 -0.2477 -0.4055 -0.2514
  135CHL1  H27A16248   6.247   3.613  14.536  2.7232  0.1010 -0.0208
  135CHL1  H27B16249   6.207   3.756  14.449  3.1319  0.7873  1.0588
  135CHL1  H27C16250   6.167   3.597  14.377 -1.5549 -0.0243  1.1402
  136CHL1    C316251   5.453   1.930  12.887  0.1429 -1.4947  0.4104
  136CHL1    H316252   5.388   2.019  12.869  0.9591 -0.8475  0.6318
  136CHL1    O316253   5.466   1.844  12.777  0.7199 -0.2380  0.1446
  136CHL1   H3'16254   5.507   1.764  12.810  3.1672  0.4468 -0.9821
  136CHL1    C416255   5.588   1.986  12.934 -0.3391 -0.4151  0.1553
  136CHL1   H4A16256   5.661   1.906  12.957 -0.2025 -0.0908  0.9021
  136CHL1   H4B16257   5.640   2.049  12.858  1.3570  0.7710  2.1660
  136CHL1    C516258   5.579   2.064  13.065 -0.0425 -0.3017 -0.2450
  136CHL1    C616259   5.622   2.188  13.076 -0.3237  0.5223  0.1304
  136CHL1    H616260   5.671   2.236  12.990  2.3326 -4.2274 -1.3731
  136CHL1    C716261   5.641   2.259  13.204  0.3762 -0.1944 -0.0994
  136CHL1   H7A16262   5.741   2.308  13.211 -1.0170  2.7465  0.8982
  136CHL1   H7B16263   5.562   2.337  13.214 -1.1461 -1.2309 -2.9413
  136CHL1    C816264   5.613   2.172  13.338 -0.2340 -0.2335  0.5939
  136CHL1    H816265   5.702   2.106  13.355 -0.7024 -0.7532  1.0572
  136CHL1   C1416266   5.595   2.252  13.467  0.4964  0.5378  0.2415
  136CHL1   H1416267   5.504   2.314  13.455 -0.6470 -0.8391  1.5271
  136CHL1   C1516268   5.715   2.345  13.502  0.4304  0.8254  1.1403
  136CHL1  H15A16269   5.809   2.295  13.468 -0.3130 -0.8200  1.4186
  136CHL1  H15B16270   5.711   2.446  13.456 -0.3235 -0.5211 -2.0238
  136CHL1   C1616271   5.711   2.353  13.648 -0.3364  0.1823 -0.2675
  136CHL1  H16A16272   5.806   2.320  13.695 -1.4120 -1.1310  1.1166
  136CHL1  H16B16273   5.711   2.460  13.678  0.7607 -0.1650  1.0811
  136CHL1   C1716274   5.585   2.273  13.700 -1.1231 -0.2914  0.1598
  136CHL1   H1716275   5.493   2.335  13.695 -0.2509  1.2852  2.1213
  136CHL1   C1316276   5.579   2.162  13.593  0.2334  0.1822 -0.4833
  136CHL1   C1816277   5.693   2.061  13.608  0.4767 -0.4770  0.5000
  136CHL1  H18A16278   5.686   1.971  13.543 -0.5050 -0.9558  1.2324
  136CHL1  H18B16279   5.791   2.110  13.588 -1.2329  2.1280 -2.3401
  136CHL1  H18C16280   5.695   2.020  13.711  1.5319 -0.3273  0.5497
  136CHL1   C1216281   5.440   2.095  13.567  0.5936  0.1961  0.0858
  136CHL1  H12A16282   5.394   2.042  13.653 -0.2333  3.4710  1.8483
  136CHL1  H12B16283   5.371   2.180  13.549  1.7034  1.1001 -0.0409
  136CHL1   C1116284   5.438   2.014  13.436 -0.0533 -0.4964 -0.0498
  136CHL1  H11A16285   5.492   1.921  13.462 -1.1764 -1.6323 -1.6357
  136CHL1  H11B16286   5.336   1.979  13.407 -0.1493  0.0603 -0.4025
  136CHL1    C916287   5.493   2.086  13.308 -0.1541 -0.1875 -0.6636
  136CHL1    H916288   5.418   2.159  13.271  0.8583  1.6875  0.8545
  136CHL1   C1016289   5.530   1.995  13.187  0.2314  0.5381 -1.1178
  136CHL1   C1916290   5.629   1.887  13.234  0.2000  0.2288  0.3599
  136CHL1  H19A16291   5.590   1.832  13.322  1.5054 -0.6290  0.4270
  136CHL1  H19B16292   5.635   1.803  13.162 -0.2747 -1.0978  1.8242
  136CHL1  H19C16293   5.733   1.920  13.255  0.5826 -0.0106 -1.0747
  136CHL1    C116294   5.388   1.934  13.139 -0.4666 -0.8547 -0.2664
  136CHL1   H1A16295   5.349   1.859  13.210 -1.7458  0.0659  0.0369
  136CHL1   H1B16296   5.312   2.014  13.126  0.6127  0.4402  1.0185
  136CHL1    C216297   5.389   1.855  13.004 -0.3996 -0.1926  0.0760
  136CHL1   H2A16298   5.282   1.848  12.976 -0.5746  1.4870  0.2041
  136CHL1   H2B16299   5.434   1.756  13.025  1.0587  0.1984 -1.0023
  136CHL1   C2016300   5.605   2.244  13.849  0.0877  0.6131  0.3153
  136CHL1   H2016301   5.704   2.203  13.876 -0.9156 -2.2155  0.0228
  136CHL1   C2116302   5.506   2.139  13.891  0.1272 -0.9827 -0.5436
  136CHL1  H21A16303   5.500   2.124  14.001  0.4258 -2.4264 -0.7116
  136CHL1  H21B16304   5.516   2.041  13.839 -2.1152 -1.7039  0.2686
  136CHL1  H21C16305   5.405   2.171  13.856  1.2670  3.3147 -0.4099
  136CHL1   C2216306   5.594   2.365  13.938 -0.5895 -0.7342 -0.0473
  136CHL1  H22A16307   5.639   2.455  13.892  0.0402  0.5254  2.7987
  136CHL1  H22B16308   5.491   2.402  13.955 -0.4302  0.0141 -0.6466
  136CHL1   C2316309   5.675   2.349  14.066  0.5176 -0.6148 -0.1189
  136CHL1  H23A16310   5.669   2.246  14.108  1.0094  0.5109  3.0438
  136CHL1  H23B16311   5.781   2.361  14.036  1.1687  1.3295  2.4815
  136CHL1   C2416312   5.620   2.449  14.176 -0.3188  0.3026 -0.3705
  136CHL1  H24A16313   5.605   2.552  14.137  1.7044  1.4566  1.6813
  136CHL1  H24B16314   5.516   2.411  14.186 -1.0940  1.9358 -1.7463
  136CHL1   C2516315   5.710   2.452  14.297 -0.6127  0.4443 -0.6306
  136CHL1   H2516316   5.734   2.346  14.320 -0.6610  0.2141 -1.5823
  136CHL1   C2616317   5.840   2.519  14.262 -0.2933 -0.1425 -0.3437
  136CHL1  H26A16318   5.901   2.465  14.186  2.6920  0.5615  1.3900
  136CHL1  H26B16319   5.815   2.619  14.221  0.4547  0.2897  0.2422
  136CHL1  H26C16320   5.895   2.523  14.358 -1.1605 -0.8406  0.1987
  136CHL1   C2716321   5.637   2.527  14.410 -0.0776  0.0604  0.3499
  136CHL1  H27A16322   5.536   2.482  14.426 -0.5841  1.3138  0.8651
  136CHL1  H27B16323   5.692   2.532  14.506  0.8821 -2.4155 -0.0017
  136CHL1  H27C16324   5.617   2.630  14.371  1.1108  0.0792 -0.2312
  137CHL1    C316325   1.562   3.521  12.986  0.0936  0.4411 -0.1285
  137CHL1    H316326   1.556   3.623  13.030 -2.0060  0.5216 -0.5194
  137CHL1    O316327   1.625   3.546  12.857  0.1636 -0.9147 -0.2119
  137CHL1   H3'16328   1.663   3.634  12.871  0.7806 -1.0984 -0.7060
  137CHL1    C416329   1.656   3.426  13.063  0.0964 -0.0400  0.1462
  137CHL1   H4A16330   1.653   3.329  13.009  2.0173 -0.3175  0.4332
  137CHL1   H4B16331   1.762   3.458  13.073  0.0212  0.0428  0.7393
  137CHL1    C516332   1.598   3.395  13.199  0.4200  0.3437 -0.4288
  137CHL1    C616333   1.675   3.418  13.308 -0.2633 -0.4660  0.1958
  137CHL1    H616334   1.777   3.457  13.294  0.1971 -0.9659  1.8715
  137CHL1    C716335   1.633   3.383  13.444 -0.0633 -0.2685 -0.5339
  137CHL1   H7A16336   1.720   3.339  13.498  0.8331  2.3951  0.3682
  137CHL1   H7B16337   1.617   3.475  13.504  1.5450 -0.2082 -0.1414
  137CHL1    C816338   1.508   3.294  13.460 -0.0967 -0.1152  0.1216
  137CHL1    H816339   1.541   3.191  13.434  1.4475 -0.1132  1.7796
  137CHL1   C1416340   1.447   3.299  13.594  0.0339  0.2536 -0.0354
  137CHL1   H1416341   1.421   3.406  13.614 -0.5169 -0.3113  2.6317
  137CHL1   C1516342   1.533   3.269  13.719  0.1138  0.2924  0.0431
  137CHL1  H15A16343   1.593   3.176  13.706  0.2012  0.1850  1.1243
  137CHL1  H15B16344   1.601   3.356  13.733 -0.7311  0.7949  1.1975
  137CHL1   C1616345   1.419   3.259  13.831  0.2557  0.2647  0.2063
  137CHL1  H16A16346   1.454   3.180  13.901  0.3321 -0.0467 -0.1792
  137CHL1  H16B16347   1.429   3.359  13.877  0.6594  0.6372 -0.6699
  137CHL1   C1716348   1.286   3.243  13.760 -0.1127  0.3253  0.3721
  137CHL1   H1716349   1.236   3.342  13.759 -2.9474 -1.0126  0.7183
  137CHL1   C1316350   1.317   3.217  13.615 -0.1161 -0.1516  0.1778
  137CHL1   C1816351   1.336   3.066  13.587  0.2808 -0.0858  0.0667
  137CHL1  H18A16352   1.385   3.045  13.490 -0.8141  1.2272 -0.8218
  137CHL1  H18B16353   1.404   3.029  13.666 -2.2400 -0.3183  2.2983
  137CHL1  H18C16354   1.236   3.017  13.583  0.8644 -1.2132 -1.4590
  137CHL1   C1216355   1.210   3.273  13.519 -0.3897 -0.7204 -0.7253
  137CHL1  H12A16356   1.112   3.222  13.527 -1.2620  0.8799 -0.8032
  137CHL1  H12B16357   1.192   3.376  13.556  2.9076  0.5695 -2.3055
  137CHL1   C1116358   1.262   3.266  13.371  0.1319 -0.5862 -0.1417
  137CHL1  H11A16359   1.280   3.158  13.353  2.3266 -0.5784  1.5207
  137CHL1  H11B16360   1.182   3.306  13.305 -0.2809  2.9616  2.1974
  137CHL1    C916361   1.403   3.340  13.351  0.3109  0.3670  0.3064
  137CHL1    H916362   1.377   3.444  13.380  1.1965  0.0721  2.2662
  137CHL1   C1016363   1.452   3.339  13.208 -0.3689  0.3990  0.0912
  137CHL1   C1916364   1.454   3.194  13.159  0.2253 -0.0240  0.1885
  137CHL1  H19A16365   1.498   3.187  13.057 -0.1573  0.4889 -0.0156
  137CHL1  H19B16366   1.509   3.125  13.227  0.6957  0.7904  0.6483
  137CHL1  H19C16367   1.352   3.160  13.134  0.4131  1.4107 -2.9740
  137CHL1    C116368   1.368   3.432  13.117  0.4141  0.1800  0.0947
  137CHL1   H1A16369   1.264   3.395  13.109  0.4619 -0.4376  1.8058
  137CHL1   H1B16370   1.360   3.531  13.167 -1.5526  1.6183 -2.7536
  137CHL1    C216371   1.423   3.456  12.974  0.1622 -0.1861 -0.2337
  137CHL1   H2A16372   1.351   3.510  12.909  0.6118  0.9808  0.2093
  137CHL1   H2B16373   1.438   3.358  12.925  1.2632 -0.2554  0.1946
  137CHL1   C2016374   1.193   3.147  13.843  0.1623 -0.3905 -0.2182
  137CHL1   H2016375   1.233   3.043  13.841  1.6383  0.1321  0.4077
  137CHL1   C2116376   1.047   3.157  13.799 -0.1788  0.0432  0.3375
  137CHL1  H21A16377   1.020   3.265  13.796 -0.5147 -0.0605 -1.3301
  137CHL1  H21B16378   0.979   3.110  13.874 -1.5045  0.0308 -0.8254
  137CHL1  H21C16379   1.024   3.099  13.707 -1.3534 -0.6319  1.0281
  137CHL1   C2216380   1.187   3.180  13.994 -0.0224  0.5193 -0.6825
  137CHL1  H22A16381   1.118   3.109  14.043  0.5483  0.0608 -0.5247
  137CHL1  H22B16382   1.277   3.139  14.046 -1.2702 -1.3630  0.1109
  137CHL1   C2316383   1.151   3.321  14.029  0.9102 -0.2204 -0.3976
  137CHL1  H23A16384   1.237   3.383  13.997  0.7195 -1.1198 -2.8128
  137CHL1  H23B16385   1.064   3.366  13.977  1.6257  1.7168 -0.0330
  137CHL1   C2416386   1.117   3.332  14.179  1.0062 -0.2413 -0.2849
  137CHL1  H24A16387   1.083   3.435  14.201 -0.1998 -0.4286 -1.1666
  137CHL1  H24B16388   1.036   3.260  14.204  0.2019  0.1060 -1.7617
  137CHL1   C2516389   1.238   3.305  14.278 -0.0161  0.4667  0.8460
  137CHL1   H2516390   1.272   3.202  14.252 -1.0687  0.7921 -2.2703
  137CHL1   C2616391   1.352   3.402  14.256  0.2698 -0.7110  0.4065
  137CHL1  H26A16392   1.397   3.383  14.156 -0.2643 -2.2370  0.4399
  137CHL1  H26B16393   1.320   3.509  14.255  1.4990 -0.3303 -0.3967
  137CHL1  H26C16394   1.438   3.386  14.325  0.8010  0.6273  0.0831
  137CHL1   C2716395   1.198   3.303  14.427 -0.1899 -0.0660 -0.3373
  137CHL1  H27A16396   1.113   3.373  14.446 -0.3123 -0.2751 -0.1044
  137CHL1  H27B16397   1.158   3.204  14.460 -3.2772  1.0993 -0.2126
  137CHL1  H27C16398   1.275   3.333  14.501 -2.4235 -0.1413  2.1970
  138CHL1    C316399   6.808   2.549  12.962  0.2824 -0.2733 -0.2573
  138CHL1    H316400   6.919   2.557  12.960  0.1497  2.4295 -0.8266
  138CHL1    O316401   6.763   2.544  12.828  0.8705 -0.3953  1.0269
  138CHL1   H3'16402   6.667   2.549  12.825  0.6901 -3.1130  0.1118
  138CHL1    C416403   6.757   2.425  13.035 -0.0497 -0.2820 -0.0142
  138CHL1   H4A16404   6.648   2.428  13.014 -0.0312  1.8515 -0.0358
  138CHL1   H4B16405   6.787   2.330  12.984 -0.3186  1.1760 -3.1569
  138CHL1    C516406   6.783   2.440  13.186  0.1288 -0.4810  0.5825
  138CHL1    C616407   6.845   2.347  13.254  0.3537  0.2527  0.1411
  138CHL1    H616408   6.893   2.259  13.208  0.5209  1.2646 -1.6950
  138CHL1    C716409   6.854   2.341  13.407  0.2624  0.7010 -0.3624
  138CHL1   H7A16410   6.822   2.238  13.433 -0.6377  1.2490  0.7691
  138CHL1   H7B16411   6.957   2.353  13.447  0.1014  0.8871 -0.0026
  138CHL1    C816412   6.763   2.450  13.481 -0.7145  0.8026  0.6346
  138CHL1    H816413   6.660   2.409  13.482 -0.7101  0.7964  0.7859
  138CHL1   C1416414   6.811   2.470  13.624 -0.1855  0.0097 -0.3826
  138CHL1   H1416415   6.907   2.524  13.616 -0.4056  0.6286  0.9314
  138CHL1   C1516416   6.838   2.348  13.718  0.5575 -0.3430  0.2394
  138CHL1  H15A16417   6.750   2.281  13.706  1.0503 -0.7482 -1.4576
  138CHL1  H15B16418   6.935   2.299  13.692  0.8147 -0.3935  1.2724
  138CHL1   C1616419   6.842   2.414  13.852  0.8231 -0.7590 -1.0612
  138CHL1  H16A16420   6.783   2.359  13.929  1.0720  0.5089  0.0752
  138CHL1  H16B16421   6.939   2.408  13.905 -0.8038  4.2769  3.4298
  138CHL1   C1716422   6.796   2.558  13.847 -1.1095 -0.0832  0.4090
  138CHL1   H1716423   6.885   2.622  13.832 -0.9218 -0.5209 -0.3986
  138CHL1   C1316424   6.721   2.562  13.707  0.2658 -0.8049 -0.7882
  138CHL1   C1816425   6.573   2.520  13.718 -0.1035  0.0705 -0.4247
  138CHL1  H18A16426   6.520   2.601  13.772 -0.6895 -1.0248  0.6939
  138CHL1  H18B16427   6.509   2.515  13.627 -2.5648 -0.5038  1.2228
  138CHL1  H18C16428   6.569   2.431  13.785 -1.0166  2.1933  2.5532
  138CHL1   C1216429   6.737   2.706  13.637 -0.0202  0.4059 -0.5407
  138CHL1  H12A16430   6.678   2.787  13.685 -0.0658 -0.6485  1.2386
  138CHL1  H12B16431   6.844   2.734  13.640  0.0359  0.3326 -1.5288
  138CHL1   C1116432   6.692   2.692  13.489 -0.6145 -0.0799 -0.1433
  138CHL1  H11A16433   6.587   2.660  13.502 -0.7335  0.7745  1.1060
  138CHL1  H11B16434   6.698   2.789  13.435 -1.4574  0.0841  0.0534
  138CHL1    C916435   6.774   2.586  13.402 -0.1215 -0.3290 -0.7499
  138CHL1    H916436   6.882   2.611  13.402 -0.2220  0.1040 -0.8554
  138CHL1   C1016437   6.725   2.567  13.256  0.7275  0.1770 -0.4112
  138CHL1   C1916438   6.574   2.556  13.259  0.0847 -0.4509 -0.7515
  138CHL1  H19A16439   6.532   2.572  13.157 -2.5726 -0.0253  0.3227
  138CHL1  H19B16440   6.524   2.468  13.305  0.0649 -0.9437 -1.6914
  138CHL1  H19C16441   6.525   2.641  13.312 -0.5195 -0.1204 -1.8077
  138CHL1    C116442   6.784   2.687  13.174 -0.2841 -0.4393 -0.7242
  138CHL1   H1A16443   6.748   2.785  13.210  0.4784 -0.3863 -0.0789
  138CHL1   H1B16444   6.894   2.692  13.186 -0.5205 -1.3555  2.9902
  138CHL1    C216445   6.754   2.680  13.023 -0.4267  0.0880  0.2548
  138CHL1   H2A16446   6.803   2.763  12.969 -0.0824 -0.4661 -0.3019
  138CHL1   H2B16447   6.644   2.681  13.003 -0.5912 -0.8041  1.0058
  138CHL1   C2016448   6.724   2.598  13.977  0.4689 -0.5321  0.4252
  138CHL1   H2016449   6.635   2.534  13.994  0.3000 -0.4605 -0.1682
  138CHL1   C2116450   6.675   2.743  13.966 -0.8383  0.0267 -1.4448
  138CHL1  H21A16451   6.649   2.781  14.067 -1.2210 -0.8749 -1.1885
  138CHL1  H21B16452   6.578   2.737  13.911 -0.5840 -2.3566 -1.7141
  138CHL1  H21C16453   6.746   2.817  13.924 -0.2109  1.6714  2.1317
  138CHL1   C2216454   6.812   2.580  14.107 -0.3428 -0.8883 -0.4606
  138CHL1  H22A16455   6.734   2.590  14.185  1.0292 -1.3924  1.0441
  138CHL1  H22B16456   6.852   2.477  14.108 -0.3858 -0.9447 -2.2974
  138CHL1   C2316457   6.928   2.678  14.124 -0.1860 -0.1122  0.2753
  138CHL1  H23A16458   6.971   2.678  14.021 -1.6666  2.3025 -0.4124
  138CHL1  H23B16459   6.897   2.783  14.141 -0.4418  0.0980 -1.3141
  138CHL1   C2416460   7.034   2.637  14.230  0.2136  0.2970  0.6226
  138CHL1  H24A16461   7.079   2.541  14.196 -1.5709 -0.4956  0.3416
  138CHL1  H24B16462   7.112   2.715  14.240  0.0576  0.4796  0.4291
  138CHL1   C2516463   6.989   2.593  14.373 -0.0404 -0.0140  0.4311
  138CHL1   H2516464   6.899   2.531  14.358 -0.0447 -0.0558  0.6217
  138CHL1   C2616465   7.097   2.521  14.454  0.4974  0.3582 -0.3225
  138CHL1  H26A16466   7.061   2.484  14.552  0.8056  3.2230  0.9644
  138CHL1  H26B16467   7.137   2.437  14.393 -0.3789 -0.5207  0.2890
  138CHL1  H26C16468   7.180   2.590  14.483  0.0029 -0.2821  3.0375
  138CHL1   C2716469   6.953   2.721  14.450  0.0863  0.0262  0.1932
  138CHL1  H27A16470   7.031   2.796  14.425 -2.0902  1.4697 -2.9875
  138CHL1  H27B16471   6.857   2.763  14.412 -0.7382 -0.9496  1.1223
  138CHL1  H27C16472   6.941   2.696  14.558 -1.9203 -1.2802 -0.2877
  139CHL1    C316473   7.602   0.209  12.700 -0.6797  0.1946 -0.9276
  139CHL1    H316474   7.501   0.256  12.694  0.1122  1.8087 -1.9760
  139CHL1    O316475   7.625   0.136  12.581 -0.0603 -0.1135 -0.0673
  139CHL1   H3'16476   7.715   0.109  12.601 -0.1885  0.2652  1.1243
  139CHL1    C416477   7.707   0.323  12.711  0.0253 -0.4609 -0.1594
  139CHL1   H4A16478   7.814   0.298  12.692  0.4491  1.8173 -1.1299
  139CHL1   H4B16479   7.681   0.393  12.629  0.0158 -0.6723 -0.3391
  139CHL1    C516480   7.686   0.395  12.843  0.1528  0.1091  0.0033
  139CHL1    C616481   7.653   0.527  12.846  0.8305  0.2248 -0.0254
  139CHL1    H616482   7.633   0.574  12.749  0.3053 -2.1052 -1.1334
  139CHL1    C716483   7.636   0.603  12.977 -0.8554 -0.4635 -0.4246
  139CHL1   H7A16484   7.697   0.692  12.954  1.3705 -1.8164 -0.0416
  139CHL1   H7B16485   7.532   0.640  12.990 -0.6156  0.0496  0.0394
  139CHL1    C816486   7.689   0.529  13.101  0.1417  0.2633 -0.8636
  139CHL1    H816487   7.800   0.538  13.097  0.0776  2.0499  0.1987
  139CHL1   C1416488   7.630   0.593  13.228  0.7543  0.3016  0.0355
  139CHL1   H1416489   7.521   0.575  13.220  1.0085 -0.9360 -0.9508
  139CHL1   C1516490   7.635   0.749  13.255  0.5275 -0.5161 -1.0397
  139CHL1  H15A16491   7.734   0.790  13.228  0.3906  0.1149 -0.6088
  139CHL1  H15B16492   7.558   0.806  13.200 -0.1296 -1.7825 -1.4732
  139CHL1   C1616493   7.613   0.770  13.415  0.4309  0.5570  0.0744
  139CHL1  H16A16494   7.697   0.826  13.461  0.7632  0.0223  0.1292
  139CHL1  H16B16495   7.522   0.819  13.456  0.1592  0.7332 -0.7343
  139CHL1   C1716496   7.623   0.626  13.468  0.4811  0.6764 -0.9696
  139CHL1   H1716497   7.524   0.581  13.451 -0.6061  2.3663  0.4649
  139CHL1   C1316498   7.686   0.536  13.353  0.9013 -0.4740 -0.6722
  139CHL1   C1816499   7.840   0.564  13.359 -0.1410 -0.4524  0.3546
  139CHL1  H18A16500   7.893   0.517  13.274 -1.1451 -0.4119 -0.3121
  139CHL1  H18B16501   7.877   0.669  13.362  2.0780 -1.1837 -0.0144
  139CHL1  H18C16502   7.888   0.510  13.443  0.1408 -0.7815 -0.0157
  139CHL1   C1216503   7.651   0.386  13.356  0.2216  0.1767  0.0690
  139CHL1  H12A16504   7.700   0.343  13.447 -0.2307  0.2602  0.3548
  139CHL1  H12B16505   7.541   0.376  13.355  0.3179 -1.3169  1.2209
  139CHL1   C1116506   7.698   0.311  13.229  0.1898 -0.8410 -0.9499
  139CHL1  H11A16507   7.808   0.325  13.231 -0.0902  2.1500 -1.2912
  139CHL1  H11B16508   7.670   0.204  13.227  1.4447 -1.1857 -1.0481
  139CHL1    C916509   7.654   0.380  13.099  0.6177 -0.1947 -0.5345
  139CHL1    H916510   7.543   0.373  13.097  0.5872 -0.2665  0.7048
  139CHL1   C1016511   7.699   0.307  12.972 -1.5126 -0.2139  0.7261
  139CHL1   C1916512   7.842   0.252  12.978 -0.3332  0.5790 -0.0209
  139CHL1  H19A16513   7.917   0.335  12.985 -1.0990  1.3324 -0.5350
  139CHL1  H19B16514   7.851   0.189  13.069 -2.5729  1.6875  1.0410
  139CHL1  H19C16515   7.882   0.187  12.897  2.4068  1.5451  0.4306
  139CHL1    C116516   7.605   0.186  12.944 -0.3931  0.1786  0.1538
  139CHL1   H1A16517   7.591   0.125  13.036 -1.6531  0.4373  0.1489
  139CHL1   H1B16518   7.506   0.237  12.941 -1.0138 -0.6431  3.1649
  139CHL1    C216519   7.620   0.112  12.810 -0.7775  0.2311  0.4157
  139CHL1   H2A16520   7.547   0.029  12.806 -1.0695  0.5354 -2.7503
  139CHL1   H2B16521   7.722   0.069  12.808 -0.9854 -0.3394  1.4845
  139CHL1   C2016522   7.667   0.604  13.611 -0.5662  0.0052 -0.7056
  139CHL1   H2016523   7.715   0.504  13.624  0.6748  0.7709  1.0801
  139CHL1   C2116524   7.547   0.601  13.707 -0.4486  0.0807  0.1952
  139CHL1  H21A16525   7.567   0.564  13.810 -2.4275  0.9606  0.9568
  139CHL1  H21B16526   7.468   0.530  13.674 -0.7108 -0.0844  1.1282
  139CHL1  H21C16527   7.499   0.699  13.728 -0.1684  0.1408  0.5556
  139CHL1   C2216528   7.777   0.699  13.668 -0.0916  0.5344  0.1787
  139CHL1  H22A16529   7.873   0.680  13.616  0.0732  1.2109  0.2371
  139CHL1  H22B16530   7.761   0.808  13.659 -1.1302  0.6404  2.6171
  139CHL1   C2316531   7.806   0.688  13.820 -0.3692 -0.0780 -0.4080
  139CHL1  H23A16532   7.711   0.682  13.877  0.2248 -0.4574  0.5671
  139CHL1  H23B16533   7.861   0.593  13.834 -0.5723 -0.0541  0.5822
  139CHL1   C2416534   7.908   0.789  13.871  0.0910 -0.3307  0.1941
  139CHL1  H24A16535   8.007   0.787  13.821  0.5250 -1.8932  1.0479
  139CHL1  H24B16536   7.864   0.885  13.836 -0.4187 -0.7267 -0.2693
  139CHL1   C2516537   7.933   0.799  14.017 -0.3074 -0.2010 -0.5263
  139CHL1   H2516538   7.831   0.803  14.060 -0.5124 -1.7966 -0.8028
  139CHL1   C2616539   8.000   0.670  14.065  0.0561  0.5463 -0.3604
  139CHL1  H26A16540   7.939   0.579  14.046  0.9080 -0.0578 -0.2751
  139CHL1  H26B16541   8.102   0.668  14.021  1.3418  1.4728  2.3926
  139CHL1  H26C16542   8.017   0.670  14.175 -1.1513  0.1667 -0.1542
  139CHL1   C2716543   8.023   0.922  14.045  0.0761 -0.1692 -1.1065
  139CHL1  H27A16544   8.080   0.916  14.141  1.1371 -0.4603 -1.7402
  139CHL1  H27B16545   8.102   0.939  13.969  3.3449 -0.8421  1.8454
  139CHL1  H27C16546   7.957   1.011  14.053 -0.5677 -0.7571  0.6675
  140CHL1    C316547   6.893   1.002  13.230  0.7626 -0.1009  0.0133
  140CHL1    H316548   6.803   1.012  13.295  0.5334 -0.6777 -0.2146
  140CHL1    O316549   6.836   1.002  13.104  0.1360 -0.5563  0.1128
  140CHL1   H3'16550   6.772   1.073  13.096  0.8851 -0.0103 -1.6336
  140CHL1    C416551   6.979   1.124  13.251  0.0155  0.3041 -0.0779
  140CHL1   H4A16552   7.053   1.132  13.169 -1.0949 -0.2602 -1.1768
  140CHL1   H4B16553   6.919   1.218  13.247 -3.2767 -1.6474 -0.4082
  140CHL1    C516554   7.063   1.120  13.379 -0.5249 -0.4700  0.6056
  140CHL1    C616555   7.071   1.235  13.451 -0.4333 -0.4399 -0.1795
  140CHL1    H616556   7.029   1.334  13.426  1.1785  1.1642  2.8270
  140CHL1    C716557   7.155   1.241  13.576  0.3770 -0.1131 -0.1737
  140CHL1   H7A16558   7.232   1.321  13.568  2.1420 -1.7614 -0.2812
  140CHL1   H7B16559   7.090   1.264  13.663  0.9410  0.7755  0.0331
  140CHL1    C816560   7.247   1.123  13.600  0.2261  0.1766  0.0684
  140CHL1    H816561   7.341   1.126  13.541  0.8551  0.9502  1.0652
  140CHL1   C1416562   7.282   1.134  13.751  0.3150  0.2512  0.8186
  140CHL1   H1416563   7.183   1.134  13.802 -0.1979  1.8430 -0.0961
  140CHL1   C1516564   7.350   1.262  13.808  0.0878  0.4830  0.3741
  140CHL1  H15A16565   7.443   1.294  13.757  0.1482 -0.3711 -0.0751
  140CHL1  H15B16566   7.274   1.343  13.808  0.1918  0.6286 -1.2537
  140CHL1   C1616567   7.394   1.214  13.948 -0.1641  0.2181  0.2536
  140CHL1  H16A16568   7.500   1.240  13.969 -0.1486 -0.3662  0.9630
  140CHL1  H16B16569   7.323   1.258  14.020  0.3218  1.7702 -0.1735
  140CHL1   C1716570   7.371   1.055  13.953  0.1246  0.5376  0.1124
  140CHL1   H1716571   7.268   1.044  13.993 -0.4126  0.8876 -1.1466
  140CHL1   C1316572   7.353   1.009  13.805 -0.7063  0.4031  0.5563
  140CHL1   C1816573   7.496   0.984  13.737  0.8854 -0.3167 -0.6459
  140CHL1  H18A16574   7.570   1.061  13.765  2.0143 -1.5331 -0.1882
  140CHL1  H18B16575   7.547   0.897  13.783  0.1599 -1.2197 -1.5023
  140CHL1  H18C16576   7.495   0.972  13.627  1.1245 -1.6070 -0.5232
  140CHL1   C1216577   7.260   0.890  13.771 -0.5596 -0.1323 -0.7417
  140CHL1  H12A16578   7.311   0.805  13.821 -1.2237  0.9348  1.9318
  140CHL1  H12B16579   7.166   0.908  13.828  0.3085 -2.4181  1.6092
  140CHL1   C1116580   7.239   0.867  13.620  0.4295 -0.5014  0.4229
  140CHL1  H11A16581   7.321   0.848  13.548 -1.5188  1.9608 -2.6956
  140CHL1  H11B16582   7.170   0.781  13.605 -0.4324 -0.0992  1.8694
  140CHL1    C916583   7.169   0.994  13.570 -0.7595 -0.4498  0.1827
  140CHL1    H916584   7.073   1.004  13.625 -0.8941 -0.7899  0.0139
  140CHL1   C1016585   7.119   0.989  13.421 -0.5926 -0.3649 -0.1151
  140CHL1   C1916586   7.230   0.950  13.318 -0.5748 -0.9428  0.0082
  140CHL1  H19A16587   7.251   0.841  13.327  0.2933 -0.7936 -0.0752
  140CHL1  H19B16588   7.213   0.977  13.212 -2.1812 -0.0559  0.4659
  140CHL1  H19C16589   7.320   1.005  13.354 -1.9609  0.9665  0.6844
  140CHL1    C116590   7.012   0.877  13.409 -0.5546 -0.5949  0.0264
  140CHL1   H1A16591   7.046   0.776  13.441  1.0971  0.2829  1.2211
  140CHL1   H1B16592   6.925   0.903  13.472 -0.1069  1.6389 -0.2054
  140CHL1    C216593   6.961   0.869  13.266  0.4791  0.2107 -0.1931
  140CHL1   H2A16594   6.890   0.783  13.260  1.4310 -0.6735  0.8218
  140CHL1   H2B16595   7.037   0.856  13.186 -1.1154 -0.1553 -1.7090
  140CHL1   C2016596   7.453   0.974  14.055 -0.0543 -0.0376 -0.8458
  140CHL1   H2016597   7.422   1.009  14.156 -0.2092 -0.4532 -0.7484
  140CHL1   C2116598   7.605   1.020  14.058 -0.5937  0.3061 -0.3614
  140CHL1  H21A16599   7.654   1.004  13.960 -0.6126 -0.2933 -0.2811
  140CHL1  H21B16600   7.661   0.950  14.124 -1.1154 -1.8080 -2.0463
  140CHL1  H21C16601   7.624   1.117  14.109  0.1142 -0.6074  1.2005
  140CHL1   C2216602   7.426   0.829  14.058  0.1884  0.4349 -0.3357
  140CHL1  H22A16603   7.318   0.815  14.082  0.0293 -0.1372 -1.3603
  140CHL1  H22B16604   7.448   0.791  13.956 -2.0520 -0.4660 -0.5502
  140CHL1   C2316605   7.507   0.744  14.165  0.0829 -0.8439 -0.1645
  140CHL1  H23A16606   7.608   0.729  14.122  0.9199 -0.3969  1.5643
  140CHL1  H23B16607   7.525   0.798  14.260 -0.3211 -0.6370 -0.2040
  140CHL1   C2416608   7.453   0.602  14.202  0.6112 -0.4371 -0.9122
  140CHL1  H24A16609   7.507   0.572  14.294 -1.4373 -0.0639  0.4628
  140CHL1  H24B16610   7.349   0.603  14.240  1.4420 -0.6126  1.5163
  140CHL1   C2516611   7.462   0.494  14.092 -0.3348  0.1186 -0.2101
  140CHL1   H2516612   7.417   0.532  13.998 -4.3147  0.5126  1.6737
  140CHL1   C2616613   7.384   0.373  14.135  0.3935 -1.2444 -0.0185
  140CHL1  H26A16614   7.279   0.405  14.151  0.3368 -0.2821 -1.9765
  140CHL1  H26B16615   7.370   0.293  14.060 -1.4048  0.5464 -1.7188
  140CHL1  H26C16616   7.429   0.343  14.232 -2.6203 -0.1889  1.8275
  140CHL1   C2716617   7.607   0.465  14.068 -0.0734  0.5688 -0.2456
  140CHL1  H27A16618   7.652   0.435  14.165  0.5614  3.6942  0.5229
  140CHL1  H27B16619   7.622   0.381  13.996  1.5276  0.8965 -0.3226
  140CHL1  H27C16620   7.664   0.551  14.028  0.4266 -0.5401 -2.0463
  141DOPC     N16621   3.380   4.886  16.845  0.6001  0.1475 -0.1842
  141DOPC   C1216622   3.360   4.911  16.697 -0.7336 -0.1412 -0.0128
  141DOPC  H12A16623   3.406   4.833  16.639  0.6136 -0.4874  1.4459
  141DOPC  H12B16624   3.408   5.007  16.682  1.9381 -1.5278 -0.8353
  141DOPC   C1316625   3.370   5.014  16.918  0.0590  0.2430 -0.4488
  141DOPC  H13A16626   3.269   5.052  16.924  0.3670  1.0468 -0.2634
  141DOPC  H13B16627   3.412   5.003  17.017 -0.8286  1.8395  0.1530
  141DOPC  H13C16628   3.422   5.090  16.862  1.6099 -0.5336 -0.1198
  141DOPC   C1416629   3.519   4.817  16.875  0.6224 -0.1834  0.1643
  141DOPC  H14A16630   3.522   4.728  16.814  0.2908 -0.3571  0.3970
  141DOPC  H14B16631   3.602   4.876  16.838 -1.9286  2.5653 -1.6536
  141DOPC  H14C16632   3.536   4.799  16.980  2.8275 -0.7265 -0.2421
  141DOPC   C1516633   3.282   4.786  16.897 -0.6139  0.1724  0.1760
  141DOPC  H15A16634   3.186   4.808  16.853 -0.4083  0.4770 -0.1248
  141DOPC  H15B16635   3.270   4.798  17.004  0.2784  1.0912  0.1917
  141DOPC  H15C16636   3.292   4.681  16.874 -1.2053  0.8706 -4.0445
  141DOPC   C1116637   3.213   4.915  16.653  1.1128  0.0058 -0.1638
  141DOPC  H11A16638   3.224   4.943  16.546  0.8820  1.6526  0.2180
  141DOPC  H11B16639   3.162   4.819  16.676  1.8851 -0.3152  0.2522
  141DOPC     P16640   3.110   5.154  16.679 -0.3054 -0.1961  0.2497
  141DOPC   O1316641   3.230   5.239  16.672  0.3898 -0.2290 -0.3874
  141DOPC   O1416642   2.987   5.200  16.743  0.0904 -0.2449 -0.1267
  141DOPC   O1216643   3.143   5.012  16.730 -0.2984  0.4420  0.0779
  141DOPC   O1116644   3.070   5.126  16.526 -0.6998 -0.5251  0.3221
  141DOPC    C116645   2.946   5.053  16.498  0.0760 -0.2938  0.0902
  141DOPC    HA16646   2.866   5.129  16.496 -0.0316 -0.4192 -0.3532
  141DOPC    HB16647   2.928   4.979  16.579  0.9307  0.9346  1.4750
  141DOPC    C216648   2.956   4.971  16.369 -0.2789  0.5169 -0.2427
  141DOPC    HS16649   3.028   4.890  16.394  1.9685  2.6443  0.5969
  141DOPC   O2116650   3.003   5.049  16.257 -0.4634 -0.1704 -0.4288
  141DOPC   C2116651   3.080   4.976  16.168 -0.1768  0.0275 -0.5128
  141DOPC   O2216652   3.142   4.881  16.204  0.2894  0.7001  0.3531
  141DOPC   C2216653   3.062   5.028  16.027 -0.4390 -0.1147  0.8304
  141DOPC   H2R16654   3.080   5.137  16.025  5.1508 -0.6379 -3.7289
  141DOPC   H2S16655   2.956   5.002  16.008 -0.2956  0.7087 -1.4570
  141DOPC    C316656   2.813   4.904  16.332  0.3939 -0.0073 -0.0999
  141DOPC    HX16657   2.739   4.981  16.300 -3.5041 -3.3593  0.0728
  141DOPC    HY16658   2.772   4.871  16.430  1.4725 -0.8490  0.0874
  141DOPC   O3116659   2.815   4.802  16.227 -0.2465 -0.0830  0.1736
  141DOPC   C3116660   2.699   4.731  16.214 -0.2082  0.1785 -0.9491
  141DOPC   O3216661   2.593   4.760  16.263  0.5753 -0.6558  0.3447
  141DOPC   C3216662   2.728   4.622  16.111 -0.1779 -0.7941  0.1045
  141DOPC   H2X16663   2.787   4.542  16.159 -0.9970 -1.4284  0.0838
  141DOPC   H2Y16664   2.630   4.576  16.086 -0.0476 -1.3428  0.5898
  141DOPC   C2316665   3.146   4.962  15.917  0.4193  0.4559 -0.2702
  141DOPC   H3R16666   3.109   5.013  15.825 -1.1302 -0.7490 -0.3506
  141DOPC   H3S16667   3.125   4.854  15.929 -1.5963  0.8338  0.1384
  141DOPC   C2416668   3.292   5.001  15.937 -0.7116  0.3471 -0.1051
  141DOPC   H4R16669   3.341   4.953  15.849  2.3135 -1.0710  2.1524
  141DOPC   H4S16670   3.330   4.955  16.030 -0.5240 -0.4486 -0.5617
  141DOPC   C2516671   3.333   5.146  15.934  0.5927  0.3608 -0.6108
  141DOPC   H5R16672   3.286   5.209  16.012  1.0353  2.1546 -1.7364
  141DOPC   H5S16673   3.298   5.191  15.838  0.2987  0.3767 -0.4974
  141DOPC   C2616674   3.484   5.160  15.956 -0.3664 -0.0383  0.3568
  141DOPC   H6R16675   3.541   5.111  15.875 -0.0797  2.2580 -0.9370
  141DOPC   H6S16676   3.523   5.112  16.048 -1.2447 -2.2132 -0.3537
  141DOPC   C2716677   3.517   5.311  15.945  0.4788  0.7546 -0.4091
  141DOPC   H7R16678   3.511   5.350  16.048  2.7019  0.1976 -0.0131
  141DOPC   H7S16679   3.435   5.358  15.886  0.4665  0.4860 -0.6093
  141DOPC   C2816680   3.646   5.351  15.874  0.1821  0.3311 -0.5171
  141DOPC   H8R16681   3.641   5.286  15.784 -2.0702 -2.6565  1.5666
  141DOPC   H8S16682   3.734   5.329  15.938  0.1766  1.4404 -0.1067
  141DOPC   C2916683   3.651   5.493  15.842  0.6871 -0.4363 -0.0226
  141DOPC   H9R16684   3.626   5.560  15.926 -0.9981 -1.0583  0.0219
  141DOPC  C21016685   3.675   5.556  15.729  0.4371 -0.4855 -0.2201
  141DOPC  H10R16686   3.671   5.665  15.725  0.7454 -0.4957 -0.9921
  141DOPC  C21116687   3.701   5.491  15.591  0.3499  0.5296 -0.3611
  141DOPC  H11R16688   3.690   5.380  15.592  1.7918  0.3180 -2.2527
  141DOPC  H11S16689   3.808   5.511  15.568  0.0258  0.1189 -2.3573
  141DOPC  C21216690   3.609   5.551  15.483  0.6104 -0.1700  0.5527
  141DOPC  H12R16691   3.610   5.662  15.494  0.7473 -0.1344  0.1696
  141DOPC  H12S16692   3.505   5.522  15.508 -0.5235  1.7765 -1.5017
  141DOPC  C21316693   3.639   5.509  15.338 -0.6741 -0.2264  0.2214
  141DOPC  H13R16694   3.652   5.399  15.338 -0.2462 -0.1808 -0.5092
  141DOPC  H13S16695   3.733   5.560  15.309 -0.6502  0.5716  1.5912
  141DOPC  C21416696   3.525   5.554  15.243  0.7915  0.3179 -0.7042
  141DOPC  H14R16697   3.503   5.661  15.260 -1.8259 -0.4136  1.3058
  141DOPC  H14S16698   3.430   5.506  15.274  1.3880  1.3176  3.2471
  141DOPC  C21516699   3.551   5.524  15.097  0.4342  0.7422 -0.1831
  141DOPC  H15R16700   3.653   5.555  15.067  0.3193 -0.1913 -1.6177
  141DOPC  H15S16701   3.474   5.585  15.045 -0.5355 -1.6471 -1.7332
  141DOPC  C21616702   3.538   5.379  15.073  0.4145  0.5109 -0.4635
  141DOPC  H16R16703   3.437   5.344  15.104  0.9386 -1.6903 -1.0922
  141DOPC  H16S16704   3.614   5.317  15.126  0.1315  0.4695 -0.0968
  141DOPC  C21716705   3.539   5.337  14.930 -0.0008 -0.5706  0.4883
  141DOPC  H17R16706   3.621   5.384  14.872 -1.9639  3.6506  0.6994
  141DOPC  H17S16707   3.444   5.373  14.886 -0.2233  1.9126  2.7369
  141DOPC  C21816708   3.532   5.187  14.924  0.0745  0.0837  0.3086
  141DOPC  H18R16709   3.610   5.134  14.981  0.6531 -0.3191 -0.8164
  141DOPC  H18S16710   3.517   5.148  14.821 -2.3574 -1.9142  1.3047
  141DOPC  H18T16711   3.437   5.162  14.975 -1.0167 -0.2639 -1.7573
  141DOPC   C3316712   2.786   4.673  15.970 -0.6005 -0.6677 -0.0949
  141DOPC   H3X16713   2.891   4.703  15.993 -0.5895 -0.5918 -0.2387
  141DOPC   H3Y16714   2.740   4.770  15.940 -2.1224 -0.1544  3.3836
  141DOPC   C3416715   2.791   4.556  15.873  1.0673  0.0382  0.6731
  141DOPC   H4X16716   2.714   4.477  15.885  1.1514 -0.1307  0.1456
  141DOPC   H4Y16717   2.876   4.490  15.900  0.9371 -0.4726 -0.1293
  141DOPC   C3516718   2.790   4.603  15.725  0.4838 -0.3827 -0.4121
  141DOPC   H5X16719   2.689   4.641  15.698 -0.6405 -1.4545  1.9440
  141DOPC   H5Y16720   2.810   4.508  15.672  1.4571  0.5311 -1.7189
  141DOPC   C3616721   2.896   4.707  15.714 -0.4268 -0.3384  0.5958
  141DOPC   H6X16722   2.859   4.801  15.759  3.0326  1.5469 -0.0526
  141DOPC   H6Y16723   2.985   4.668  15.768 -0.8376 -2.5130 -0.1738
  141DOPC   C3716724   2.932   4.738  15.571  0.1098  0.2238  0.6761
  141DOPC   H7X16725   2.963   4.640  15.528 -0.2067 -0.2297  1.4522
  141DOPC   H7Y16726   2.838   4.769  15.522  0.0019 -0.4698  0.4261
  141DOPC   C3816727   3.040   4.845  15.547 -0.5321  0.4140  0.2527
  141DOPC   H8X16728   3.126   4.808  15.607 -1.7043 -1.3140  0.9378
  141DOPC   H8Y16729   3.011   4.939  15.600 -1.7840 -1.3338  2.8895
  141DOPC   C3916730   3.071   4.875  15.401  0.0121 -0.4825  0.0087
  141DOPC   H9X16731   2.987   4.910  15.340  0.3976  0.8240  0.1917
  141DOPC  C31016732   3.192   4.850  15.347  0.1110 -0.1882  0.9929
  141DOPC  H10X16733   3.202   4.868  15.239 -0.7256 -1.5718  0.6556
  141DOPC  C31116734   3.315   4.790  15.415  0.4060  0.9167 -0.3360
  141DOPC  H11X16735   3.386   4.759  15.336  0.5260  2.1614 -0.7453
  141DOPC  H11Y16736   3.278   4.697  15.464  3.1435 -0.2379 -0.3321
  141DOPC  C31216737   3.393   4.885  15.508 -0.7090 -0.3226  0.0322
  141DOPC  H12X16738   3.465   4.833  15.574  2.0928  0.9540 -1.7989
  141DOPC  H12Y16739   3.321   4.936  15.576  1.1816  0.6511  1.4093
  141DOPC  C31316740   3.472   4.997  15.424 -0.1632 -0.1941  0.8254
  141DOPC  H13X16741   3.567   4.957  15.383 -0.5853 -0.8096  0.4413
  141DOPC  H13Y16742   3.405   5.028  15.341  0.0543 -0.9910  0.3468
  141DOPC  C31416743   3.506   5.133  15.497  0.0550  0.5921  0.6192
  141DOPC  H14X16744   3.582   5.102  15.571  0.4179 -0.8141 -0.3006
  141DOPC  H14Y16745   3.537   5.209  15.422 -2.4279  2.7937  1.6500
  141DOPC  C31516746   3.392   5.195  15.575  0.0522  0.5907 -0.2552
  141DOPC  H15X16747   3.434   5.289  15.616 -0.3165  0.3631  0.6699
  141DOPC  H15Y16748   3.367   5.123  15.657  0.6839 -1.1567 -1.5249
  141DOPC  C31616749   3.266   5.232  15.494  0.2791  0.6767  0.1952
  141DOPC  H16X16750   3.302   5.314  15.429  1.9415  1.9073  2.5152
  141DOPC  H16Y16751   3.244   5.150  15.423  2.0428  1.2382 -1.0549
  141DOPC  C31716752   3.153   5.286  15.583 -0.7767  0.2898 -0.3078
  141DOPC  H17X16753   3.060   5.281  15.522 -0.0929 -0.7539 -1.3137
  141DOPC  H17Y16754   3.132   5.202  15.652 -1.0939  0.6951  0.0895
  141DOPC  C31816755   3.190   5.420  15.646 -0.5011 -0.1818 -0.5455
  141DOPC  H18X16756   3.162   5.507  15.582 -0.3865 -0.5880 -1.1517
  141DOPC  H18Y16757   3.141   5.428  15.746  1.5786 -2.4821  0.7645
  141DOPC  H18Z16758   3.295   5.434  15.681 -0.6187  0.1244 -0.3045
  142DOPC     N16759   4.525   5.885  17.114  0.0130  0.2505 -0.4871
  142DOPC   C1216760   4.509   5.873  16.964 -0.3155 -0.8080 -0.6248
  142DOPC  H12A16761   4.603   5.892  16.915  0.1897 -1.1040  0.1974
  142DOPC  H12B16762   4.444   5.955  16.939 -1.1588 -1.6310 -1.2071
  142DOPC   C1316763   4.584   6.010  17.159  0.0840  0.1336 -0.1939
  142DOPC  H13A16764   4.691   6.004  17.168  0.0123  1.0128  5.4636
  142DOPC  H13B16765   4.552   6.088  17.092 -1.9283 -2.8637 -2.9942
  142DOPC  H13C16766   4.558   6.035  17.261  1.1980  0.9895 -0.1031
  142DOPC   C1416767   4.616   5.778  17.156 -0.2866  0.8804 -0.2339
  142DOPC  H14A16768   4.627   5.778  17.264 -1.6348  0.2922 -0.0752
  142DOPC  H14B16769   4.563   5.688  17.127  1.1322  0.6342 -2.2015
  142DOPC  H14C16770   4.713   5.788  17.111  0.5190 -1.1565  0.8755
  142DOPC   C1516771   4.392   5.868  17.181  0.2347 -0.2777 -1.1666
  142DOPC  H15A16772   4.323   5.951  17.174 -1.2358 -1.1490  1.3768
  142DOPC  H15B16773   4.403   5.863  17.289 -1.8556 -1.3683 -0.9580
  142DOPC  H15C16774   4.341   5.776  17.156 -1.6584 -0.1422  1.6912
  142DOPC   C1116775   4.441   5.748  16.904 -0.0649  0.8407 -0.3164
  142DOPC  H11A16776   4.340   5.737  16.950  0.8189 -0.8278  1.3810
  142DOPC  H11B16777   4.423   5.748  16.795  1.0410 -2.4808 -0.6037
  142DOPC     P16778   4.638   5.587  16.835 -0.3748  0.2046  0.8901
  142DOPC   O1316779   4.676   5.451  16.874  0.0720 -0.4915  0.4184
  142DOPC   O1416780   4.762   5.671  16.837  0.1595  0.0966  0.3726
  142DOPC   O1216781   4.528   5.639  16.935 -0.6630 -0.0870  0.2356
  142DOPC   O1116782   4.573   5.583  16.687  0.1935 -0.0344  0.0629
  142DOPC    C116783   4.449   5.513  16.676 -0.0361  0.1328 -0.0950
  142DOPC    HA16784   4.395   5.539  16.582 -2.8389 -0.6282  1.1928
  142DOPC    HB16785   4.381   5.542  16.759  1.8190  1.2852  1.0948
  142DOPC    C216786   4.468   5.361  16.672 -0.2471 -0.0314  0.0478
  142DOPC    HS16787   4.510   5.323  16.767  2.2727  1.3286 -0.4392
  142DOPC   O2116788   4.553   5.328  16.558  0.0936  0.1023 -0.5918
  142DOPC   C2116789   4.642   5.232  16.584  0.1088  0.0577 -0.3373
  142DOPC   O2216790   4.659   5.176  16.690 -0.4027  0.5384  0.0734
  142DOPC   C2216791   4.687   5.177  16.447  0.1573 -0.1270 -0.1893
  142DOPC   H2R16792   4.789   5.136  16.463 -0.6286 -2.7486 -1.2581
  142DOPC   H2S16793   4.681   5.258  16.372 -1.6084 -0.6737 -0.6933
  142DOPC    C316794   4.338   5.279  16.639  0.2099  0.5635 -0.1309
  142DOPC    HX16795   4.257   5.295  16.713  1.2289 -1.3424  1.5015
  142DOPC    HY16796   4.366   5.172  16.650 -1.9373  0.0964  1.3755
  142DOPC   O3116797   4.297   5.318  16.501  0.4138  0.5137  0.4988
  142DOPC   C3116798   4.252   5.212  16.436 -0.4009 -0.4691 -0.2806
  142DOPC   O3216799   4.224   5.102  16.478  0.0571 -0.0435 -0.1889
  142DOPC   C3216800   4.252   5.255  16.294 -0.2616 -0.1497 -0.3680
  142DOPC   H2X16801   4.200   5.353  16.297 -1.2810 -0.6948  0.7558
  142DOPC   H2Y16802   4.356   5.274  16.260 -0.4659 -0.2644 -1.0590
  142DOPC   C2316803   4.599   5.062  16.383 -0.2605  0.1716  0.1957
  142DOPC   H3R16804   4.505   5.114  16.353 -0.2125 -0.4459 -1.0910
  142DOPC   H3S16805   4.581   4.984  16.459 -1.1776 -0.4515 -0.6448
  142DOPC   C2416806   4.675   5.009  16.264 -0.2083  0.3481 -0.2731
  142DOPC   H4R16807   4.769   4.959  16.294  0.5180  2.4294  1.1232
  142DOPC   H4S16808   4.708   5.097  16.206  2.9463 -0.1750  0.5623
  142DOPC   C2516809   4.583   4.919  16.184 -0.2686  0.0245 -0.8717
  142DOPC   H5R16810   4.480   4.960  16.179 -0.1546  0.2363 -1.6645
  142DOPC   H5S16811   4.566   4.820  16.231 -0.6468  0.9628  1.0677
  142DOPC   C2616812   4.616   4.918  16.035 -0.3960  0.2506 -0.2840
  142DOPC   H6R16813   4.718   4.874  16.035 -0.9867 -1.2240  0.9892
  142DOPC   H6S16814   4.614   5.022  15.997 -0.4517  0.5832  0.6143
  142DOPC   C2716815   4.529   4.826  15.946  0.3440  0.2450  0.3447
  142DOPC   H7R16816   4.506   4.732  16.001 -0.1084  0.7820  1.1028
  142DOPC   H7S16817   4.577   4.795  15.851 -0.2585 -0.0772  0.1393
  142DOPC   C2816818   4.394   4.898  15.915 -0.2106  0.8249 -0.3800
  142DOPC   H8R16819   4.404   4.983  15.845  0.4044  0.7143 -0.4341
  142DOPC   H8S16820   4.348   4.937  16.008  0.3286 -0.4659  0.4610
  142DOPC   C2916821   4.291   4.798  15.868 -0.0277  0.8545 -0.1188
  142DOPC   H9R16822   4.229   4.742  15.939  1.0833 -0.8158 -0.4221
  142DOPC  C21016823   4.260   4.773  15.735  0.9400  0.3616 -0.2834
  142DOPC  H10R16824   4.186   4.696  15.707  2.1801  0.1782 -3.5711
  142DOPC  C21116825   4.325   4.840  15.620  0.0568  0.5135  0.4873
  142DOPC  H11R16826   4.424   4.881  15.649  1.0605 -2.0267  0.9047
  142DOPC  H11S16827   4.273   4.933  15.586 -0.0138  0.6818  1.0570
  142DOPC  C21216828   4.329   4.762  15.487 -0.9448 -0.2872  0.2257
  142DOPC  H12R16829   4.393   4.671  15.488 -0.6916 -0.1501 -1.3035
  142DOPC  H12S16830   4.386   4.831  15.421 -0.5025 -0.0821  0.8149
  142DOPC  C21316831   4.189   4.720  15.421  0.4265 -0.1461  0.0852
  142DOPC  H13R16832   4.124   4.810  15.430  1.1845  0.4177  0.0844
  142DOPC  H13S16833   4.141   4.642  15.483 -0.4114 -0.6518 -1.1496
  142DOPC  C21416834   4.196   4.688  15.273  0.3817  0.4333 -0.2813
  142DOPC  H14R16835   4.098   4.643  15.245  0.0488  0.9572  0.0354
  142DOPC  H14S16836   4.272   4.607  15.259  1.8934  1.7517  0.0519
  142DOPC  C21516837   4.237   4.812  15.189 -0.1527  0.3075 -0.4005
  142DOPC  H15R16838   4.340   4.841  15.219 -0.6283  1.5049  0.1652
  142DOPC  H15S16839   4.174   4.897  15.223  0.8944 -0.1911  3.1758
  142DOPC  C21616840   4.227   4.794  15.034  0.5855  0.4623 -0.7034
  142DOPC  H16R16841   4.131   4.744  15.009  0.2947  1.5904 -1.9455
  142DOPC  H16S16842   4.302   4.718  15.002 -0.8260 -0.4668 -1.9528
  142DOPC  C21716843   4.251   4.924  14.954  0.1685  0.9856 -0.4916
  142DOPC  H17R16844   4.348   4.966  14.988 -0.0407  0.0921  1.3622
  142DOPC  H17S16845   4.182   5.002  14.994  2.0430  1.2795  2.5051
  142DOPC  C21816846   4.234   4.908  14.806  0.3155  0.6214 -0.3730
  142DOPC  H18R16847   4.306   4.829  14.775 -1.4515 -1.7334  1.2280
  142DOPC  H18S16848   4.272   5.004  14.764 -1.9453  0.8174 -2.1280
  142DOPC  H18T16849   4.133   4.876  14.775  0.1522  2.1540 -1.6057
  142DOPC   C3316850   4.191   5.165  16.192  0.0404 -0.1694 -0.0871
  142DOPC   H3X16851   4.086   5.157  16.227  0.3926  0.6350  1.2209
  142DOPC   H3Y16852   4.236   5.063  16.187  1.3709  0.2258  2.3264
  142DOPC   C3416853   4.177   5.226  16.051 -0.3821  0.7974  0.2263
  142DOPC   H4X16854   4.268   5.229  15.987  1.1774  0.0143  2.2993
  142DOPC   H4Y16855   4.129   5.326  16.057  2.6209  2.4641 -1.3775
  142DOPC   C3516856   4.092   5.126  15.972 -0.2010 -0.3861  0.2588
  142DOPC   H5X16857   3.990   5.111  16.011 -0.9929 -1.7037 -2.0730
  142DOPC   H5Y16858   4.149   5.030  15.978  0.3427 -0.1684 -1.0231
  142DOPC   C3616859   4.072   5.166  15.826 -0.6122 -0.2237  0.1625
  142DOPC   H6X16860   4.049   5.275  15.831  0.6014  0.0901 -0.7854
  142DOPC   H6Y16861   4.155   5.148  15.755 -1.7636 -1.8658 -0.8285
  142DOPC   C3716862   3.945   5.099  15.770  0.4616 -0.3775 -1.1419
  142DOPC   H7X16863   3.960   4.989  15.773  1.5829 -0.2245 -0.6116
  142DOPC   H7Y16864   3.852   5.127  15.823  1.8649  1.7208  0.3330
  142DOPC   C3816865   3.911   5.140  15.622 -0.1627 -0.4183 -0.1858
  142DOPC   H8X16866   3.924   5.250  15.617 -0.4214 -0.3534  0.4699
  142DOPC   H8Y16867   3.805   5.116  15.599  0.5204 -1.7539 -2.1750
  142DOPC   C3916868   4.001   5.068  15.530  1.1184  0.6092 -0.2039
  142DOPC   H9X16869   4.079   5.008  15.580  1.2876  0.9525 -0.0494
  142DOPC  C31016870   3.999   5.086  15.399  0.2592 -0.3073 -0.0655
  142DOPC  H10X16871   4.068   5.030  15.335  0.6263  0.3034 -0.2156
  142DOPC  C31116872   3.901   5.164  15.323 -0.5125 -0.2243  0.6249
  142DOPC  H11X16873   3.930   5.271  15.314 -0.5735 -0.3176 -0.9631
  142DOPC  H11Y16874   3.794   5.154  15.353 -0.5455  0.9899  0.9606
  142DOPC  C31216875   3.909   5.105  15.179 -0.3158  0.6743  0.1993
  142DOPC  H12X16876   4.011   5.109  15.136  0.6572 -1.0182  2.1871
  142DOPC  H12Y16877   3.862   5.182  15.114  0.0807  0.1360 -0.7413
  142DOPC  C31316878   3.846   4.967  15.156 -0.2617 -0.2595  0.1721
  142DOPC  H13X16879   3.901   4.893  15.218  0.7158  0.1644 -0.1633
  142DOPC  H13Y16880   3.742   4.975  15.193 -0.4429  2.1379 -0.7031
  142DOPC  C31416881   3.845   4.912  15.014 -0.0927  0.7719 -0.2226
  142DOPC  H14X16882   3.768   4.973  14.962  1.6973  3.1372 -0.2666
  142DOPC  H14Y16883   3.936   4.926  14.952  0.7561 -1.1995  0.4976
  142DOPC  C31516884   3.807   4.760  15.013 -0.5212 -0.0894  0.0887
  142DOPC  H15X16885   3.748   4.734  15.104  0.5988  0.4965  1.0119
  142DOPC  H15Y16886   3.893   4.690  15.007 -0.8361 -0.5667  0.9133
  142DOPC  C31616887   3.725   4.714  14.883  0.4529 -0.3693 -0.0493
  142DOPC  H16X16888   3.688   4.612  14.908 -0.2556  0.4596  2.6167
  142DOPC  H16Y16889   3.625   4.762  14.882  0.0748 -1.1155 -0.8228
  142DOPC  C31716890   3.795   4.737  14.750 -0.4173  0.3441  0.2609
  142DOPC  H17X16891   3.781   4.845  14.728 -0.3435  0.1002 -1.0725
  142DOPC  H17Y16892   3.902   4.713  14.769 -0.4004  0.8733  0.8761
  142DOPC  C31816893   3.746   4.658  14.630  0.8077 -0.5071  0.1829
  142DOPC  H18X16894   3.648   4.699  14.600  1.4184  0.3130 -0.7858
  142DOPC  H18Y16895   3.809   4.659  14.538 -0.0216  0.0336 -0.3945
  142DOPC  H18Z16896   3.723   4.554  14.661  1.0699 -0.4077  0.7313
  143DOPC     N16897   3.085   5.645  16.486  0.4099 -0.3678  0.2077
  143DOPC   C1216898   3.021   5.673  16.349  0.6655 -0.2925 -0.3414
  143DOPC  H12A16899   2.931   5.613  16.348 -0.0209  0.6983  0.2569
  143DOPC  H12B16900   3.077   5.622  16.272  1.1113 -1.0618  0.4627
  143DOPC   C1316901   3.204   5.735  16.516 -0.2378 -0.2319 -0.5805
  143DOPC  H13A16902   3.244   5.699  16.610  0.1512  0.7752 -0.3524
  143DOPC  H13B16903   3.288   5.727  16.449 -0.0628  0.4804 -0.4500
  143DOPC  H13C16904   3.181   5.840  16.522 -0.6854 -0.1892 -2.4289
  143DOPC   C1416905   3.132   5.500  16.492  0.2190 -0.1489  0.9561
  143DOPC  H14A16906   3.218   5.489  16.427  0.1433 -2.2617  1.1367
  143DOPC  H14B16907   3.174   5.473  16.589  0.2450  1.0124  1.2828
  143DOPC  H14C16908   3.057   5.429  16.462 -0.8067  0.5842  1.7381
  143DOPC   C1516909   2.984   5.654  16.593  0.5063 -0.4580 -0.0179
  143DOPC  H15A16910   2.907   5.579  16.600 -2.1409  2.0594 -0.2716
  143DOPC  H15B16911   2.936   5.751  16.586 -0.6964 -1.0246  0.1263
  143DOPC  H15C16912   3.031   5.656  16.690 -0.4505 -0.3808  0.4574
  143DOPC   C1116913   2.979   5.817  16.307 -0.4634 -0.3801  0.4489
  143DOPC  H11A16914   3.070   5.870  16.343 -1.1007 -1.8195  4.8047
  143DOPC  H11B16915   2.970   5.827  16.197 -1.6463 -0.1619  0.5507
  143DOPC     P16916   2.800   6.001  16.361  0.4314  0.3084  0.2433
  143DOPC   O1316917   2.911   6.097  16.373  0.4879 -0.0539  0.4677
  143DOPC   O1416918   2.691   5.995  16.463 -0.4023 -0.9267 -0.2453
  143DOPC   O1216919   2.856   5.856  16.368  0.0838 -0.2865  0.1332
  143DOPC   O1116920   2.734   6.011  16.221  0.1015 -0.3282  0.3332
  143DOPC    C116921   2.666   5.908  16.155 -0.8671  0.1150  0.6445
  143DOPC    HA16922   2.559   5.933  16.141 -1.5932 -1.5252  2.6280
  143DOPC    HB16923   2.678   5.810  16.206  1.8980 -1.5722 -2.8338
  143DOPC    C216924   2.732   5.868  16.015  0.1499 -0.2533  0.2751
  143DOPC    HS16925   2.828   5.825  16.049  0.0658 -0.0347  0.7939
  143DOPC   O2116926   2.766   5.984  15.931  0.3459 -0.1070  0.2903
  143DOPC   C2116927   2.865   5.952  15.844  0.7250 -0.1367 -0.1275
  143DOPC   O2216928   2.915   5.841  15.833 -0.3283  0.1786 -0.1238
  143DOPC   C2216929   2.912   6.084  15.783  0.4289  0.6034  0.7966
  143DOPC   H2R16930   3.021   6.093  15.804  0.6511  2.0081 -0.7536
  143DOPC   H2S16931   2.861   6.177  15.816 -0.1247  1.6660 -2.6868
  143DOPC    C316932   2.649   5.757  15.942 -0.4758 -0.0311  0.4148
  143DOPC    HX16933   2.630   5.672  16.012  2.8635 -0.5415  0.9067
  143DOPC    HY16934   2.722   5.710  15.873 -0.7537  1.6481 -1.0811
  143DOPC   O3116935   2.527   5.806  15.891  0.3692 -0.1904 -0.4039
  143DOPC   C3116936   2.443   5.713  15.846  0.1070  0.7879 -0.7468
  143DOPC   O3216937   2.460   5.591  15.852  0.1743 -0.4757  0.9155
  143DOPC   C3216938   2.317   5.784  15.782  0.0072 -0.1538 -0.2161
  143DOPC   H2X16939   2.278   5.846  15.865  0.6734 -0.5323  0.3882
  143DOPC   H2Y16940   2.356   5.862  15.713 -2.7182  2.3933  0.9304
  143DOPC   C2316941   2.888   6.075  15.629  0.5915 -0.2382  0.0842
  143DOPC   H3R16942   2.778   6.089  15.621  0.3940 -0.3858  2.0290
  143DOPC   H3S16943   2.904   5.978  15.579  1.1965  0.3863 -0.9687
  143DOPC   C2416944   2.976   6.179  15.555  0.5524  0.1115 -0.6514
  143DOPC   H4R16945   3.083   6.154  15.568  0.2972 -1.2295 -1.0352
  143DOPC   H4S16946   2.963   6.277  15.607  1.4526 -0.8964  1.5819
  143DOPC   C2516947   2.962   6.184  15.407  0.3997  0.2416 -0.1818
  143DOPC   H5R16948   2.872   6.247  15.390  0.0686  0.0641  0.8107
  143DOPC   H5S16949   2.942   6.082  15.368  1.6269  0.0651 -0.3768
  143DOPC   C2616950   3.082   6.243  15.331  0.0445  0.7563 -0.3154
  143DOPC   H6R16951   3.159   6.163  15.332 -0.9732 -0.2887 -1.3848
  143DOPC   H6S16952   3.117   6.335  15.382  1.1318 -0.2070  0.7646
  143DOPC   C2716953   3.043   6.283  15.186 -0.0738  0.1685 -0.2263
  143DOPC   H7R16954   3.140   6.316  15.143 -1.0435  0.2940 -2.4853
  143DOPC   H7S16955   2.964   6.362  15.190  0.0722  0.4600 -2.0092
  143DOPC   C2816956   2.994   6.157  15.111 -0.0086  0.2545 -0.1428
  143DOPC   H8R16957   2.897   6.125  15.153 -0.3469  1.5953  0.1491
  143DOPC   H8S16958   3.067   6.074  15.119  0.4979  0.7918  1.1118
  143DOPC   C2916959   2.963   6.182  14.968 -0.3584  0.4500  1.1325
  143DOPC   H9R16960   2.905   6.271  14.940 -2.4206 -1.0022  0.5035
  143DOPC  C21016961   2.968   6.089  14.866 -0.7549 -0.6075 -0.8557
  143DOPC  H10R16962   2.929   6.114  14.766 -0.7150 -0.4639 -0.8362
  143DOPC  C21116963   3.017   5.948  14.876 -0.4761  0.3136 -0.0864
  143DOPC  H11R16964   3.036   5.912  14.980  2.6436 -0.0802 -0.6941
  143DOPC  H11S16965   3.111   5.927  14.821 -1.3926  0.2147 -1.6608
  143DOPC  C21216966   2.903   5.863  14.820 -0.7816  0.7820  0.3380
  143DOPC  H12R16967   2.862   5.888  14.720  1.8286 -1.5581 -1.4446
  143DOPC  H12S16968   2.809   5.859  14.880 -1.8861 -0.3249 -1.3779
  143DOPC  C21316969   2.933   5.711  14.808  0.1838  0.2713 -0.1966
  143DOPC  H13R16970   2.841   5.661  14.768  1.5765 -1.5574 -1.2547
  143DOPC  H13S16971   2.943   5.664  14.908 -1.9352 -1.3454 -0.6589
  143DOPC  C21416972   3.062   5.681  14.728  0.2292 -0.0985 -0.2504
  143DOPC  H14R16973   3.145   5.727  14.786  0.4679  0.4979 -1.0427
  143DOPC  H14S16974   3.061   5.735  14.631  0.7453  1.6105  0.6597
  143DOPC  C21516975   3.095   5.529  14.711 -0.0713 -0.0888 -0.1205
  143DOPC  H15R16976   3.013   5.476  14.658  0.0358 -2.2324  1.7146
  143DOPC  H15S16977   3.098   5.479  14.810  0.1348 -0.0071 -0.0862
  143DOPC  C21616978   3.224   5.513  14.632  0.4095  0.3662 -0.0986
  143DOPC  H16R16979   3.306   5.553  14.696  1.4738 -0.0997 -1.1491
  143DOPC  H16S16980   3.223   5.564  14.534 -1.5516  0.6279  0.0156
  143DOPC  C21716981   3.252   5.355  14.612 -0.4759 -0.3331  0.5215
  143DOPC  H17R16982   3.171   5.298  14.561  1.0540 -0.2601 -2.1593
  143DOPC  H17S16983   3.256   5.309  14.713 -1.6711 -0.5213  0.4982
  143DOPC  C21816984   3.386   5.331  14.538  0.1924 -0.8909 -0.2072
  143DOPC  H18R16985   3.416   5.224  14.534  0.7075 -0.8008  0.9222
  143DOPC  H18S16986   3.469   5.397  14.570 -0.1883 -1.9703  3.5110
  143DOPC  H18T16987   3.377   5.348  14.429  0.1535 -0.6483 -0.1667
  143DOPC   C3316988   2.210   5.690  15.731 -0.4671 -0.1581 -0.6339
  143DOPC   H3X16989   2.168   5.642  15.822  3.0045  0.3964  1.4388
  143DOPC   H3Y16990   2.263   5.608  15.679 -0.5751 -0.5112 -0.1998
  143DOPC   C3416991   2.117   5.762  15.627  0.6719  0.1374  1.2047
  143DOPC   H4X16992   2.082   5.860  15.665  2.0600  1.0553  0.2229
  143DOPC   H4Y16993   2.032   5.691  15.617  1.4382 -0.6602  0.0659
  143DOPC   C3516994   2.181   5.777  15.490  0.0389  0.1935  0.5183
  143DOPC   H5X16995   2.226   5.682  15.455 -0.5986  0.1918 -0.3375
  143DOPC   H5Y16996   2.273   5.837  15.501  0.5282 -0.3730 -0.3279
  143DOPC   C3616997   2.083   5.816  15.377 -1.1556  0.1654 -0.4840
  143DOPC   H6X16998   2.029   5.720  15.360  0.6127 -1.3482  1.9381
  143DOPC   H6Y16999   2.013   5.889  15.422 -1.0132  0.1988 -0.3200
  143DOPC   C3717000   2.142   5.884  15.259 -0.3500 -0.1399  0.3633
  143DOPC   H7X17001   2.204   5.970  15.294  0.8612 -0.1837 -1.5254
  143DOPC   H7Y17002   2.207   5.815  15.202 -1.6694 -1.4624  0.4061
  143DOPC   C3817003   2.026   5.923  15.174  0.0139  0.1032 -0.1492
  143DOPC   H8X17004   1.962   5.993  15.232 -1.2996 -2.4794  1.7663
  143DOPC   H8Y17005   1.961   5.836  15.148  0.4067 -0.4262  0.6038
  143DOPC   C3917006   2.082   5.988  15.048  0.9567  1.1173 -0.5742
  143DOPC   H9X17007   2.142   5.923  14.983  1.4312 -0.2630  1.1500
  143DOPC  C31017008   2.048   6.108  15.001  0.1352  0.1533 -0.0071
  143DOPC  H10X17009   2.086   6.139  14.903 -0.0484  0.5323  0.0399
  143DOPC  C31117010   1.950   6.207  15.064  0.0654 -0.8071  0.4562
  143DOPC  H11X17011   2.018   6.260  15.134 -0.0365 -0.4079  0.2614
  143DOPC  H11Y17012   1.874   6.167  15.135  0.1571  0.2152  1.1612
  143DOPC  C31217013   1.874   6.301  14.968  0.4134  0.1357 -0.2349
  143DOPC  H12X17014   1.797   6.354  15.029 -0.1780 -3.9184  2.8927
  143DOPC  H12Y17015   1.814   6.250  14.889  0.5856  1.4318 -1.2582
  143DOPC  C31317016   1.957   6.406  14.890 -0.0111 -0.0553  0.0652
  143DOPC  H13X17017   2.002   6.477  14.963  0.6867 -1.0863  0.6755
  143DOPC  H13Y17018   2.040   6.357  14.834 -1.6129  0.1277 -2.6346
  143DOPC  C31417019   1.878   6.498  14.794 -0.0255  0.5160 -0.3337
  143DOPC  H14X17020   1.843   6.444  14.704 -1.0921  1.1901 -0.3412
  143DOPC  H14Y17021   1.781   6.516  14.844 -1.2357 -1.0392 -2.0075
  143DOPC  C31517022   1.949   6.627  14.750  0.6907  0.4352 -0.7224
  143DOPC  H15X17023   1.986   6.663  14.848 -0.1217 -2.8493  0.9402
  143DOPC  H15Y17024   1.876   6.701  14.710 -2.2204 -1.0497  1.3947
  143DOPC  C31617025   2.052   6.589  14.644 -0.0835 -0.7126 -0.0432
  143DOPC  H16X17026   2.132   6.525  14.686  1.3156  0.9835  0.0015
  143DOPC  H16Y17027   2.010   6.542  14.553  1.3058 -0.8653 -0.6267
  143DOPC  C31717028   2.125   6.714  14.595  0.0131  0.0517  0.1173
  143DOPC  H17X17029   2.163   6.778  14.678  0.1033  1.1531 -0.7545
  143DOPC  H17Y17030   2.219   6.685  14.543  0.5841  1.9338  0.0158
  143DOPC  C31817031   2.041   6.807  14.509  0.2678 -0.5936  0.2951
  143DOPC  H18X17032   1.935   6.813  14.544 -0.1658  0.0153 -1.0329
  143DOPC  H18Y17033   2.083   6.908  14.491  0.0324 -0.7288 -1.2118
  143DOPC  H18Z17034   2.027   6.760  14.409  0.4928 -1.8906  0.8564
  144DOPC     N17035   2.068   4.245  16.566 -0.4551 -0.2715 -0.1018
  144DOPC   C1217036   1.965   4.274  16.461 -0.1446 -0.1113  0.0679
  144DOPC  H12A17037   1.998   4.231  16.368  0.9536  0.5390  0.1365
  144DOPC  H12B17038   1.948   4.377  16.435 -1.4816 -0.2195  0.4362
  144DOPC   C1317039   2.058   4.327  16.686  0.1483 -0.2126  0.8065
  144DOPC  H13A17040   2.055   4.434  16.671 -2.4150 -0.1065  1.5192
  144DOPC  H13B17041   1.960   4.317  16.730  0.9136  2.2832  3.4020
  144DOPC  H13C17042   2.140   4.305  16.752  1.9603 -0.6659 -1.4415
  144DOPC   C1417043   2.203   4.249  16.507  0.0075 -0.3270  0.8016
  144DOPC  H14A17044   2.222   4.344  16.460 -1.7253  1.3801  3.3177
  144DOPC  H14B17045   2.277   4.239  16.586 -1.2532 -1.1680  1.9269
  144DOPC  H14C17046   2.213   4.174  16.430 -2.1867  1.6547 -1.5715
  144DOPC   C1517047   2.063   4.100  16.615 -0.0780  0.7877  0.0571
  144DOPC  H15A17048   2.082   4.035  16.531 -1.3669  2.0042 -1.2491
  144DOPC  H15B17049   1.964   4.071  16.649  0.2870 -0.5084  0.0579
  144DOPC  H15C17050   2.126   4.080  16.700 -0.9950 -0.1777  0.5355
  144DOPC   C1117051   1.823   4.222  16.499 -0.3060 -0.1410 -0.3675
  144DOPC  H11A17052   1.752   4.245  16.417 -0.9195 -1.1268 -0.1322
  144DOPC  H11B17053   1.812   4.111  16.502 -0.9256 -0.0631  1.6112
  144DOPC     P17054   1.703   4.421  16.611  0.0809 -0.0272  0.0144
  144DOPC   O1317055   1.734   4.482  16.742  0.2207 -0.1451 -0.0527
  144DOPC   O1417056   1.563   4.410  16.568  0.2323 -0.2485 -0.0580
  144DOPC   O1217057   1.764   4.277  16.618 -0.4490 -0.1043 -0.2103
  144DOPC   O1117058   1.781   4.495  16.496  0.1297 -0.4375  0.1826
  144DOPC    C117059   1.715   4.562  16.390 -0.3312  0.8008 -0.8378
  144DOPC    HA17060   1.649   4.641  16.430 -1.3920 -0.3590 -0.2458
  144DOPC    HB17061   1.659   4.490  16.327  3.0151 -2.9771  0.0660
  144DOPC    C217062   1.819   4.645  16.312  0.2592  0.0842  0.3006
  144DOPC    HS17063   1.760   4.704  16.239  0.0418 -0.2977  0.1597
  144DOPC   O2117064   1.924   4.569  16.251  0.0519  0.1963 -0.0879
  144DOPC   C2117065   1.881   4.519  16.131  0.1649 -0.5301  0.3451
  144DOPC   O2217066   1.769   4.531  16.086  0.0718 -0.2115  0.4448
  144DOPC   C2217067   1.995   4.463  16.039 -0.0038 -0.1999 -0.2465
  144DOPC   H2R17068   2.040   4.379  16.097  0.5734 -0.2165 -0.7035
  144DOPC   H2S17069   2.066   4.543  16.011 -0.7516  0.0097 -1.6056
  144DOPC    C317070   1.891   4.755  16.400  0.6291 -0.3084  0.0766
  144DOPC    HX17071   1.941   4.706  16.486 -0.4069  0.0726  0.9288
  144DOPC    HY17072   1.819   4.821  16.454  1.3206  0.4222  0.1068
  144DOPC   O3117073   1.971   4.852  16.330 -0.0678 -0.4073 -0.0428
  144DOPC   C3117074   2.091   4.812  16.301 -0.5641 -0.6172 -0.2342
  144DOPC   O3217075   2.149   4.714  16.340 -0.0438 -0.6658 -0.1338
  144DOPC   C3217076   2.139   4.893  16.186 -0.0524 -0.0902 -0.3120
  144DOPC   H2X17077   2.073   4.982  16.180 -1.5110 -1.0670  0.6366
  144DOPC   H2Y17078   2.232   4.935  16.229 -1.0258  0.9833  0.8166
  144DOPC   C2317079   1.931   4.409  15.905  0.3793 -0.5749 -0.2120
  144DOPC   H3R17080   1.872   4.487  15.852 -2.7006 -1.5048  1.6047
  144DOPC   H3S17081   1.858   4.328  15.925 -2.2218  1.5603 -0.5823
  144DOPC   C2417082   2.040   4.359  15.819  0.3591 -0.4938  0.3398
  144DOPC   H4R17083   2.071   4.254  15.837  2.2359  0.0730  0.7114
  144DOPC   H4S17084   2.133   4.421  15.826  0.8067 -1.0751 -0.3089
  144DOPC   C2517085   2.018   4.372  15.665  0.5259 -0.2679 -0.3024
  144DOPC   H5R17086   2.113   4.375  15.607 -0.4853  0.2114 -2.0103
  144DOPC   H5S17087   1.954   4.461  15.651 -1.9262 -1.7282  0.9183
  144DOPC   C2617088   1.939   4.244  15.613  0.2828  0.2947  0.1332
  144DOPC   H6R17089   1.854   4.225  15.682 -0.6803 -2.7765 -1.6842
  144DOPC   H6S17090   2.005   4.156  15.625  0.2613  0.5109  2.3238
  144DOPC   C2717091   1.877   4.257  15.475  0.3802  0.5872  0.9555
  144DOPC   H7R17092   1.962   4.276  15.406 -0.1579  0.7444  0.3305
  144DOPC   H7S17093   1.812   4.346  15.479  0.3565  0.5529  1.3943
  144DOPC   C2817094   1.806   4.124  15.444  0.2842  0.3194 -0.8230
  144DOPC   H8R17095   1.751   4.095  15.536 -1.3607 -0.0404 -1.8772
  144DOPC   H8S17096   1.883   4.044  15.445  1.4540  1.3882  1.4882
  144DOPC   C2917097   1.716   4.128  15.324 -0.6224 -0.1446 -0.3669
  144DOPC   H9R17098   1.632   4.198  15.337  1.5004  2.2671  1.1913
  144DOPC  C21017099   1.736   4.069  15.204  0.1803  0.0942 -0.4280
  144DOPC  H10R17100   1.672   4.099  15.119  1.3616  2.0446 -0.6856
  144DOPC  C21117101   1.853   3.992  15.153  0.5683 -0.4280  0.1714
  144DOPC  H11R17102   1.877   3.914  15.228 -0.0824 -0.7031  0.1062
  144DOPC  H11S17103   1.938   4.063  15.146  0.3258 -0.2309 -1.0725
  144DOPC  C21217104   1.827   3.943  15.007  0.1478  0.2177  0.1585
  144DOPC  H12R17105   1.820   4.037  14.948  0.8461 -0.0570 -0.3804
  144DOPC  H12S17106   1.725   3.899  14.998  0.0626  0.3754  0.3419
  144DOPC  C21317107   1.943   3.863  14.946  0.7518  0.8623  0.0315
  144DOPC  H13R17108   1.943   3.759  14.985  0.2290  0.8568  0.0327
  144DOPC  H13S17109   2.037   3.921  14.961  0.1380  1.8998 -0.0059
  144DOPC  C21417110   1.925   3.853  14.795 -0.2265 -0.1130  0.1842
  144DOPC  H14R17111   2.012   3.806  14.745 -1.4797  1.1082 -3.5237
  144DOPC  H14S17112   1.911   3.951  14.743 -1.9557 -1.2077 -1.5384
  144DOPC  C21517113   1.805   3.758  14.760  1.1205 -0.2384  0.1816
  144DOPC  H15R17114   1.718   3.827  14.763  1.1222 -0.1800 -0.8022
  144DOPC  H15S17115   1.794   3.674  14.832 -0.2858 -1.2217 -1.1258
  144DOPC  C21617116   1.810   3.710  14.620  0.0373  0.4561  0.3125
  144DOPC  H16R17117   1.881   3.625  14.608 -1.5151 -0.7561 -0.6698
  144DOPC  H16S17118   1.852   3.779  14.544  0.5520 -0.9172 -0.6894
  144DOPC  C21717119   1.669   3.651  14.573  0.0591 -0.3271  0.0955
  144DOPC  H17R17120   1.604   3.737  14.544 -1.8477 -1.4041  0.9527
  144DOPC  H17S17121   1.617   3.591  14.650 -2.3196 -0.2982 -1.3850
  144DOPC  C21817122   1.696   3.553  14.458  0.2285  0.1588 -0.3533
  144DOPC  H18R17123   1.760   3.466  14.484  0.8572  0.6197 -0.3371
  144DOPC  H18S17124   1.741   3.607  14.371  0.1132  1.6579  0.4826
  144DOPC  H18T17125   1.596   3.520  14.424  0.5492 -1.7495  0.4347
  144DOPC   C3317126   2.159   4.826  16.049 -0.5227  0.7228  0.4581
  144DOPC   H3X17127   2.063   4.799  16.000 -1.5898  1.6542  1.9630
  144DOPC   H3Y17128   2.218   4.732  16.057 -2.5773 -0.8173 -1.3275
  144DOPC   C3417129   2.243   4.911  15.959  0.2147  0.3132  0.8652
  144DOPC   H4X17130   2.340   4.938  16.006 -0.4636  1.3759  1.7181
  144DOPC   H4Y17131   2.195   5.008  15.936 -1.3309  0.4986  4.2579
  144DOPC   C3517132   2.269   4.840  15.826 -0.6478 -0.1875 -0.4025
  144DOPC   H5X17133   2.169   4.826  15.778 -0.4654 -1.8921 -0.3426
  144DOPC   H5Y17134   2.312   4.741  15.852 -1.2557 -0.7270 -1.3839
  144DOPC   C3617135   2.364   4.921  15.737  0.6471 -0.6691  0.2861
  144DOPC   H6X17136   2.349   4.872  15.639 -0.8739 -2.8294  1.5122
  144DOPC   H6Y17137   2.324   5.024  15.726  0.1974 -1.0069 -1.6124
  144DOPC   C3717138   2.513   4.929  15.780 -0.1573  0.3911 -0.5281
  144DOPC   H7X17139   2.523   4.997  15.867 -2.3633 -2.6465  2.3367
  144DOPC   H7Y17140   2.544   4.828  15.815  0.2729  0.4978 -0.6007
  144DOPC   C3817141   2.600   4.964  15.657  0.1426 -0.2439 -0.2036
  144DOPC   H8X17142   2.593   4.881  15.584  0.7045 -1.4657  1.0916
  144DOPC   H8Y17143   2.706   4.972  15.691  0.6844 -1.5957 -1.4885
  144DOPC   C3917144   2.564   5.101  15.601 -0.4896  0.7504  0.7033
  144DOPC   H9X17145   2.530   5.169  15.681  1.2760  3.2109 -0.5082
  144DOPC  C31017146   2.574   5.140  15.473  0.2708 -0.1127  0.5617
  144DOPC  H10X17147   2.537   5.240  15.446 -0.9430 -1.1759 -2.0170
  144DOPC  C31117148   2.616   5.065  15.342  0.0463  0.2770 -0.3999
  144DOPC  H11X17149   2.522   5.032  15.292  1.7417  0.0557 -3.7859
  144DOPC  H11Y17150   2.669   4.970  15.367  1.7974  0.6518 -2.3869
  144DOPC  C31217151   2.697   5.149  15.248  0.1301  0.0994  0.2597
  144DOPC  H12X17152   2.802   5.128  15.277 -0.4801  0.2434  2.7702
  144DOPC  H12Y17153   2.686   5.259  15.242  1.4773  0.2478  0.1760
  144DOPC  C31317154   2.672   5.096  15.107  0.1453 -0.0624 -0.0469
  144DOPC  H13X17155   2.564   5.098  15.083  0.2513  0.2219 -0.4970
  144DOPC  H13Y17156   2.732   5.164  15.043  2.9348 -1.4425  0.9359
  144DOPC  C31417157   2.723   4.954  15.106  0.1319 -0.4978  0.1295
  144DOPC  H14X17158   2.826   4.939  15.145 -0.0871 -0.3743  0.7744
  144DOPC  H14Y17159   2.657   4.880  15.157 -0.4457 -1.7969 -2.3419
  144DOPC  C31517160   2.710   4.881  14.973 -0.4121  0.1370  0.1820
  144DOPC  H15X17161   2.746   4.952  14.896  1.2667  0.1090  0.8969
  144DOPC  H15Y17162   2.604   4.851  14.958 -0.6466  0.9933  0.0725
  144DOPC  C31617163   2.796   4.756  14.964 -0.3571  0.5134  0.0015
  144DOPC  H16X17164   2.825   4.740  14.858 -1.2096 -0.9519 -0.0375
  144DOPC  H16Y17165   2.894   4.772  15.015 -0.4923  0.3660  0.3082
  144DOPC  C31717166   2.726   4.626  15.012 -0.5513 -0.5758 -0.3604
  144DOPC  H17X17167   2.620   4.614  14.982 -1.6041  3.8531  0.8656
  144DOPC  H17Y17168   2.780   4.539  14.968 -1.2248 -1.5788  0.7356
  144DOPC  C31817169   2.724   4.617  15.171  0.2870  0.2481  0.7808
  144DOPC  H18X17170   2.811   4.657  15.227 -2.1219  1.8785  3.5798
  144DOPC  H18Y17171   2.637   4.681  15.195  0.6112  1.2489 -0.5875
  144DOPC  H18Z17172   2.699   4.513  15.202 -1.7627 -0.2102 -1.9917
  145DOPC     N17173   3.449   6.409  16.255 -0.4881  0.1416 -0.3214
  145DOPC   C1217174   3.478   6.537  16.180 -0.4397  0.4719 -0.5388
  145DOPC  H12A17175   3.403   6.552  16.104 -1.2495  1.4218  0.4134
  145DOPC  H12B17176   3.576   6.522  16.137  0.4732  0.6777  1.3657
  145DOPC   C1317177   3.300   6.403  16.291  0.1541  0.0677 -0.1433
  145DOPC  H13A17178   3.275   6.342  16.376 -1.5409  0.1625 -0.5425
  145DOPC  H13B17179   3.250   6.498  16.301  1.4258  0.6837  0.7592
  145DOPC  H13C17180   3.243   6.357  16.212  1.5382 -0.4020 -0.9137
  145DOPC   C1417181   3.532   6.399  16.375  0.1513  0.6614  0.2844
  145DOPC  H14A17182   3.637   6.420  16.362  0.0154  0.8740 -0.5446
  145DOPC  H14B17183   3.498   6.456  16.460 -0.4619  0.4277  0.2000
  145DOPC  H14C17184   3.525   6.295  16.403  0.1676  0.5803 -0.0029
  145DOPC   C1517185   3.475   6.285  16.166  0.3798  0.2976  0.1171
  145DOPC  H15A17186   3.466   6.199  16.230  0.5323  0.3221  0.1716
  145DOPC  H15B17187   3.575   6.274  16.127  0.2783 -1.5160  0.2812
  145DOPC  H15C17188   3.407   6.274  16.082  0.4970 -1.4709  0.2245
  145DOPC   C1117189   3.495   6.676  16.264  0.6730  0.0150  0.2680
  145DOPC  H11A17190   3.576   6.651  16.336  0.8376 -1.3414 -0.3570
  145DOPC  H11B17191   3.539   6.755  16.199 -0.2390  1.3741  1.2331
  145DOPC     P17192   3.250   6.770  16.253 -0.1406 -0.3038 -0.4796
  145DOPC   O1317193   3.219   6.915  16.286  0.2253  0.4435  0.0750
  145DOPC   O1417194   3.141   6.669  16.275  0.2127  0.0274 -0.1434
  145DOPC   O1217195   3.377   6.724  16.331 -0.6427  0.0316 -0.8145
  145DOPC   O1117196   3.292   6.756  16.100 -0.2595  0.3512 -0.2195
  145DOPC    C117197   3.341   6.869  16.028 -0.3077  0.0244  0.2505
  145DOPC    HA17198   3.422   6.916  16.088 -0.5250  2.8817 -1.4941
  145DOPC    HB17199   3.265   6.950  16.028 -0.6988 -0.3327  0.8975
  145DOPC    C217200   3.385   6.838  15.885 -0.2462 -0.4865 -0.0789
  145DOPC    HS17201   3.372   6.931  15.824 -0.8245 -0.2080  0.4549
  145DOPC   O2117202   3.314   6.724  15.837  0.0692 -0.1258  0.0260
  145DOPC   C2117203   3.193   6.761  15.788 -0.3354 -0.0679  0.7455
  145DOPC   O2217204   3.160   6.877  15.768  0.1219  0.0413  0.2985
  145DOPC   C2217205   3.106   6.643  15.741 -0.3153  0.0315 -0.0904
  145DOPC   H2R17206   3.007   6.659  15.789 -1.3144  0.4986 -2.2142
  145DOPC   H2S17207   3.146   6.541  15.760 -2.5735 -0.6804  1.3650
  145DOPC    C317208   3.542   6.815  15.888 -0.0745 -0.0988 -0.2129
  145DOPC    HX17209   3.564   6.797  15.780  1.2824  1.0872 -0.1648
  145DOPC    HY17210   3.567   6.735  15.960 -0.4028  2.2637  2.7157
  145DOPC   O3117211   3.610   6.948  15.922 -0.1460  0.0111  0.2208
  145DOPC   C3117212   3.729   6.937  15.977 -0.3380 -0.6351 -0.1095
  145DOPC   O3217213   3.789   6.840  16.013  0.2274 -0.9261  0.8511
  145DOPC   C3217214   3.782   7.080  15.992 -0.4624  0.3621 -0.3587
  145DOPC   H2X17215   3.716   7.138  16.061  1.0902 -0.2044  1.7142
  145DOPC   H2Y17216   3.882   7.058  16.034 -0.4290 -1.8499 -1.4558
  145DOPC   C2317217   3.079   6.653  15.589 -0.0379  0.0086  0.1641
  145DOPC   H3R17218   3.054   6.755  15.553  1.8960  0.7624  0.8304
  145DOPC   H3S17219   3.002   6.580  15.557 -1.0475  1.9360 -2.1101
  145DOPC   C2417220   3.211   6.633  15.502  0.4280 -0.5560 -0.2471
  145DOPC   H4R17221   3.244   6.528  15.515  1.1052 -0.3867 -0.5970
  145DOPC   H4S17222   3.291   6.700  15.540  1.1041 -1.2984 -0.3340
  145DOPC   C2517223   3.189   6.655  15.345 -0.1027  0.0294 -0.2599
  145DOPC   H5R17224   3.133   6.749  15.327  0.2636  0.2599 -0.2205
  145DOPC   H5S17225   3.120   6.573  15.317 -1.7746  1.6247 -1.0021
  145DOPC   C2617226   3.320   6.641  15.259  1.3179  0.2742 -0.3221
  145DOPC   H6R17227   3.376   6.553  15.296 -0.4388 -0.0241  1.8591
  145DOPC   H6S17228   3.384   6.726  15.293  0.5806  0.0550  1.7733
  145DOPC   C2717229   3.284   6.648  15.111 -0.6134 -0.1169  0.2493
  145DOPC   H7R17230   3.246   6.747  15.077  1.2701  0.5593 -0.0148
  145DOPC   H7S17231   3.199   6.580  15.086 -0.0697 -1.2769  1.4395
  145DOPC   C2817232   3.401   6.599  15.016  0.0417  0.8182  0.0617
  145DOPC   H8R17233   3.352   6.593  14.917 -0.2535 -2.5467  0.3234
  145DOPC   H8S17234   3.440   6.501  15.050 -0.1825 -0.5020 -3.1248
  145DOPC   C2917235   3.506   6.704  15.017  0.6029 -0.2921 -0.1734
  145DOPC   H9R17236   3.570   6.699  15.106  0.3560 -2.2752 -0.0653
  145DOPC  C21017237   3.538   6.790  14.921 -0.5031 -1.0914  0.1049
  145DOPC  H10R17238   3.614   6.864  14.950  0.3387 -1.2218 -1.6455
  145DOPC  C21117239   3.478   6.800  14.778 -0.4515 -0.0228  0.1744
  145DOPC  H11R17240   3.443   6.903  14.756 -0.6608  0.4088  2.2882
  145DOPC  H11S17241   3.384   6.741  14.771  0.6510 -1.7883 -0.5826
  145DOPC  C21217242   3.570   6.736  14.668 -0.3654 -0.2582  0.0748
  145DOPC  H12R17243   3.599   6.634  14.704  1.4051  0.3177  0.4271
  145DOPC  H12S17244   3.667   6.787  14.649  0.0710 -1.0047  0.2329
  145DOPC  C21317245   3.500   6.728  14.528  0.2429 -0.0864 -0.6924
  145DOPC  H13R17246   3.448   6.825  14.512 -2.2946 -0.8775  1.9171
  145DOPC  H13S17247   3.411   6.662  14.539  0.5933 -0.3557  0.6666
  145DOPC  C21417248   3.591   6.684  14.416  0.2912 -0.2593 -0.6692
  145DOPC  H14R17249   3.628   6.581  14.434 -0.3168 -0.5262 -0.9389
  145DOPC  H14S17250   3.685   6.743  14.423  0.5318 -0.3640 -2.5032
  145DOPC  C21517251   3.517   6.701  14.282 -0.2437  0.2949 -0.3937
  145DOPC  H15R17252   3.452   6.791  14.284  1.8115  1.8971 -1.2167
  145DOPC  H15S17253   3.436   6.625  14.282  0.2128 -0.2018 -0.4997
  145DOPC  C21617254   3.618   6.687  14.166  0.1277 -0.0968  0.0097
  145DOPC  H16R17255   3.649   6.581  14.174  2.6237  0.3605 -2.1427
  145DOPC  H16S17256   3.708   6.750  14.182 -0.3013  0.6435 -0.3806
  145DOPC  C21717257   3.570   6.705  14.024  0.5363 -0.0957 -0.4235
  145DOPC  H17R17258   3.661   6.714  13.961  1.0355  2.9214  0.5632
  145DOPC  H17S17259   3.522   6.803  14.006  1.9495  0.5366 -0.9300
  145DOPC  C21817260   3.476   6.592  13.966 -0.1507 -0.4337  0.2505
  145DOPC  H18R17261   3.511   6.496  14.008  1.7675  0.1123 -0.0209
  145DOPC  H18S17262   3.466   6.591  13.855 -0.8206 -0.2243  0.3038
  145DOPC  H18T17263   3.375   6.616  14.006  0.0635 -0.4498  0.8094
  145DOPC   C3317264   3.813   7.156  15.868 -0.1973  0.4080 -0.6063
  145DOPC   H3X17265   3.849   7.256  15.901  2.3255  0.6167 -3.5504
  145DOPC   H3Y17266   3.724   7.177  15.805  0.3824  1.1144 -1.2075
  145DOPC   C3417267   3.919   7.094  15.779  0.0946  0.3965  0.0492
  145DOPC   H4X17268   3.862   7.010  15.735 -0.9444  0.4478  1.2335
  145DOPC   H4Y17269   4.004   7.051  15.836  1.0973  2.1765  0.0026
  145DOPC   C3517270   3.964   7.175  15.660  0.3922 -0.5572  0.2312
  145DOPC   H5X17271   4.038   7.251  15.692  0.2231 -0.7235  1.0365
  145DOPC   H5Y17272   3.877   7.229  15.616 -2.1038 -3.4740  1.2558
  145DOPC   C3617273   4.033   7.088  15.553 -0.7092 -0.3218  0.2435
  145DOPC   H6X17274   4.108   7.034  15.614 -1.4099  0.1866  1.5947
  145DOPC   H6Y17275   3.955   7.015  15.523 -0.6034 -0.8470  1.2061
  145DOPC   C3717276   4.097   7.166  15.438 -0.2118 -0.6559 -0.1164
  145DOPC   H7X17277   4.143   7.264  15.462  0.2111 -0.5456 -1.3169
  145DOPC   H7Y17278   4.180   7.098  15.409  0.4273 -1.3287  2.9192
  145DOPC   C3817279   3.985   7.196  15.333 -0.4843  0.0840 -0.7255
  145DOPC   H8X17280   3.904   7.258  15.377 -0.6250 -0.7202  0.1936
  145DOPC   H8Y17281   3.923   7.104  15.325 -2.1060  0.4057  4.3658
  145DOPC   C3917282   4.037   7.256  15.203 -0.3243 -0.1449  0.6941
  145DOPC   H9X17283   4.125   7.323  15.212  0.2317 -0.9728  1.5631
  145DOPC  C31017284   3.979   7.237  15.084 -0.5271  0.8419  0.2860
  145DOPC  H10X17285   4.038   7.276  14.999 -1.2240  1.3242  0.0140
  145DOPC  C31117286   3.855   7.159  15.047 -0.5586  0.1802  0.5888
  145DOPC  H11X17287   3.772   7.170  15.120 -1.3305  2.8748 -0.5643
  145DOPC  H11Y17288   3.878   7.053  15.025 -2.6763  0.0600 -1.3861
  145DOPC  C31217289   3.805   7.222  14.915  0.4030  0.0166  0.3951
  145DOPC  H12X17290   3.798   7.332  14.918  0.2113  0.0698 -1.3441
  145DOPC  H12Y17291   3.707   7.178  14.889  0.9782 -3.0660  2.8097
  145DOPC  C31317292   3.886   7.196  14.781  0.3515 -0.7778 -0.1642
  145DOPC  H13X17293   3.833   7.234  14.691 -3.1501 -0.2145  1.9575
  145DOPC  H13Y17294   3.984   7.247  14.780  0.0700 -0.2365 -0.1708
  145DOPC  C31417295   3.914   7.044  14.753  0.1789  0.0326 -0.0272
  145DOPC  H14X17296   3.958   7.001  14.845 -0.7854  1.0804  0.9490
  145DOPC  H14Y17297   3.813   7.000  14.739  0.4609 -0.5941 -0.1109
  145DOPC  C31517298   4.002   7.021  14.633 -0.2730 -0.6767 -0.4039
  145DOPC  H15X17299   4.018   6.911  14.625 -1.7369 -0.9852  0.4638
  145DOPC  H15Y17300   4.103   7.062  14.649 -0.3072 -0.2522 -1.2308
  145DOPC  C31617301   3.956   7.074  14.499  0.1396 -0.1624  0.1529
  145DOPC  H16X17302   3.953   7.185  14.499 -0.2050 -0.1526  1.3774
  145DOPC  H16Y17303   4.040   7.050  14.431  1.6093  2.1739  1.0184
  145DOPC  C31717304   3.830   7.001  14.440  0.2222 -0.0998 -0.1419
  145DOPC  H17X17305   3.848   6.891  14.439 -1.9474 -0.5316  1.0387
  145DOPC  H17Y17306   3.750   7.033  14.510  1.1845  0.8482  0.5533
  145DOPC  C31817307   3.795   7.041  14.289  0.0985 -0.5265 -0.1475
  145DOPC  H18X17308   3.708   6.990  14.243 -1.1002  0.2518  1.1871
  145DOPC  H18Y17309   3.772   7.149  14.287 -0.5147 -0.6484 -2.5226
  145DOPC  H18Z17310   3.879   7.026  14.217  0.7135  0.3241  0.3810
  146DOPC     N17311   4.480   4.237  16.749  0.3301  0.5236  0.4527
  146DOPC   C1217312   4.515   4.366  16.678 -0.3942 -0.2966 -0.0053
  146DOPC  H12A17313   4.495   4.450  16.742 -0.6713  1.7571 -2.6235
  146DOPC  H12B17314   4.453   4.363  16.590 -1.8167 -0.5420  0.9660
  146DOPC   C1317315   4.584   4.200  16.852  0.3101 -0.0804 -0.5340
  146DOPC  H13A17316   4.578   4.096  16.880 -2.2836  0.3555  0.8343
  146DOPC  H13B17317   4.685   4.219  16.819  1.2244 -0.4980  1.8188
  146DOPC  H13C17318   4.567   4.256  16.943 -0.9065  0.5273 -1.1174
  146DOPC   C1417319   4.495   4.133  16.642 -0.3465  0.0847 -0.0894
  146DOPC  H14A17320   4.423   4.142  16.562  0.5461 -0.6755 -0.9998
  146DOPC  H14B17321   4.593   4.134  16.597 -1.5761 -0.8140 -3.1034
  146DOPC  H14C17322   4.484   4.035  16.685 -0.4156  0.9247  1.9015
  146DOPC   C1517323   4.342   4.226  16.804 -0.7285  0.2957 -0.3310
  146DOPC  H15A17324   4.326   4.282  16.895  2.2822 -1.7194  1.5937
  146DOPC  H15B17325   4.321   4.123  16.825  1.6658 -0.0376  0.7802
  146DOPC  H15C17326   4.271   4.266  16.733 -0.7690  1.1938  0.2026
  146DOPC   C1117327   4.658   4.386  16.617  0.7920  0.8917 -0.1029
  146DOPC  H11A17328   4.679   4.304  16.545  0.2619 -0.5068  1.2697
  146DOPC  H11B17329   4.648   4.473  16.549 -1.8908  0.5638 -0.2616
  146DOPC     P17330   4.906   4.410  16.659 -0.0953 -0.0428 -0.1817
  146DOPC   O1317331   5.007   4.418  16.765 -0.6497 -0.2914 -0.0265
  146DOPC   O1417332   4.907   4.519  16.560  0.3816 -0.0222 -0.2910
  146DOPC   O1217333   4.762   4.395  16.713  0.0706 -0.4367  0.1490
  146DOPC   O1117334   4.931   4.271  16.580  0.2290 -0.0031 -0.1230
  146DOPC    C117335   5.037   4.262  16.488 -0.6522 -0.0078 -0.6476
  146DOPC    HA17336   5.075   4.158  16.498  1.6208  0.7187 -1.1534
  146DOPC    HB17337   5.124   4.329  16.505  0.3599 -0.5883 -3.0835
  146DOPC    C217338   4.989   4.276  16.336 -0.5775 -0.2582 -1.2922
  146DOPC    HS17339   4.955   4.378  16.308  1.5490  0.4825 -1.3797
  146DOPC   O2117340   4.899   4.171  16.312  0.1125 -0.2383 -0.4333
  146DOPC   C2117341   4.781   4.204  16.275 -0.6695 -0.2210 -0.2976
  146DOPC   O2217342   4.740   4.319  16.267 -0.1882  0.3866 -0.0600
  146DOPC   C2217343   4.710   4.086  16.224  0.5167  0.2039  0.6866
  146DOPC   H2R17344   4.689   4.025  16.314 -3.4564  0.8877  0.4381
  146DOPC   H2S17345   4.782   4.027  16.163  2.9639  2.8399  0.8464
  146DOPC    C317346   5.112   4.251  16.244 -0.4362 -0.2860  0.3700
  146DOPC    HX17347   5.143   4.145  16.250  0.0994 -0.0659  1.7742
  146DOPC    HY17348   5.192   4.311  16.292  1.7395  0.3360 -3.5696
  146DOPC   O3117349   5.100   4.295  16.106  0.5383  0.5117 -0.1696
  146DOPC   C3117350   5.050   4.208  16.025 -0.2671  0.3917 -0.3565
  146DOPC   O3217351   5.039   4.088  16.046  0.0606  0.1208  0.1098
  146DOPC   C3217352   4.998   4.263  15.888 -0.3264  0.3437 -0.6355
  146DOPC   H2X17353   4.904   4.207  15.872 -0.5690 -0.0696  1.8103
  146DOPC   H2Y17354   4.975   4.372  15.891 -1.1645  0.1614  1.5402
  146DOPC   C2317355   4.572   4.102  16.149  1.1899 -0.0157 -0.0842
  146DOPC   H3R17356   4.510   4.174  16.207 -0.7762 -0.2554 -1.7772
  146DOPC   H3S17357   4.529   4.000  16.156 -1.8643  1.2174  0.2839
  146DOPC   C2417358   4.572   4.138  16.001  0.7018 -0.4432 -0.4328
  146DOPC   H4R17359   4.477   4.115  15.947  0.6468 -0.2756 -0.4076
  146DOPC   H4S17360   4.644   4.068  15.955 -1.0712 -1.8412 -1.2071
  146DOPC   C2517361   4.593   4.288  15.985  0.6618  0.0581  0.2357
  146DOPC   H5R17362   4.683   4.322  16.041  1.5788  1.1636 -1.7854
  146DOPC   H5S17363   4.507   4.335  16.037  1.7382 -0.4270  2.5803
  146DOPC   C2617364   4.616   4.322  15.842 -0.1676 -0.3349  0.0327
  146DOPC   H6R17365   4.559   4.244  15.788 -0.5348 -1.6393  2.1652
  146DOPC   H6S17366   4.720   4.303  15.807 -0.2510  2.4944 -2.1240
  146DOPC   C2717367   4.573   4.462  15.811 -0.0800  0.6556  0.2766
  146DOPC   H7R17368   4.630   4.537  15.870  2.1138 -1.0744  0.4847
  146DOPC   H7S17369   4.470   4.472  15.852 -1.5161  0.3736 -2.9323
  146DOPC   C2817370   4.568   4.490  15.658 -0.2779  0.1804  0.3604
  146DOPC   H8R17371   4.538   4.597  15.643  1.6003  0.4267 -2.2221
  146DOPC   H8S17372   4.480   4.435  15.620 -0.4706  1.5508 -1.2890
  146DOPC   C2917373   4.694   4.460  15.577  0.0910 -0.5000  0.0370
  146DOPC   H9R17374   4.785   4.479  15.636 -0.3434 -1.5355  1.0862
  146DOPC  C21017375   4.700   4.401  15.456 -0.7497 -0.3398  0.2591
  146DOPC  H10R17376   4.797   4.379  15.409 -0.6311  2.2445 -0.8239
  146DOPC  C21117377   4.589   4.352  15.373  0.0995  0.3780  0.5344
  146DOPC  H11R17378   4.487   4.383  15.405  0.0501 -0.0793  0.8253
  146DOPC  H11S17379   4.594   4.242  15.385  0.3440  0.0766 -1.7673
  146DOPC  C21217380   4.610   4.369  15.223 -0.0191  0.1657 -0.1276
  146DOPC  H12R17381   4.705   4.320  15.193 -1.5947 -2.2684 -1.5168
  146DOPC  H12S17382   4.629   4.478  15.212  0.2670  0.3406  1.7994
  146DOPC  C21317383   4.491   4.329  15.141 -0.1361  0.0335  0.2354
  146DOPC  H13R17384   4.392   4.347  15.187 -0.3675 -1.7270  0.4824
  146DOPC  H13S17385   4.506   4.220  15.126  0.6753 -0.0159  1.2500
  146DOPC  C21417386   4.486   4.387  14.994 -0.3890  0.2241  0.7753
  146DOPC  H14R17387   4.585   4.361  14.951 -1.6117 -0.9094 -1.5218
  146DOPC  H14S17388   4.475   4.497  15.000  0.7437  0.4830 -1.2070
  146DOPC  C21517389   4.382   4.317  14.906  0.4883  0.3348 -0.5762
  146DOPC  H15R17390   4.280   4.313  14.950  0.2318 -1.7295 -1.2404
  146DOPC  H15S17391   4.416   4.212  14.903  2.6862  0.9441  1.0148
  146DOPC  C21617392   4.364   4.370  14.761  0.2069  0.0791 -0.3489
  146DOPC  H16R17393   4.283   4.305  14.719 -0.1672  1.3155 -1.6084
  146DOPC  H16S17394   4.454   4.337  14.705 -1.0685 -1.0942 -1.8160
  146DOPC  C21717395   4.327   4.519  14.740  0.1031 -0.8442  0.0639
  146DOPC  H17R17396   4.421   4.577  14.746 -2.3648  3.4217  1.6568
  146DOPC  H17S17397   4.257   4.562  14.815 -1.1163 -1.2246 -0.8212
  146DOPC  C21817398   4.270   4.551  14.600  0.7231 -0.1253 -0.0921
  146DOPC  H18R17399   4.211   4.644  14.610 -1.4595 -1.4793  0.2652
  146DOPC  H18S17400   4.198   4.469  14.579 -0.8120  1.0082  0.6349
  146DOPC  H18T17401   4.347   4.553  14.520 -0.7511  1.6052 -1.5562
  146DOPC   C3317402   5.098   4.229  15.770  1.1854  0.8040  0.3898
  146DOPC   H3X17403   5.039   4.257  15.679 -1.4860 -2.7538  0.7930
  146DOPC   H3Y17404   5.132   4.123  15.770 -0.1115  0.3705  0.0026
  146DOPC   C3417405   5.227   4.312  15.766 -0.2963 -0.9020 -0.2538
  146DOPC   H4X17406   5.273   4.318  15.867 -2.2778  0.9613  0.6195
  146DOPC   H4Y17407   5.209   4.421  15.751 -0.9205 -1.1615 -1.5210
  146DOPC   C3517408   5.334   4.264  15.672  0.3540 -0.5015 -0.4264
  146DOPC   H5X17409   5.349   4.155  15.688 -1.2765 -0.8203 -0.8599
  146DOPC   H5Y17410   5.428   4.320  15.694  1.5151 -2.2902 -0.6106
  146DOPC   C3617411   5.295   4.283  15.525 -0.4512  0.3125 -0.1733
  146DOPC   H6X17412   5.202   4.226  15.503  0.0534  0.1366 -1.9934
  146DOPC   H6Y17413   5.276   4.389  15.496  0.1906  0.5776  0.3470
  146DOPC   C3717414   5.408   4.237  15.423  1.3014 -0.8870  0.5232
  146DOPC   H7X17415   5.504   4.293  15.422  0.6493  0.2669  0.7410
  146DOPC   H7Y17416   5.436   4.133  15.450 -1.6293 -1.8604  0.1158
  146DOPC   C3817417   5.349   4.241  15.278 -1.0172  0.3404  0.1217
  146DOPC   H8X17418   5.421   4.281  15.203  0.0921  2.0128  1.9808
  146DOPC   H8Y17419   5.269   4.318  15.283  0.0173  1.3588  2.9387
  146DOPC   C3917420   5.293   4.111  15.232  0.7561 -0.3076 -0.0953
  146DOPC   H9X17421   5.204   4.072  15.283  0.1141 -0.2187 -1.1138
  146DOPC  C31017422   5.306   4.061  15.107 -0.4271 -0.7280 -0.2564
  146DOPC  H10X17423   5.240   3.976  15.084 -0.0496 -0.6633 -1.6369
  146DOPC  C31117424   5.398   4.108  15.001 -0.4957  0.1314  0.1973
  146DOPC  H11X17425   5.376   4.207  14.956 -1.5554  0.5112  1.4728
  146DOPC  H11Y17426   5.381   4.051  14.908 -0.4860 -1.5304  1.1720
  146DOPC  C31217427   5.547   4.082  15.036 -0.2106  0.3270  0.6116
  146DOPC  H12X17428   5.557   3.973  15.059 -0.2645 -0.1440 -1.3910
  146DOPC  H12Y17429   5.587   4.140  15.121  1.1198 -1.1981  1.0796
  146DOPC  C31317430   5.646   4.085  14.911 -0.0898 -0.7386 -0.8543
  146DOPC  H13X17431   5.592   4.035  14.829 -2.4785  0.4590 -0.1121
  146DOPC  H13Y17432   5.662   4.189  14.874 -1.1152 -0.7240 -1.2722
  146DOPC  C31417433   5.784   4.017  14.932 -1.0773 -0.2293 -0.5772
  146DOPC  H14X17434   5.837   4.094  14.991 -1.0763  0.0138 -0.8907
  146DOPC  H14Y17435   5.774   3.917  14.980 -3.0774 -0.0727 -0.5634
  146DOPC  C31517436   5.850   4.007  14.795 -0.1433 -0.7388 -0.3201
  146DOPC  H15X17437   5.783   3.959  14.721  0.3364 -2.9817  0.6132
  146DOPC  H15Y17438   5.940   3.943  14.797 -0.1171 -0.6832  0.6697
  146DOPC  C31617439   5.897   4.148  14.735 -0.1466  0.5385 -0.1926
  146DOPC  H16X17440   5.807   4.212  14.723 -1.5902 -1.7290 -2.4257
  146DOPC  H16Y17441   5.964   4.206  14.802 -0.8036  0.3368  0.6531
  146DOPC  C31717442   5.968   4.145  14.601 -0.7748  0.1615  0.8627
  146DOPC  H17X17443   5.896   4.117  14.522  0.9088 -0.8526 -0.3817
  146DOPC  H17Y17444   6.015   4.244  14.585  0.4831 -0.7590 -1.6462
  146DOPC  C31817445   6.080   4.037  14.587  0.5898 -0.1974 -0.7152
  146DOPC  H18X17446   6.170   4.066  14.529  0.1384 -2.7287 -2.8564
  146DOPC  H18Y17447   6.112   4.006  14.688  1.1500  0.7491 -0.5866
  146DOPC  H18Z17448   6.049   3.949  14.527  2.0102 -0.9531 -0.3764
  147DOPC     N17449   0.742   5.155  16.538  0.8802 -0.2833  0.1655
  147DOPC   C1217450   0.628   5.097  16.458  0.1233  0.4908  0.3221
  147DOPC  H12A17451   0.590   5.167  16.385  0.2518  0.4081  0.1757
  147DOPC  H12B17452   0.549   5.075  16.529 -0.7201  1.7527 -0.2059
  147DOPC   C1317453   0.820   5.056  16.616  0.1287  0.6810 -0.5048
  147DOPC  H13A17454   0.838   4.984  16.538  0.1266 -0.6535  0.6887
  147DOPC  H13B17455   0.909   5.096  16.662 -0.4107  1.2866  0.0350
  147DOPC  H13C17456   0.748   5.003  16.677 -0.2728 -0.8222 -2.1982
  147DOPC   C1417457   0.694   5.260  16.631  0.6588 -0.3819  0.2164
  147DOPC  H14A17458   0.617   5.228  16.699 -2.0094  1.4994 -1.7466
  147DOPC  H14B17459   0.781   5.306  16.675  1.4112 -0.9135 -0.6798
  147DOPC  H14C17460   0.652   5.346  16.581 -1.4328 -0.9862  0.8242
  147DOPC   C1517461   0.841   5.220  16.442  0.5902  0.0880 -0.5572
  147DOPC  H15A17462   0.929   5.264  16.486  3.1156 -2.1884 -2.9793
  147DOPC  H15B17463   0.803   5.294  16.372 -0.7927 -0.6187 -0.5919
  147DOPC  H15C17464   0.885   5.144  16.380  1.4822 -1.4807  1.8737
  147DOPC   C1117465   0.650   4.962  16.386  0.2870 -0.0871 -0.1998
  147DOPC  H11A17466   0.558   4.936  16.329  1.1685  0.4590 -1.9344
  147DOPC  H11B17467   0.731   4.977  16.311  2.0391 -0.1214  1.6060
  147DOPC     P17468   0.584   4.810  16.591  0.5568 -0.1644  0.0089
  147DOPC   O1317469   0.460   4.894  16.600  0.1319 -0.0914 -0.1826
  147DOPC   O1417470   0.659   4.801  16.713 -0.0456  0.2311 -0.3805
  147DOPC   O1217471   0.678   4.860  16.476 -0.0172  0.0025  0.7461
  147DOPC   O1117472   0.538   4.657  16.546 -0.2382  0.1754  0.2195
  147DOPC    C117473   0.629   4.551  16.537 -0.2473 -0.2147  0.4375
  147DOPC    HA17474   0.571   4.458  16.517 -2.0285  0.6136  1.4987
  147DOPC    HB17475   0.696   4.534  16.625  1.2670  3.0990  0.0748
  147DOPC    C217476   0.716   4.572  16.405 -0.3371  0.6404  0.1773
  147DOPC    HS17477   0.795   4.646  16.433  1.6818 -1.0509 -0.7586
  147DOPC   O2117478   0.626   4.618  16.299 -0.8932 -0.4291  0.5120
  147DOPC   C2117479   0.696   4.688  16.200  0.2309 -0.2262  0.0728
  147DOPC   O2217480   0.807   4.737  16.215 -0.0516  0.7763 -0.3425
  147DOPC   C2217481   0.600   4.700  16.078 -0.2003  0.4938  0.2213
  147DOPC   H2R17482   0.519   4.775  16.090 -1.3034 -0.4037 -1.2442
  147DOPC   H2S17483   0.544   4.607  16.055 -0.6428  0.5849  0.9150
  147DOPC    C317484   0.783   4.442  16.355  0.0700  0.3056 -0.4153
  147DOPC    HX17485   0.706   4.374  16.313 -1.0630  0.3192  1.5484
  147DOPC    HY17486   0.827   4.383  16.438  0.5430  0.6653 -0.4064
  147DOPC   O3117487   0.869   4.458  16.241 -0.6328 -0.5171  0.2897
  147DOPC   C3117488   0.995   4.490  16.271 -0.2343 -0.1199  0.6138
  147DOPC   O3217489   1.038   4.506  16.385 -0.2819 -0.6823  0.0783
  147DOPC   C3217490   1.085   4.498  16.145 -0.3318  0.3532  0.1714
  147DOPC   H2X17491   1.178   4.446  16.176 -0.3336 -0.9954 -1.8348
  147DOPC   H2Y17492   1.039   4.427  16.072  0.2118 -1.1442  1.2526
  147DOPC   C2317493   0.667   4.724  15.940  0.2837  0.0956  0.3318
  147DOPC   H3R17494   0.598   4.713  15.853  0.1907  2.0183  0.1097
  147DOPC   H3S17495   0.743   4.644  15.932  2.3612  1.7656  2.0676
  147DOPC   C2417496   0.730   4.858  15.920 -0.6221  0.1431 -0.3700
  147DOPC   H4R17497   0.808   4.872  15.997 -2.4654 -2.8896  2.2927
  147DOPC   H4S17498   0.653   4.937  15.930  0.7891  1.3709  1.4516
  147DOPC   C2517499   0.803   4.865  15.780  0.3343  0.7595  0.0256
  147DOPC   H5R17500   0.881   4.787  15.773 -0.1022  0.2736  0.4786
  147DOPC   H5S17501   0.857   4.962  15.777  0.4318  0.6759 -1.6039
  147DOPC   C2617502   0.714   4.869  15.658 -0.2013 -0.2547 -0.7583
  147DOPC   H6R17503   0.629   4.937  15.684  0.4959  0.9923 -1.6473
  147DOPC   H6S17504   0.671   4.767  15.649 -0.0055 -0.3174 -0.9626
  147DOPC   C2717505   0.791   4.915  15.528  0.9694 -0.1849  0.0454
  147DOPC   H7R17506   0.896   4.878  15.528  2.0692  2.6643 -0.8502
  147DOPC   H7S17507   0.797   5.025  15.541  0.9461 -0.3137  1.3062
  147DOPC   C2817508   0.715   4.886  15.403 -0.0971 -0.0322  0.2311
  147DOPC   H8R17509   0.612   4.925  15.418 -0.7146  0.0901 -3.4250
  147DOPC   H8S17510   0.710   4.775  15.395  0.3794 -0.0147 -0.3683
  147DOPC   C2917511   0.774   4.955  15.282 -0.2332 -0.2002  0.6392
  147DOPC   H9R17512   0.816   5.055  15.302  1.0466 -0.9510  1.9591
  147DOPC  C21017513   0.753   4.927  15.152  0.4875 -0.3967  0.3423
  147DOPC  H10R17514   0.783   4.997  15.073  0.2720  1.8068  2.1356
  147DOPC  C21117515   0.664   4.814  15.103  0.5843  0.8024 -0.1798
  147DOPC  H11R17516   0.558   4.841  15.081  0.7995 -0.1916 -2.7285
  147DOPC  H11S17517   0.647   4.734  15.179  0.2913 -0.2972 -1.3642
  147DOPC  C21217518   0.731   4.749  14.988 -0.2356 -0.0873  0.3805
  147DOPC  H12R17519   0.842   4.749  15.002 -0.4744  1.2158  2.9227
  147DOPC  H12S17520   0.721   4.814  14.898 -1.1354  0.4175  0.8334
  147DOPC  C21317521   0.678   4.612  14.931 -0.2633 -0.5794 -0.8039
  147DOPC  H13R17522   0.687   4.532  15.007  0.0133  0.4262  0.2520
  147DOPC  H13S17523   0.739   4.586  14.842 -1.2882  0.1936 -1.7564
  147DOPC  C21417524   0.528   4.629  14.889  0.1468  0.0004  0.3510
  147DOPC  H14R17525   0.459   4.685  14.956 -0.6747 -1.4332  0.7476
  147DOPC  H14S17526   0.485   4.526  14.885  0.3815 -0.0479 -1.3128
  147DOPC  C21517527   0.511   4.687  14.754  0.7917  0.7640 -0.3785
  147DOPC  H15R17528   0.578   4.633  14.685 -0.0762 -1.4617  0.4225
  147DOPC  H15S17529   0.526   4.797  14.754  1.3046  0.6977  0.1911
  147DOPC  C21617530   0.365   4.679  14.698 -0.2932 -0.0859  0.3865
  147DOPC  H16R17531   0.374   4.579  14.650  0.2378 -0.3773  1.0956
  147DOPC  H16S17532   0.358   4.738  14.604 -2.4605 -0.8549  0.0125
  147DOPC  C21717533   0.240   4.679  14.788 -0.1042 -0.6778  0.5866
  147DOPC  H17R17534   0.267   4.629  14.883  1.2954  0.1377  0.6482
  147DOPC  H17S17535   0.158   4.623  14.739 -0.1005  1.1532 -1.6633
  147DOPC  C21817536   0.210   4.826  14.816  0.2285 -0.3306 -0.1449
  147DOPC  H18R17537   0.302   4.877  14.853 -0.7048  0.2459  1.4550
  147DOPC  H18S17538   0.135   4.816  14.897 -0.8648 -0.4594 -1.1498
  147DOPC  H18T17539   0.171   4.868  14.721  1.3398 -0.5520 -0.7260
  147DOPC   C3317540   1.103   4.642  16.097  0.1287  0.4600  0.0763
  147DOPC   H3X17541   1.134   4.709  16.180  0.7767 -1.3518  1.3533
  147DOPC   H3Y17542   1.004   4.677  16.060  0.2299 -2.1850 -3.2384
  147DOPC   C3417543   1.182   4.662  15.968 -0.7488 -0.2616  0.1819
  147DOPC   H4X17544   1.126   4.610  15.887  1.3013  0.6157 -1.9136
  147DOPC   H4Y17545   1.277   4.605  15.977 -0.5533  0.1520  0.7980
  147DOPC   C3517546   1.195   4.811  15.938 -0.8312  0.4790  0.2972
  147DOPC   H5X17547   1.293   4.845  15.975 -0.6120  1.8125 -1.3800
  147DOPC   H5Y17548   1.105   4.866  15.974  0.0925  1.2365  1.4871
  147DOPC   C3617549   1.200   4.832  15.780 -0.7049  0.1003 -0.4582
  147DOPC   H6X17550   1.296   4.790  15.743 -0.2665  2.6533 -2.4892
  147DOPC   H6Y17551   1.114   4.775  15.737  0.1584 -3.4059  2.0129
  147DOPC   C3717552   1.197   4.980  15.736  0.2642 -0.2959 -0.0269
  147DOPC   H7X17553   1.109   5.027  15.783 -0.4840 -0.8256 -0.8619
  147DOPC   H7Y17554   1.283   5.039  15.775 -1.1791  1.0332  1.3128
  147DOPC   C3817555   1.189   4.999  15.581  0.4245  0.5139 -0.5063
  147DOPC   H8X17556   1.111   4.929  15.545 -0.3962  1.4736 -0.6311
  147DOPC   H8Y17557   1.286   4.965  15.540  1.6034  2.5196  0.4200
  147DOPC   C3917558   1.141   5.137  15.537 -0.6970 -0.6409  1.0696
  147DOPC   H9X17559   1.074   5.192  15.605  0.4332 -0.4551  2.0544
  147DOPC  C31017560   1.198   5.205  15.428  0.3224 -0.1479 -0.1024
  147DOPC  H10X17561   1.170   5.311  15.423  1.1500  0.2287  2.0620
  147DOPC  C31117562   1.301   5.164  15.324  0.7860 -0.0360  0.1119
  147DOPC  H11X17563   1.305   5.054  15.307  0.4910 -0.0610  0.1919
  147DOPC  H11Y17564   1.400   5.194  15.364  0.2181 -0.0072  1.5553
  147DOPC  C31217565   1.258   5.211  15.184 -0.5473 -0.7215 -1.1621
  147DOPC  H12X17566   1.275   5.320  15.169 -0.4600 -0.5674 -0.0447
  147DOPC  H12Y17567   1.148   5.195  15.174 -1.1163  2.4278 -1.0872
  147DOPC  C31317568   1.323   5.135  15.071 -0.6643  0.1164  0.4499
  147DOPC  H13X17569   1.326   5.193  14.976  0.4146  1.1005  1.0591
  147DOPC  H13Y17570   1.425   5.104  15.104 -0.7015  0.8298  1.2708
  147DOPC  C31417571   1.236   5.012  15.041 -0.6286 -0.0602  0.0892
  147DOPC  H14X17572   1.213   4.954  15.134  3.4262  0.2594  1.4864
  147DOPC  H14Y17573   1.151   5.046  14.978 -0.0619  3.2976  0.9886
  147DOPC  C31517574   1.319   4.915  14.950 -0.7711  0.1522 -0.3151
  147DOPC  H15X17575   1.382   4.854  15.018 -3.1878 -1.3219  0.7663
  147DOPC  H15Y17576   1.382   4.977  14.883  1.7148 -1.1745  0.6552
  147DOPC  C31617577   1.246   4.807  14.870  1.0051 -0.5830  0.3657
  147DOPC  H16X17578   1.187   4.744  14.939  0.9880 -1.9380 -0.8532
  147DOPC  H16Y17579   1.177   4.870  14.809  1.6679 -1.1748 -1.0170
  147DOPC  C31717580   1.338   4.719  14.784  0.0436 -0.0873 -0.2215
  147DOPC  H17X17581   1.290   4.693  14.687  0.8684  1.3256 -1.0341
  147DOPC  H17Y17582   1.417   4.791  14.754 -1.3202  1.6308  0.1177
  147DOPC  C31817583   1.406   4.594  14.853  0.1600  0.0146  0.3281
  147DOPC  H18X17584   1.323   4.528  14.888  1.7624 -1.7956  0.9443
  147DOPC  H18Y17585   1.473   4.535  14.786  1.9689  0.9927  1.2185
  147DOPC  H18Z17586   1.468   4.625  14.940 -1.3161  0.2290  1.3267
  148DOPC     N17587   1.978   6.420  16.246 -0.5632  0.1922 -0.4892
  148DOPC   C1217588   1.887   6.484  16.341  0.0434 -0.1577 -0.3044
  148DOPC  H12A17589   1.841   6.576  16.306  0.8236  1.2534  2.0936
  148DOPC  H12B17590   1.935   6.511  16.434  2.8626  0.8633 -1.8967
  148DOPC   C1317591   2.038   6.295  16.313  0.2208  0.4751 -0.1565
  148DOPC  H13A17592   1.958   6.224  16.328  1.5847 -0.8415  1.1831
  148DOPC  H13B17593   2.115   6.240  16.262 -0.8582 -4.4150  2.8802
  148DOPC  H13C17594   2.083   6.313  16.409 -1.3894 -0.4430  0.8143
  148DOPC   C1417595   2.099   6.506  16.209 -0.6197 -0.0196 -0.4402
  148DOPC  H14A17596   2.067   6.601  16.170 -0.9124 -0.0009 -0.1587
  148DOPC  H14B17597   2.169   6.519  16.291  0.7843 -1.1379 -1.4070
  148DOPC  H14C17598   2.160   6.454  16.136 -0.7079  1.0673 -1.3136
  148DOPC   C1517599   1.904   6.377  16.131  0.2662  0.3986  0.1751
  148DOPC  H15A17600   1.968   6.327  16.060  1.0540 -0.5742  1.5274
  148DOPC  H15B17601   1.849   6.460  16.088 -1.4630  0.5532  2.4984
  148DOPC  H15C17602   1.825   6.308  16.159 -0.9266  1.2821 -0.8872
  148DOPC   C1117603   1.761   6.407  16.393  0.0583 -0.4601  0.3511
  148DOPC  H11A17604   1.707   6.377  16.300 -0.3951 -0.2021  0.5306
  148DOPC  H11B17605   1.786   6.308  16.437  1.5136 -1.2111 -1.9412
  148DOPC     P17606   1.595   6.602  16.392 -0.0152 -0.0837 -0.3536
  148DOPC   O1317607   1.514   6.674  16.495 -0.3925 -0.0245  0.0686
  148DOPC   O1417608   1.514   6.529  16.290 -0.3227 -0.6110  0.1455
  148DOPC   O1217609   1.690   6.499  16.470  0.3144 -0.2620 -0.0484
  148DOPC   O1117610   1.699   6.700  16.321 -0.0038  1.1624 -0.1419
  148DOPC    C117611   1.692   6.847  16.312 -0.1341 -0.0055  0.8147
  148DOPC    HA17612   1.734   6.901  16.399  2.7717  2.1260 -1.6809
  148DOPC    HB17613   1.584   6.872  16.313 -0.8285 -2.2809 -1.9390
  148DOPC    C217614   1.773   6.880  16.179  0.9700 -0.4122  0.2224
  148DOPC    HS17615   1.736   6.981  16.151 -0.8179 -0.9776  0.3816
  148DOPC   O2117616   1.754   6.788  16.070 -0.1800  0.2480  0.0328
  148DOPC   C2117617   1.632   6.774  16.022  0.0779  0.0073  0.2946
  148DOPC   O2217618   1.534   6.839  16.056  0.0491 -0.1525  0.2549
  148DOPC   C2217619   1.623   6.660  15.924  0.1122  0.0776  0.5206
  148DOPC   H2R17620   1.604   6.558  15.962  1.9138 -1.6594 -2.7430
  148DOPC   H2S17621   1.724   6.653  15.878 -0.5528  0.4618 -1.0594
  148DOPC    C317622   1.928   6.886  16.216 -0.6983 -0.4201  0.1074
  148DOPC    HX17623   1.961   6.785  16.248 -1.2187  0.0098  2.1668
  148DOPC    HY17624   1.926   6.953  16.304 -2.5878 -0.3711  0.0597
  148DOPC   O3117625   1.998   6.955  16.108  0.2798  0.2590 -0.9566
  148DOPC   C3117626   2.075   6.887  16.033  0.3680 -0.0555 -0.2159
  148DOPC   O3217627   2.093   6.767  16.045 -0.1174  0.1898  0.7114
  148DOPC   C3217628   2.128   6.981  15.921 -0.1220 -0.1944 -0.5147
  148DOPC   H2X17629   2.053   7.059  15.896  0.0083 -0.2999 -1.2546
  148DOPC   H2Y17630   2.216   7.024  15.974 -0.4912 -0.6707  0.5298
  148DOPC   C2317631   1.523   6.695  15.808  0.8045  0.4627 -1.1547
  148DOPC   H3R17632   1.535   6.800  15.774  0.7264  0.9268  0.2170
  148DOPC   H3S17633   1.427   6.669  15.857  2.0210 -1.1207  0.5435
  148DOPC   C2417634   1.540   6.596  15.692 -0.2009  0.2413  0.2049
  148DOPC   H4R17635   1.515   6.492  15.721 -1.1551  0.2903 -0.3825
  148DOPC   H4S17636   1.645   6.586  15.657  0.3699  2.2867  1.1820
  148DOPC   C2517637   1.460   6.655  15.572  0.5712 -0.5176  0.0225
  148DOPC   H5R17638   1.509   6.750  15.541 -1.0202  0.5414  0.6554
  148DOPC   H5S17639   1.355   6.669  15.604  0.0992 -0.6071 -1.3872
  148DOPC   C2617640   1.435   6.566  15.453 -0.6035 -0.0876  0.0872
  148DOPC   H6R17641   1.364   6.484  15.477  0.6469 -1.1948  0.0961
  148DOPC   H6S17642   1.536   6.531  15.423 -0.2441  2.6033 -2.2889
  148DOPC   C2717643   1.368   6.647  15.343 -0.8224  0.7694  0.2063
  148DOPC   H7R17644   1.418   6.746  15.333  0.6778  0.0818  0.6277
  148DOPC   H7S17645   1.262   6.670  15.366 -1.6790 -0.6042 -2.0480
  148DOPC   C2817646   1.366   6.596  15.202 -0.5660 -0.6258 -0.1236
  148DOPC   H8R17647   1.324   6.493  15.209  0.3919 -0.9674  0.9361
  148DOPC   H8S17648   1.471   6.574  15.171 -0.1651  0.9343  0.0756
  148DOPC   C2917649   1.285   6.675  15.102 -0.0157 -0.3844  0.8086
  148DOPC   H9R17650   1.180   6.642  15.100  0.1268 -0.7923 -1.0216
  148DOPC  C21017651   1.328   6.758  15.000 -0.5723 -1.0579 -0.1059
  148DOPC  H10R17652   1.256   6.805  14.932 -0.8132 -0.4816  0.5437
  148DOPC  C21117653   1.474   6.800  14.987 -0.0054 -0.7045 -0.1647
  148DOPC  H11R17654   1.538   6.764  15.070  0.3455 -0.4010 -0.2990
  148DOPC  H11S17655   1.458   6.910  14.993  0.9887 -0.4230 -2.0264
  148DOPC  C21217656   1.533   6.751  14.856  1.0107  0.2654 -0.4298
  148DOPC  H12R17657   1.501   6.645  14.846  1.6004  0.1031 -0.6588
  148DOPC  H12S17658   1.643   6.753  14.864  0.9598  1.0101  0.2417
  148DOPC  C21317659   1.498   6.834  14.728  0.8476  0.2513 -0.0221
  148DOPC  H13R17660   1.530   6.940  14.738  0.5121  0.2080  1.7879
  148DOPC  H13S17661   1.388   6.826  14.716  0.8723  1.3615 -1.3625
  148DOPC  C21417662   1.555   6.769  14.598 -0.3141  0.6151  0.7139
  148DOPC  H14R17663   1.498   6.675  14.584  0.1556  0.3230  0.7791
  148DOPC  H14S17664   1.657   6.743  14.632 -1.0122 -2.2173  0.9016
  148DOPC  C21517665   1.563   6.861  14.475  0.4269  0.7706  0.0422
  148DOPC  H15R17666   1.456   6.884  14.460 -0.1111 -1.5666 -0.0673
  148DOPC  H15S17667   1.594   6.799  14.388  1.1511 -1.1463  1.5905
  148DOPC  C21617668   1.655   6.985  14.487  0.0650 -0.1568  0.5748
  148DOPC  H16R17669   1.762   6.963  14.466 -0.0553  0.0545 -0.2828
  148DOPC  H16S17670   1.671   7.015  14.593 -0.3815 -3.8156  1.8126
  148DOPC  C21717671   1.606   7.098  14.395  0.0457 -0.0499  0.3929
  148DOPC  H17R17672   1.503   7.119  14.431 -0.1281 -0.1424 -0.0489
  148DOPC  H17S17673   1.595   7.049  14.296  0.9065 -2.1386  1.2673
  148DOPC  C21817674   1.692   7.226  14.388  0.0876 -0.7314  0.5638
  148DOPC  H18R17675   1.698   7.272  14.489 -1.5136  0.9643 -0.0354
  148DOPC  H18S17676   1.644   7.297  14.317  3.8489  2.1451  0.5644
  148DOPC  H18T17677   1.792   7.215  14.340 -0.3337  0.6460 -0.7320
  148DOPC   C3317678   2.183   6.908  15.795  0.3889 -0.0254  0.3542
  148DOPC   H3X17679   2.235   6.815  15.823 -1.0573 -0.9944 -0.0586
  148DOPC   H3Y17680   2.254   6.978  15.745  0.6520 -0.2270  0.4458
  148DOPC   C3417681   2.069   6.864  15.703  0.0748  0.5098 -0.2194
  148DOPC   H4X17682   2.044   6.944  15.631 -1.3911  1.4621  1.2821
  148DOPC   H4Y17683   1.978   6.841  15.762  1.0897  0.7181  1.5093
  148DOPC   C3517684   2.105   6.749  15.607  1.2942  0.1756  0.1840
  148DOPC   H5X17685   2.015   6.693  15.573  0.2044 -0.2653  3.4871
  148DOPC   H5Y17686   2.157   6.668  15.661  1.3060 -0.7431 -1.1470
  148DOPC   C3617687   2.183   6.788  15.483  0.6736 -0.1438 -0.3679
  148DOPC   H6X17688   2.133   6.874  15.433  2.6576  2.9720  2.6046
  148DOPC   H6Y17689   2.283   6.824  15.516  0.5237 -0.4396  0.4317
  148DOPC   C3717690   2.190   6.671  15.383 -0.6255  0.9281  0.8353
  148DOPC   H7X17691   2.264   6.592  15.409 -0.1298  1.4799  1.1173
  148DOPC   H7Y17692   2.088   6.627  15.381 -0.3821  0.3778  0.1410
  148DOPC   C3817693   2.237   6.722  15.240  0.3734  0.3232 -0.6338
  148DOPC   H8X17694   2.343   6.750  15.256  0.5663 -1.2150  1.2784
  148DOPC   H8Y17695   2.178   6.810  15.206 -0.7944  0.0891  0.6971
  148DOPC   C3917696   2.226   6.616  15.138  0.0579 -0.4114 -0.1402
  148DOPC   H9X17697   2.191   6.524  15.186  0.0155  0.2599  1.1701
  148DOPC  C31017698   2.236   6.633  15.007  0.1048  0.4610  0.1375
  148DOPC  H10X17699   2.210   6.546  14.944  0.0965  0.5739 -0.0151
  148DOPC  C31117700   2.271   6.760  14.933 -0.2952 -0.1125  0.1753
  148DOPC  H11X17701   2.294   6.837  15.009 -1.8475  1.3799 -0.7910
  148DOPC  H11Y17702   2.181   6.805  14.886  0.0177 -0.0255 -0.3527
  148DOPC  C31217703   2.394   6.751  14.848 -0.4719  0.8083 -0.3838
  148DOPC  H12X17704   2.377   6.689  14.758  2.6076 -3.1849  1.4905
  148DOPC  H12Y17705   2.475   6.705  14.909 -0.7477 -0.2102 -0.7588
  148DOPC  C31317706   2.439   6.892  14.792  1.2008  0.5330 -0.4115
  148DOPC  H13X17707   2.353   6.944  14.744 -1.0182 -1.6379  0.9940
  148DOPC  H13Y17708   2.467   6.968  14.867  0.3510  1.5647 -1.1051
  148DOPC  C31417709   2.549   6.884  14.690 -0.5875  1.0401 -0.4195
  148DOPC  H14X17710   2.640   6.842  14.739 -1.1432  1.2103  0.7898
  148DOPC  H14Y17711   2.517   6.809  14.614  1.0508 -0.9807  0.7571
  148DOPC  C31517712   2.596   7.026  14.641  0.2033  0.1777 -0.3104
  148DOPC  H15X17713   2.631   7.078  14.733  1.1718  2.5592 -1.9115
  148DOPC  H15Y17714   2.508   7.083  14.602 -1.3552 -1.4235  0.7472
  148DOPC  C31617715   2.716   7.030  14.551  0.2963  0.7503  0.3612
  148DOPC  H16X17716   2.785   6.959  14.601 -0.9209  0.3858  1.5671
  148DOPC  H16Y17717   2.703   6.982  14.452 -1.1788 -1.8988  1.7434
  148DOPC  C31717718   2.766   7.176  14.542  0.4020 -0.0040  0.0131
  148DOPC  H17X17719   2.785   7.212  14.645  3.3189  0.9297 -0.7535
  148DOPC  H17Y17720   2.865   7.175  14.490 -0.3918  0.8523 -1.5658
  148DOPC  C31817721   2.682   7.266  14.452 -0.0546  0.2291  0.3495
  148DOPC  H18X17722   2.731   7.365  14.462 -1.3576  0.8916  0.3437
  148DOPC  H18Y17723   2.678   7.226  14.348 -3.7656 -0.8607  0.7662
  148DOPC  H18Z17724   2.579   7.254  14.492  0.0129 -1.3458  0.1421
  149DOPC     N17725   1.333   3.834  16.417  0.7409  0.0884 -0.1288
  149DOPC   C1217726   1.408   3.718  16.365  0.9125 -0.3876 -0.2346
  149DOPC  H12A17727   1.471   3.680  16.444 -0.2409  1.1698  1.5210
  149DOPC  H12B17728   1.470   3.746  16.281  2.9293 -0.5423  1.1344
  149DOPC   C1317729   1.264   3.805  16.551 -0.2610 -0.4940  0.4388
  149DOPC  H13A17730   1.178   3.740  16.543  1.5909 -2.8651 -2.2873
  149DOPC  H13B17731   1.336   3.767  16.622 -0.9990 -0.5732  1.1677
  149DOPC  H13C17732   1.234   3.900  16.592 -1.2086  0.3625 -2.0477
  149DOPC   C1417733   1.216   3.871  16.325 -0.1646 -0.1553 -0.0227
  149DOPC  H14A17734   1.254   3.903  16.229  1.6870 -0.6243  0.5150
  149DOPC  H14B17735   1.151   3.785  16.318 -1.6602  0.5572  3.1922
  149DOPC  H14C17736   1.152   3.945  16.372 -0.7754 -0.5329 -0.2461
  149DOPC   C1517737   1.426   3.943  16.448 -0.1860  0.4872  0.5496
  149DOPC  H15A17738   1.369   4.026  16.487  0.6143  1.3158 -0.0008
  149DOPC  H15B17739   1.488   3.959  16.360 -0.7785  0.7176  0.1631
  149DOPC  H15C17740   1.499   3.923  16.525 -1.5255 -0.5552  1.5904
  149DOPC   C1117741   1.324   3.599  16.325  0.0154 -0.0119 -0.1325
  149DOPC  H11A17742   1.246   3.580  16.402  1.5458 -2.3146  0.9809
  149DOPC  H11B17743   1.274   3.616  16.227  3.9210 -0.4992 -2.4507
  149DOPC     P17744   1.539   3.470  16.247  0.2319 -0.2512  0.6264
  149DOPC   O1317745   1.561   3.320  16.220  0.1912 -0.7327 -0.9003
  149DOPC   O1417746   1.646   3.546  16.316  0.0418 -0.1960 -0.1634
  149DOPC   O1217747   1.400   3.477  16.327  0.1341 -0.4822  0.7449
  149DOPC   O1117748   1.520   3.532  16.100 -0.7687 -0.9687 -0.2432
  149DOPC    C117749   1.419   3.487  16.012 -0.2300 -0.3714 -0.2316
  149DOPC    HA17750   1.322   3.534  16.038  0.4507  2.5222 -2.4077
  149DOPC    HB17751   1.403   3.377  16.013 -0.4248 -0.3445 -0.4051
  149DOPC    C217752   1.452   3.520  15.862  0.0250 -0.2424  0.5589
  149DOPC    HS17753   1.548   3.474  15.830  0.1320 -0.7948  1.6031
  149DOPC   O2117754   1.438   3.658  15.832 -0.0916  0.6063 -0.4423
  149DOPC   C2117755   1.541   3.737  15.860  0.0771  0.8267 -0.6480
  149DOPC   O2217756   1.648   3.693  15.897 -0.4801 -0.0704 -0.2397
  149DOPC   C2217757   1.506   3.876  15.867 -0.4692 -0.1521  0.0163
  149DOPC   H2R17758   1.486   3.897  15.974  0.3065 -0.0909  0.1505
  149DOPC   H2S17759   1.411   3.902  15.814 -0.0182  1.1575 -0.1844
  149DOPC    C317760   1.348   3.442  15.775  0.3845  0.2945  0.0359
  149DOPC    HX17761   1.250   3.464  15.823  1.0587 -0.8672  2.0564
  149DOPC    HY17762   1.357   3.332  15.779 -0.5843  0.1769 -0.5912
  149DOPC   O3117763   1.358   3.480  15.634 -0.2570 -0.5692  0.3645
  149DOPC   C3117764   1.242   3.477  15.566 -0.3553 -0.0875 -0.1995
  149DOPC   O3217765   1.136   3.441  15.612  0.2811 -0.1085  0.2538
  149DOPC   C3217766   1.264   3.500  15.415 -0.9325 -0.1610  0.2138
  149DOPC   H2X17767   1.370   3.533  15.412 -0.7544 -0.5575  1.4431
  149DOPC   H2Y17768   1.264   3.398  15.370  3.5528 -1.2806  2.1691
  149DOPC   C2317769   1.631   3.964  15.828  0.1741 -0.9374  0.1572
  149DOPC   H3R17770   1.643   3.940  15.721  0.7769  1.3664 -0.3588
  149DOPC   H3S17771   1.719   3.935  15.889  1.3757 -1.0599 -1.5653
  149DOPC   C2417772   1.615   4.115  15.851  0.0024  0.3049  0.4050
  149DOPC   H4R17773   1.708   4.170  15.827  0.2015  0.5569  1.6612
  149DOPC   H4S17774   1.572   4.146  15.949 -0.5428  1.0155 -0.0458
  149DOPC   C2517775   1.519   4.187  15.743  0.0631  0.7023 -0.9277
  149DOPC   H5R17776   1.419   4.162  15.783  1.4049 -0.8622  1.7076
  149DOPC   H5S17777   1.547   4.140  15.647  1.9504  2.0571 -1.1030
  149DOPC   C2617778   1.532   4.335  15.751  0.1061  0.0213 -0.1522
  149DOPC   H6R17779   1.637   4.366  15.728  0.6010 -0.6739  1.1102
  149DOPC   H6S17780   1.516   4.371  15.855  0.4442 -1.4221  0.4232
  149DOPC   C2717781   1.434   4.407  15.658 -0.8273  0.1986 -0.2310
  149DOPC   H7R17782   1.446   4.514  15.685  1.1446 -0.4943  1.9257
  149DOPC   H7S17783   1.332   4.377  15.692 -0.5407  1.4562  1.9660
  149DOPC   C2817784   1.461   4.392  15.510 -0.8938  0.2417  0.7102
  149DOPC   H8R17785   1.453   4.288  15.472 -0.4223  1.5461 -3.5840
  149DOPC   H8S17786   1.568   4.417  15.492 -0.6759 -1.6870 -1.0777
  149DOPC   C2917787   1.375   4.483  15.427 -0.1290 -0.5189  0.0403
  149DOPC   H9R17788   1.312   4.553  15.483 -1.5437 -1.2759 -0.5465
  149DOPC  C21017789   1.378   4.485  15.296  0.6085  0.0296  0.4175
  149DOPC  H10R17790   1.315   4.560  15.246  1.3307 -0.6385 -1.6324
  149DOPC  C21117791   1.470   4.408  15.197  0.2137 -0.8361 -0.7699
  149DOPC  H11R17792   1.409   4.397  15.105 -1.1317  4.4216 -0.8170
  149DOPC  H11S17793   1.485   4.307  15.239  0.8720 -0.6372 -0.5164
  149DOPC  C21217794   1.601   4.490  15.171  0.7843 -0.4323  0.9536
  149DOPC  H12R17795   1.662   4.481  15.264  0.4483  0.0374  1.2277
  149DOPC  H12S17796   1.574   4.597  15.153 -1.4873 -0.6506  2.6651
  149DOPC  C21317797   1.699   4.424  15.068  0.0590 -0.5232  0.2704
  149DOPC  H13R17798   1.680   4.434  14.959  0.5881 -0.3353  0.1909
  149DOPC  H13S17799   1.710   4.315  15.083  1.1883 -0.6242 -1.1038
  149DOPC  C21417800   1.839   4.486  15.095  0.3032  0.1076 -0.0401
  149DOPC  H14R17801   1.866   4.452  15.198 -0.4851 -0.9421 -0.1532
  149DOPC  H14S17802   1.839   4.597  15.091 -0.0641  0.0836 -0.7239
  149DOPC  C21517803   1.947   4.430  14.999  0.2138 -0.4616 -0.5333
  149DOPC  H15R17804   1.922   4.475  14.900  0.1416 -2.3754 -1.4260
  149DOPC  H15S17805   1.937   4.320  14.989  0.9156 -0.4848 -1.1357
  149DOPC  C21617806   2.086   4.472  15.041  0.0301  0.0877  0.6560
  149DOPC  H16R17807   2.112   4.436  15.142  0.3138  1.3953  1.0683
  149DOPC  H16S17808   2.080   4.583  15.050 -1.5157 -0.1235  2.8102
  149DOPC  C21717809   2.196   4.437  14.945  0.4694  0.7780 -0.1878
  149DOPC  H17R17810   2.174   4.334  14.909 -1.5307  0.2564  2.2240
  149DOPC  H17S17811   2.295   4.444  14.995  0.3438  0.1799  0.1558
  149DOPC  C21817812   2.203   4.538  14.834  0.2569  0.3600  0.1367
  149DOPC  H18R17813   2.293   4.527  14.769 -0.6128 -2.8058 -0.7367
  149DOPC  H18S17814   2.186   4.643  14.865 -1.3784  0.5775 -1.2794
  149DOPC  H18T17815   2.118   4.502  14.771 -0.4195 -2.3426  2.3891
  149DOPC   C3317816   1.180   3.608  15.345  0.0685  0.8976 -0.0884
  149DOPC   H3X17817   1.236   3.644  15.256  0.0946 -2.4207 -1.5514
  149DOPC   H3Y17818   1.172   3.690  15.420 -0.1457  0.9346 -0.1530
  149DOPC   C3417819   1.046   3.564  15.297 -0.3936 -0.2483 -0.5064
  149DOPC   H4X17820   0.989   3.543  15.389  0.3347  1.6809  0.4237
  149DOPC   H4Y17821   1.050   3.475  15.229  2.1115  0.1446 -0.9824
  149DOPC   C3517822   0.958   3.673  15.231 -0.8202 -0.4364  0.5774
  149DOPC   H5X17823   0.965   3.755  15.306 -0.6601 -0.9784  1.1665
  149DOPC   H5Y17824   0.852   3.642  15.244 -0.4226 -1.6952  1.0067
  149DOPC   C3617825   1.001   3.709  15.090  0.2141 -0.2359 -0.4648
  149DOPC   H6X17826   1.097   3.764  15.080 -0.7702  1.4571 -0.9440
  149DOPC   H6Y17827   1.016   3.608  15.048  1.6453 -0.8116  1.2519
  149DOPC   C3717828   0.892   3.789  15.017  0.1517 -0.3491  0.3259
  149DOPC   H7X17829   0.794   3.742  15.039 -0.6605  1.0077 -0.2673
  149DOPC   H7Y17830   0.883   3.892  15.056 -0.1836 -0.1241 -0.3340
  149DOPC   C3817831   0.917   3.799  14.865  0.6087  0.5427  0.7284
  149DOPC   H8X17832   0.937   3.700  14.816 -2.4971  0.4282 -0.4959
  149DOPC   H8Y17833   1.004   3.867  14.851  0.1917  0.8190 -0.7514
  149DOPC   C3917834   0.798   3.872  14.807 -0.3521 -0.0944  0.2892
  149DOPC   H9X17835   0.794   3.978  14.836  0.9868  0.4217 -1.2744
  149DOPC  C31017836   0.716   3.816  14.720 -0.0911  0.0160  0.1380
  149DOPC  H10X17837   0.640   3.883  14.677  0.3148  1.1156  1.0867
  149DOPC  C31117838   0.716   3.675  14.662 -0.0459 -0.6027  0.1183
  149DOPC  H11X17839   0.684   3.602  14.739 -0.6123 -0.6815 -0.1838
  149DOPC  H11Y17840   0.815   3.653  14.615 -0.1192 -2.1146  0.6195
  149DOPC  C31217841   0.626   3.659  14.538 -0.3665 -0.1664 -0.4306
  149DOPC  H12X17842   0.673   3.713  14.453 -0.4793  0.0745 -0.3425
  149DOPC  H12Y17843   0.527   3.707  14.557  0.1186 -0.0911  2.4348
  149DOPC  C31317844   0.606   3.509  14.502 -0.3861 -0.3123  0.0211
  149DOPC  H13X17845   0.546   3.451  14.575  1.0486 -3.2168 -0.9207
  149DOPC  H13Y17846   0.548   3.496  14.408 -0.1825 -2.3268  0.1368
  149DOPC  C31417847   0.736   3.428  14.480 -0.3006 -0.0612  0.0320
  149DOPC  H14X17848   0.773   3.468  14.383  1.5807 -0.9413  0.3366
  149DOPC  H14Y17849   0.821   3.454  14.547 -0.2076 -1.4813  0.4895
  149DOPC  C31517850   0.718   3.281  14.451 -0.2933  0.0266 -0.1266
  149DOPC  H15X17851   0.637   3.268  14.376 -0.1175 -1.7842 -0.0476
  149DOPC  H15Y17852   0.677   3.236  14.544  1.5138 -1.2834  0.0878
  149DOPC  C31617853   0.842   3.212  14.393  0.4288  0.6134  0.0500
  149DOPC  H16X17854   0.875   3.283  14.315  1.1932  0.5074  0.2719
  149DOPC  H16Y17855   0.908   3.191  14.480 -0.3909 -0.5283  0.4252
  149DOPC  C31717856   0.806   3.078  14.330 -0.5619  0.0774 -0.2799
  149DOPC  H17X17857   0.726   3.031  14.390 -0.6748  0.5543 -0.0525
  149DOPC  H17Y17858   0.767   3.120  14.235 -0.5841  0.4248 -0.1183
  149DOPC  C31817859   0.920   2.982  14.287 -0.0166  0.8341  0.2057
  149DOPC  H18X17860   0.977   2.951  14.377  0.9141 -0.0025 -0.6368
  149DOPC  H18Y17861   0.881   2.890  14.239 -1.4031  1.7595 -0.4891
  149DOPC  H18Z17862   0.988   3.032  14.214 -3.1654  1.2279 -2.6834
  150DOPC     N17863   6.272   6.547  16.330  0.1701 -0.3908 -0.2110
  150DOPC   C1217864   6.194   6.531  16.199 -0.7069  0.1851 -0.6932
  150DOPC  H12A17865   6.187   6.428  16.168 -1.5633  0.3407 -1.0293
  150DOPC  H12B17866   6.239   6.580  16.114 -1.3859 -0.4598 -1.4369
  150DOPC   C1317867   6.213   6.468  16.444  0.0872 -0.1105  0.1374
  150DOPC  H13A17868   6.194   6.364  16.425  0.1556  0.2634 -2.3937
  150DOPC  H13B17869   6.275   6.483  16.531 -0.3223 -2.3863  0.8893
  150DOPC  H13C17870   6.120   6.515  16.473 -0.6917 -1.7000  0.3175
  150DOPC   C1417871   6.282   6.691  16.377 -1.3786  0.1531  0.5716
  150DOPC  H14A17872   6.184   6.732  16.396 -1.1308  0.3025  1.5617
  150DOPC  H14B17873   6.338   6.691  16.469  1.2642 -1.3642 -0.8853
  150DOPC  H14C17874   6.338   6.744  16.300  1.7822 -1.1530  1.7935
  150DOPC   C1517875   6.404   6.488  16.313  0.0199 -0.4612 -0.2829
  150DOPC  H15A17876   6.460   6.536  16.234  1.4462  1.7588  1.9606
  150DOPC  H15B17877   6.399   6.383  16.288  0.9949  0.0835 -3.1952
  150DOPC  H15C17878   6.456   6.505  16.406 -1.9857 -1.3123  1.0506
  150DOPC   C1117879   6.050   6.596  16.181 -0.4332  0.5515 -0.7079
  150DOPC  H11A17880   5.994   6.551  16.096  0.5550 -2.4861  0.1100
  150DOPC  H11B17881   5.989   6.565  16.268  1.5067 -0.1177  0.4853
  150DOPC     P17882   6.108   6.817  16.048 -0.1537 -0.0052 -0.2308
  150DOPC   O1317883   6.180   6.715  15.968 -0.4464  0.0831 -0.7892
  150DOPC   O1417884   6.190   6.932  16.092  0.0134  0.1459  0.3914
  150DOPC   O1217885   6.057   6.737  16.175 -0.1800 -0.4004 -0.1929
  150DOPC   O1117886   5.972   6.857  15.976  0.3516 -0.2674  0.1035
  150DOPC    C117887   5.848   6.843  16.049  0.1229  0.4075 -0.3294
  150DOPC    HA17888   5.846   6.938  16.105  0.5885 -0.4226  1.1444
  150DOPC    HB17889   5.846   6.758  16.121  2.5300  0.9566  0.4756
  150DOPC    C217890   5.722   6.843  15.955  0.3392 -0.1100  0.0381
  150DOPC    HS17891   5.642   6.813  16.026 -0.0620  1.0058  0.0782
  150DOPC   O2117892   5.751   6.752  15.848  0.6766 -0.1724  0.1846
  150DOPC   C2117893   5.733   6.625  15.872  0.6635 -0.2593 -0.7835
  150DOPC   O2217894   5.685   6.577  15.975  0.4400 -0.1894  0.3076
  150DOPC   C2217895   5.789   6.541  15.753 -0.0801  0.0027 -0.0434
  150DOPC   H2R17896   5.877   6.485  15.791 -0.9443 -1.3158  0.0837
  150DOPC   H2S17897   5.832   6.607  15.675  1.2024  0.3524  0.9219
  150DOPC    C317898   5.694   6.984  15.896 -0.8448  0.1198 -0.2187
  150DOPC    HX17899   5.790   7.036  15.876 -0.6974  0.1035  0.4352
  150DOPC    HY17900   5.641   7.043  15.974  2.4465  3.1674 -0.0503
  150DOPC   O3117901   5.606   6.971  15.779  0.8376 -0.5247 -0.4238
  150DOPC   C3117902   5.664   6.984  15.664  0.0199 -0.1613 -0.4002
  150DOPC   O3217903   5.783   7.017  15.644  0.0689  0.1090  0.6307
  150DOPC   C3217904   5.553   6.981  15.549  0.0363  0.7815  0.3346
  150DOPC   H2X17905   5.596   7.067  15.493  0.5345  0.1555 -0.2620
  150DOPC   H2Y17906   5.563   6.888  15.489 -1.8349 -0.5520  1.9493
  150DOPC   C2317907   5.681   6.446  15.702 -0.2658  0.2587  0.5188
  150DOPC   H3R17908   5.612   6.415  15.783  0.3103  0.5742  1.1332
  150DOPC   H3S17909   5.722   6.366  15.637  1.5546  1.2437  0.3954
  150DOPC   C2417910   5.575   6.513  15.610  0.1312 -0.4190 -0.2580
  150DOPC   H4R17911   5.616   6.540  15.511  3.1804 -1.3753  0.6087
  150DOPC   H4S17912   5.548   6.609  15.659  0.1102 -0.4617 -0.1862
  150DOPC   C2517913   5.451   6.430  15.591 -0.3970  0.1586 -0.1028
  150DOPC   H5R17914   5.487   6.326  15.608  1.4473  0.3717 -2.1630
  150DOPC   H5S17915   5.415   6.435  15.486  0.9241  0.2367 -0.5708
  150DOPC   C2617916   5.338   6.484  15.686  0.3375 -0.2124  0.3842
  150DOPC   H6R17917   5.301   6.585  15.658  1.8811  0.5671  1.0563
  150DOPC   H6S17918   5.385   6.496  15.786  0.4913  1.8402  0.0950
  150DOPC   C2717919   5.209   6.400  15.696  0.1741  0.4517  0.5280
  150DOPC   H7R17920   5.154   6.438  15.785  1.4098  0.6513  1.2204
  150DOPC   H7S17921   5.234   6.294  15.717  0.2110  0.5229  0.8345
  150DOPC   C2817922   5.116   6.403  15.573 -0.9615 -0.5729 -0.6153
  150DOPC   H8R17923   5.034   6.337  15.608 -0.5633 -0.6336  0.2365
  150DOPC   H8S17924   5.165   6.365  15.481  0.2991  1.5090 -0.8639
  150DOPC   C2917925   5.064   6.540  15.559 -0.0288  0.2190 -0.0762
  150DOPC   H9R17926   5.032   6.592  15.651 -1.4731  0.2746 -0.5749
  150DOPC  C21017927   5.060   6.615  15.441  0.4542  0.4051 -0.8306
  150DOPC  H10R17928   5.005   6.710  15.432 -0.5824 -0.1385 -0.3779
  150DOPC  C21117929   5.082   6.558  15.308 -0.3367  0.0067  0.5658
  150DOPC  H11R17930   5.013   6.608  15.237  0.8975  1.7762  0.5413
  150DOPC  H11S17931   5.053   6.451  15.301 -2.8965  0.7407 -2.5859
  150DOPC  C21217932   5.221   6.569  15.250  0.0851  0.7576 -0.2522
  150DOPC  H12R17933   5.286   6.520  15.326  0.7664 -0.2248 -1.4380
  150DOPC  H12S17934   5.251   6.676  15.243 -0.2384  0.9084  0.5664
  150DOPC  C21317935   5.237   6.506  15.110 -0.5923  0.8572  0.6875
  150DOPC  H13R17936   5.181   6.410  15.116 -1.4595  1.2701 -0.3134
  150DOPC  H13S17937   5.344   6.487  15.091 -0.8126  1.8862 -2.0400
  150DOPC  C21417938   5.182   6.593  14.989 -0.6846 -0.6880 -0.5070
  150DOPC  H14R17939   5.268   6.607  14.920  0.7219 -1.1734  1.0893
  150DOPC  H14S17940   5.165   6.693  15.035 -0.5609 -1.4626  1.2986
  150DOPC  C21517941   5.061   6.541  14.912 -0.3185 -0.3461 -0.1056
  150DOPC  H15R17942   4.981   6.500  14.977 -0.3687 -0.9291 -0.5365
  150DOPC  H15S17943   5.101   6.453  14.859  2.2385  0.1261  0.8635
  150DOPC  C21617944   5.004   6.640  14.801 -0.3480  0.3568 -0.1632
  150DOPC  H16R17945   5.086   6.630  14.727  0.0543 -1.4260  0.4735
  150DOPC  H16S17946   5.003   6.745  14.838  0.3851  0.8946 -1.5880
  150DOPC  C21717947   4.860   6.608  14.753  0.8814 -0.0846 -0.2213
  150DOPC  H17R17948   4.832   6.660  14.658 -2.5505  0.5982  1.0136
  150DOPC  H17S17949   4.798   6.659  14.829  1.4956  0.3981 -0.0364
  150DOPC  C21817950   4.822   6.462  14.740 -0.1163  0.4492 -0.1770
  150DOPC  H18R17951   4.841   6.414  14.839 -0.2087  1.8025  0.5184
  150DOPC  H18S17952   4.890   6.405  14.674 -0.0492  1.1088 -0.6795
  150DOPC  H18T17953   4.715   6.449  14.711 -0.9432  2.5055  1.6173
  150DOPC   C3317954   5.412   7.014  15.584  0.4728  0.7621  0.0745
  150DOPC   H3X17955   5.404   7.124  15.590 -0.4219  0.6492  1.2439
  150DOPC   H3Y17956   5.381   6.957  15.674 -1.1589 -0.1609 -0.9960
  150DOPC   C3417957   5.313   6.981  15.475 -0.6392  0.2763  0.2101
  150DOPC   H4X17958   5.331   6.876  15.444 -0.5421  0.1643  0.6441
  150DOPC   H4Y17959   5.333   7.058  15.397  3.4022  0.3813  1.1169
  150DOPC   C3517960   5.168   6.989  15.522 -0.0438 -0.0184 -1.1936
  150DOPC   H5X17961   5.164   6.929  15.615  2.0333 -0.2203 -1.1884
  150DOPC   H5Y17962   5.101   6.957  15.439 -1.5038  0.6958 -0.3369
  150DOPC   C3617963   5.131   7.130  15.574 -0.1438 -0.2664 -0.2908
  150DOPC   H6X17964   5.044   7.117  15.642 -0.2328 -0.3951 -0.4289
  150DOPC   H6Y17965   5.206   7.181  15.638 -0.3601  0.6386 -0.7409
  150DOPC   C3717966   5.095   7.232  15.463  0.1240  0.3386 -0.0842
  150DOPC   H7X17967   5.172   7.233  15.383 -0.6757 -1.4101 -0.9287
  150DOPC   H7Y17968   4.998   7.198  15.421  0.7131 -1.5440 -0.0253
  150DOPC   C3817969   5.089   7.377  15.507 -0.5910 -0.5369  0.1529
  150DOPC   H8X17970   5.187   7.397  15.555 -0.3754  0.1175 -0.5496
  150DOPC   H8Y17971   5.015   7.389  15.589 -0.8888 -0.7376 -0.0834
  150DOPC   C3917972   5.057   7.467  15.394 -0.2218  0.4576  0.4218
  150DOPC   H9X17973   4.954   7.485  15.359  0.5767  0.9246 -1.8785
  150DOPC  C31017974   5.154   7.526  15.325  0.6761 -0.0415  0.6795
  150DOPC  H10X17975   5.115   7.602  15.256  0.2060  1.4100  2.4644
  150DOPC  C31117976   5.300   7.521  15.354 -0.5632  0.1511 -0.1229
  150DOPC  H11X17977   5.355   7.525  15.257 -0.1789 -0.5697  0.0563
  150DOPC  H11Y17978   5.323   7.422  15.400  0.9453 -0.1219 -1.3641
  150DOPC  C31217979   5.350   7.623  15.453 -0.1448  0.6322 -0.5742
  150DOPC  H12X17980   5.460   7.619  15.470 -0.3481  2.4269  1.6298
  150DOPC  H12Y17981   5.317   7.588  15.553  0.9098  0.2326 -0.3507
  150DOPC  C31317982   5.301   7.768  15.427 -0.3930  1.0764  0.6455
  150DOPC  H13X17983   5.344   7.801  15.330  1.0099 -2.9937 -0.3049
  150DOPC  H13Y17984   5.191   7.772  15.413 -0.6321  1.3804  2.3961
  150DOPC  C31417985   5.350   7.866  15.541 -0.0857 -0.0837  0.5836
  150DOPC  H14X17986   5.301   7.831  15.634 -1.8391 -1.6109 -0.8438
  150DOPC  H14Y17987   5.458   7.843  15.553  0.0237  0.1103  0.0138
  150DOPC  C31517988   5.331   8.011  15.502  0.1710  0.4141  0.1496
  150DOPC  H15X17989   5.397   8.038  15.416  0.8652  2.8252  1.3477
  150DOPC  H15Y17990   5.367   8.072  15.588  0.2391  0.2224  0.2574
  150DOPC  C31617991   5.187   8.052  15.464 -0.5492 -0.3140  0.1204
  150DOPC  H16X17992   5.107   7.977  15.480  0.1320 -1.5768 -2.0594
  150DOPC  H16Y17993   5.150   8.138  15.525 -2.8953 -1.4867  0.4761
  150DOPC  C31717994   5.172   8.089  15.308 -1.2138  0.4805 -0.9042
  150DOPC  H17X17995   5.230   8.180  15.285 -3.0741  2.5784  2.0442
  150DOPC  H17Y17996   5.225   8.006  15.256 -0.3714  0.6700 -0.3637
  150DOPC  C31817997   5.031   8.104  15.257 -0.1804  0.4405  0.8795
  150DOPC  H18X17998   5.012   8.108  15.148  3.7820  1.3941  0.0576
  150DOPC  H18Y17999   4.967   8.022  15.296 -0.5558  0.6684  0.7539
  150DOPC  H18Z18000   4.985   8.188  15.313  1.8962  0.6073  2.4467
  151DOPC     N18001   7.590   5.166  16.723  0.3448  0.5394  0.0206
  151DOPC   C1218002   7.700   5.262  16.761  0.6039  0.2312 -0.7555
  151DOPC  H12A18003   7.726   5.232  16.862 -1.6996 -1.2975 -0.5395
  151DOPC  H12B18004   7.660   5.363  16.766 -0.8267 -0.2620 -1.5625
  151DOPC   C1318005   7.547   5.191  16.583 -0.4958  0.3693 -0.8468
  151DOPC  H13A18006   7.630   5.160  16.521 -1.6212  0.6770 -2.5712
  151DOPC  H13B18007   7.459   5.139  16.551  0.3239 -0.0574 -2.5086
  151DOPC  H13C18008   7.519   5.293  16.561  2.1071  1.2793 -0.3284
  151DOPC   C1418009   7.470   5.185  16.813 -0.0455  0.3599 -0.5866
  151DOPC  H14A18010   7.503   5.164  16.914 -0.6292 -0.3744 -0.5408
  151DOPC  H14B18011   7.423   5.281  16.798  1.1236  0.9778 -0.4149
  151DOPC  H14C18012   7.396   5.111  16.788  1.1754 -0.1435 -3.0260
  151DOPC   C1518013   7.642   5.026  16.742 -0.1425 -0.3982  0.1184
  151DOPC  H15A18014   7.736   5.019  16.688 -0.6317 -0.9787 -0.6783
  151DOPC  H15B18015   7.574   4.952  16.704  1.0681 -0.5097 -1.9741
  151DOPC  H15C18016   7.683   5.011  16.841 -0.0698  1.3160  0.3821
  151DOPC   C1118017   7.820   5.277  16.664 -0.2865  0.2691  0.2931
  151DOPC  H11A18018   7.895   5.340  16.716 -0.3905  0.7815 -0.1737
  151DOPC  H11B18019   7.864   5.175  16.660 -1.8618 -0.4104 -0.9439
  151DOPC     P18020   7.804   5.474  16.489 -0.4347 -0.6228 -0.3359
  151DOPC   O1318021   7.943   5.483  16.441  0.4657  0.1765 -0.0578
  151DOPC   O1418022   7.767   5.568  16.601  0.7256  0.7642 -0.1967
  151DOPC   O1218023   7.787   5.322  16.532  0.0239  0.0137  0.3210
  151DOPC   O1118024   7.704   5.497  16.370 -0.0797  0.1895  0.4489
  151DOPC    C118025   7.711   5.426  16.243 -0.3494 -0.5375 -0.8004
  151DOPC    HA18026   7.608   5.431  16.201 -1.0786 -0.7473  0.9064
  151DOPC    HB18027   7.738   5.319  16.245  1.0204 -0.2392 -1.3935
  151DOPC    C218028   7.822   5.491  16.152 -0.7313  0.3860  0.6822
  151DOPC    HS18029   7.920   5.490  16.204 -0.8655 -2.0300  0.9994
  151DOPC   O2118030   7.771   5.617  16.121 -0.6615  0.2554 -0.3276
  151DOPC   C2118031   7.852   5.712  16.088  0.1053  0.3695  0.3878
  151DOPC   O2218032   7.975   5.705  16.088  0.0452 -0.0185  0.1847
  151DOPC   C2218033   7.776   5.836  16.041  0.7321  0.6147 -0.8225
  151DOPC   H2R18034   7.750   5.897  16.130 -0.1458  0.5428 -1.0192
  151DOPC   H2S18035   7.683   5.794  15.997  0.2436 -0.9659  1.5144
  151DOPC    C318036   7.855   5.406  16.026  0.1453 -0.1375 -0.3515
  151DOPC    HX18037   7.756   5.390  15.977  0.0574  0.4326 -0.3644
  151DOPC    HY18038   7.897   5.305  16.046 -0.2423 -1.0415 -3.4436
  151DOPC   O3118039   7.929   5.482  15.928  0.3725 -0.2819 -0.4612
  151DOPC   C3118040   8.058   5.452  15.921 -0.2450  0.4990  0.0825
  151DOPC   O3218041   8.115   5.380  16.003 -0.2756 -0.3444  0.3290
  151DOPC   C3218042   8.133   5.530  15.806  0.9143  0.2542  0.2504
  151DOPC   H2X18043   8.061   5.521  15.722 -0.4046  1.9222  1.1560
  151DOPC   H2Y18044   8.140   5.632  15.847 -0.2025  0.5412 -0.2206
  151DOPC   C2318045   7.831   5.899  15.914 -0.2782 -0.8932 -0.4062
  151DOPC   H3R18046   7.932   5.943  15.930  0.0860 -1.6490 -0.5568
  151DOPC   H3S18047   7.763   5.982  15.889 -0.2685 -0.3513  1.2454
  151DOPC   C2418048   7.843   5.808  15.795 -0.8284  0.6302  0.4502
  151DOPC   H4R18049   7.743   5.768  15.768 -0.4755  0.3689 -0.5089
  151DOPC   H4S18050   7.928   5.743  15.822 -1.3871 -0.6258 -0.6870
  151DOPC   C2518051   7.893   5.875  15.659  0.5750 -0.4992 -0.3361
  151DOPC   H5R18052   8.001   5.895  15.673  0.6448 -1.1683  0.1130
  151DOPC   H5S18053   7.844   5.974  15.644  1.6332  0.1702  0.5154
  151DOPC   C2618054   7.896   5.776  15.544  1.0945  0.3411 -0.3635
  151DOPC   H6R18055   7.792   5.772  15.505  0.8520 -1.1071  0.3743
  151DOPC   H6S18056   7.917   5.675  15.583 -1.0149 -0.1959 -0.4851
  151DOPC   C2718057   8.006   5.807  15.437 -0.2048 -0.7975 -0.3746
  151DOPC   H7R18058   8.101   5.830  15.490 -1.4837  0.7249  1.4233
  151DOPC   H7S18059   7.972   5.896  15.379 -0.8454 -0.5307  0.3912
  151DOPC   C2818060   8.025   5.698  15.332  0.8416 -0.5812  0.0959
  151DOPC   H8R18061   8.079   5.613  15.380  1.5953 -1.0817 -1.5575
  151DOPC   H8S18062   8.089   5.730  15.248 -0.6574  0.8223 -0.5492
  151DOPC   C2918063   7.900   5.635  15.272  0.0120 -0.1810 -0.2559
  151DOPC   H9R18064   7.833   5.586  15.345  1.6422 -0.4367  1.1346
  151DOPC  C21018065   7.861   5.634  15.145 -0.3947 -0.1855 -0.6781
  151DOPC  H10R18066   7.758   5.598  15.131 -0.3647 -0.0466 -1.2625
  151DOPC  C21118067   7.935   5.684  15.022  0.5939  0.4431 -0.0298
  151DOPC  H11R18068   7.965   5.613  14.943  2.2487  2.6845 -1.5469
  151DOPC  H11S18069   8.029   5.727  15.063 -0.7402  2.5339  1.0125
  151DOPC  C21218070   7.847   5.788  14.950 -0.0690  0.0803 -0.0086
  151DOPC  H12R18071   7.827   5.866  15.027 -2.2600  0.0989 -0.5246
  151DOPC  H12S18072   7.752   5.742  14.916 -0.4204  0.4366  0.4698
  151DOPC  C21318073   7.922   5.854  14.832  0.2855 -0.4721  0.8598
  151DOPC  H13R18074   7.962   5.777  14.762 -0.3080 -0.0498  0.0403
  151DOPC  H13S18075   8.002   5.916  14.879 -0.4934  0.8099  0.5357
  151DOPC  C21418076   7.832   5.952  14.759  0.4193  0.3273  0.2664
  151DOPC  H14R18077   7.780   6.020  14.830 -0.2970  0.1297 -0.0589
  151DOPC  H14S18078   7.745   5.896  14.718 -0.0144  0.2516  1.2656
  151DOPC  C21518079   7.913   6.021  14.647  0.4113  0.0526 -0.2189
  151DOPC  H15R18080   7.960   5.947  14.579  0.7752  1.4785 -1.5952
  151DOPC  H15S18081   7.989   6.093  14.683 -0.8787  1.8770 -0.9820
  151DOPC  C21618082   7.822   6.107  14.567 -0.0938  0.4233  0.7289
  151DOPC  H16R18083   7.782   6.189  14.631  0.9837  1.8304 -0.3459
  151DOPC  H16S18084   7.739   6.046  14.526 -0.4679  1.5612 -0.2468
  151DOPC  C21718085   7.862   6.162  14.428  0.1083 -0.5551 -0.5522
  151DOPC  H17R18086   7.897   6.071  14.376  1.3312 -1.3761  1.5643
  151DOPC  H17S18087   7.960   6.213  14.434  0.5683 -1.3496 -1.1585
  151DOPC  C21818088   7.751   6.236  14.357 -0.1250  0.9353  0.6843
  151DOPC  H18R18089   7.692   6.161  14.300 -0.1075  1.4161  0.0249
  151DOPC  H18S18090   7.789   6.296  14.272 -1.4999 -0.3514 -0.9069
  151DOPC  H18T18091   7.678   6.297  14.414 -0.2065  1.2970  0.1973
  151DOPC   C3318092   8.264   5.465  15.777 -0.8519 -0.0903  0.0076
  151DOPC   H3X18093   8.307   5.428  15.872 -0.7409  0.5535  0.2124
  151DOPC   H3Y18094   8.328   5.542  15.728 -0.7053 -0.0663  0.2383
  151DOPC   C3418095   8.260   5.347  15.677  0.0804 -0.7463  0.2035
  151DOPC   H4X18096   8.184   5.276  15.717  1.0037 -1.2769  1.0542
  151DOPC   H4Y18097   8.367   5.316  15.681  0.9205  1.4743 -2.1960
  151DOPC   C3518098   8.232   5.385  15.529 -0.0416 -0.3974  0.0688
  151DOPC   H5X18099   8.314   5.453  15.497 -0.5103  0.6990  1.1221
  151DOPC   H5Y18100   8.137   5.442  15.521  0.3880  0.4614  0.9830
  151DOPC   C3618101   8.230   5.258  15.430 -0.2772 -0.0335 -0.3609
  151DOPC   H6X18102   8.325   5.203  15.446 -1.0259 -1.3817 -0.3777
  151DOPC   H6Y18103   8.155   5.179  15.452  2.0198 -2.8500 -1.9283
  151DOPC   C3718104   8.218   5.293  15.286 -0.6386 -0.5222 -0.2089
  151DOPC   H7X18105   8.234   5.204  15.223 -2.1039  0.1288 -1.5704
  151DOPC   H7Y18106   8.115   5.332  15.270  0.5575  1.9485 -2.8628
  151DOPC   C3818107   8.313   5.411  15.250 -0.2173  0.0723  0.4486
  151DOPC   H8X18108   8.270   5.502  15.297 -0.7375  1.1263 -1.9119
  151DOPC   H8Y18109   8.304   5.423  15.140  1.1336 -0.0795  0.3092
  151DOPC   C3918110   8.461   5.402  15.288 -0.3904  0.4559  0.5628
  151DOPC   H9X18111   8.480   5.432  15.393  0.8863 -0.7096  0.6996
  151DOPC  C31018112   8.561   5.361  15.216 -0.4075  0.5520  0.1200
  151DOPC  H10X18113   8.661   5.351  15.260 -0.2992 -2.1619 -0.6109
  151DOPC  C31118114   8.550   5.300  15.080  0.5568  0.2511  0.1408
  151DOPC  H11X18115   8.450   5.315  15.035 -0.2961 -5.4158 -0.5464
  151DOPC  H11Y18116   8.567   5.192  15.099  1.2243  0.9160  4.0988
  151DOPC  C31218117   8.651   5.355  14.973  0.9846  0.6432  0.2528
  151DOPC  H12X18118   8.755   5.322  14.994 -0.1077 -3.3809  0.1891
  151DOPC  H12Y18119   8.643   5.466  14.977  0.3246  0.7067 -1.7476
  151DOPC  C31318120   8.604   5.314  14.830 -0.7256  0.6086  0.9364
  151DOPC  H13X18121   8.495   5.336  14.821 -0.9415 -0.7357  0.0070
  151DOPC  H13Y18122   8.667   5.373  14.761 -0.0119  1.3338  2.1622
  151DOPC  C31418123   8.621   5.161  14.808  0.6294  0.2195 -0.2386
  151DOPC  H14X18124   8.727   5.129  14.812  0.2847 -1.0820 -0.9340
  151DOPC  H14Y18125   8.561   5.099  14.878 -0.3046  0.8632 -0.4527
  151DOPC  C31518126   8.572   5.095  14.671  0.7335  0.4719 -0.6037
  151DOPC  H15X18127   8.599   5.159  14.584  3.5894 -1.7638 -1.5275
  151DOPC  H15Y18128   8.462   5.101  14.674  0.5907 -1.8690  0.8003
  151DOPC  C31618129   8.610   4.953  14.670 -0.4846  0.7483 -1.0116
  151DOPC  H16X18130   8.718   4.951  14.646  0.4947  0.0415  2.7814
  151DOPC  H16Y18131   8.596   4.903  14.768 -1.3614  1.0532 -0.9678
  151DOPC  C31718132   8.529   4.867  14.570 -0.0156  0.9166  0.6121
  151DOPC  H17X18133   8.424   4.870  14.605  0.1097  2.4873  0.9478
  151DOPC  H17Y18134   8.545   4.915  14.471 -0.2438 -0.5227 -0.1354
  151DOPC  C31818135   8.582   4.719  14.567 -0.0340 -0.1663 -0.1968
  151DOPC  H18X18136   8.679   4.697  14.517  0.9573  1.4299  0.9514
  151DOPC  H18Y18137   8.586   4.688  14.674 -2.1331  0.3504  0.0639
  151DOPC  H18Z18138   8.499   4.660  14.523 -2.5079  2.5678  0.4953
  152DOPC     N18139   3.963   3.611  16.481  0.2673  0.0435 -0.9757
  152DOPC   C1218140   3.814   3.627  16.515 -0.1983  0.1181  0.3130
  152DOPC  H12A18141   3.802   3.698  16.595 -1.2542  0.1123  0.1805
  152DOPC  H12B18142   3.789   3.529  16.552  2.0305 -0.2580  0.9443
  152DOPC   C1318143   3.976   3.528  16.355  0.0823  0.2913  0.2382
  152DOPC  H13A18144   4.081   3.525  16.330  0.0432 -1.6189  0.1840
  152DOPC  H13B18145   3.936   3.429  16.370 -1.1795  0.7954  0.3217
  152DOPC  H13C18146   3.923   3.579  16.275 -0.6802  0.2482  0.7096
  152DOPC   C1418147   4.034   3.541  16.596  0.1578 -0.1141  0.1699
  152DOPC  H14A18148   4.008   3.580  16.693 -1.0415  0.0493 -0.2109
  152DOPC  H14B18149   3.999   3.439  16.600 -1.6103  0.2676 -2.7050
  152DOPC  H14C18150   4.141   3.552  16.585 -0.1458  0.3429 -4.0595
  152DOPC   C1518151   4.025   3.747  16.465 -0.2165  0.3042  0.5427
  152DOPC  H15A18152   3.972   3.811  16.396 -2.3318 -1.9547 -0.0640
  152DOPC  H15B18153   4.127   3.749  16.431 -0.6163  1.1441 -0.6597
  152DOPC  H15C18154   4.018   3.808  16.554  0.5278  0.5569  0.4391
  152DOPC   C1118155   3.714   3.665  16.405 -0.3585 -0.4174 -0.4144
  152DOPC  H11A18156   3.724   3.596  16.318  1.3009  0.5822 -1.0725
  152DOPC  H11B18157   3.610   3.668  16.444 -0.0606  2.4150  0.3518
  152DOPC     P18158   3.646   3.914  16.319 -0.3929  0.3963  0.7221
  152DOPC   O1318159   3.712   4.044  16.338  1.0289  0.1666  0.0708
  152DOPC   O1418160   3.515   3.891  16.379 -0.2714 -0.3316  0.0935
  152DOPC   O1218161   3.746   3.800  16.360  0.1271 -0.1730 -0.4656
  152DOPC   O1118162   3.628   3.876  16.168 -0.5469  0.0807 -0.9980
  152DOPC    C118163   3.587   3.752  16.126 -0.6909  0.1838  0.2207
  152DOPC    HA18164   3.504   3.712  16.189 -0.0729 -1.2833  0.1566
  152DOPC    HB18165   3.672   3.681  16.128  1.0603  2.1689  2.3368
  152DOPC    C218166   3.512   3.754  15.989 -0.1710  0.8489  0.0732
  152DOPC    HS18167   3.471   3.654  15.962  0.8854 -0.2103  2.1927
  152DOPC   O2118168   3.598   3.804  15.877 -0.5939  0.5057 -0.1634
  152DOPC   C2118169   3.708   3.733  15.843 -0.0782  0.4367  0.3155
  152DOPC   O2218170   3.738   3.616  15.859  0.0375  0.3798 -0.3145
  152DOPC   C2218171   3.788   3.825  15.757  0.0002  0.5885 -0.1006
  152DOPC   H2R18172   3.819   3.902  15.831 -1.5486 -0.2243  1.4575
  152DOPC   H2S18173   3.722   3.871  15.681  0.4871  1.6315  0.0829
  152DOPC    C318174   3.388   3.846  15.998 -0.4831  0.4387  0.2341
  152DOPC    HX18175   3.433   3.942  16.029  0.5202 -0.2192  0.8571
  152DOPC    HY18176   3.324   3.807  16.080  0.5151 -0.9017  0.4199
  152DOPC   O3118177   3.322   3.865  15.871  0.4000 -0.0617 -0.0751
  152DOPC   C3118178   3.236   3.769  15.827  0.1001  0.1447  0.3417
  152DOPC   O3218179   3.197   3.672  15.887 -0.1974 -0.3848 -0.0200
  152DOPC   C3218180   3.185   3.811  15.690  0.0618  0.0019 -0.6772
  152DOPC   H2X18181   3.237   3.899  15.646 -2.4198  2.8301  1.5858
  152DOPC   H2Y18182   3.200   3.718  15.631  0.2623 -0.1433 -0.4045
  152DOPC   C2318183   3.903   3.769  15.660 -1.0869 -0.8332  0.1925
  152DOPC   H3R18184   3.985   3.721  15.718 -1.5955 -2.3776 -0.3073
  152DOPC   H3S18185   3.945   3.862  15.617 -2.5879  0.6458  1.7955
  152DOPC   C2418186   3.841   3.682  15.555  0.1084  1.0893 -0.1751
  152DOPC   H4R18187   3.753   3.737  15.515 -0.0484  2.5956  2.0295
  152DOPC   H4S18188   3.808   3.584  15.596  3.1869 -0.4652 -1.1154
  152DOPC   C2518189   3.950   3.670  15.443 -0.1984 -0.1710  0.0042
  152DOPC   H5R18190   4.041   3.612  15.472 -0.3969  0.3081  1.7377
  152DOPC   H5S18191   3.986   3.771  15.415 -0.1855 -0.0295  0.5203
  152DOPC   C2618192   3.898   3.592  15.320 -0.6137 -0.0089 -0.6478
  152DOPC   H6R18193   3.813   3.629  15.259  0.2760 -0.6977 -2.3469
  152DOPC   H6S18194   3.872   3.493  15.362  3.9589 -0.5328  1.5215
  152DOPC   C2718195   4.019   3.565  15.223  0.3774 -0.0017  0.1713
  152DOPC   H7R18196   4.107   3.527  15.279 -0.4529 -0.3921  1.2626
  152DOPC   H7S18197   4.050   3.661  15.175 -0.1026 -1.2157 -2.7686
  152DOPC   C2818198   3.990   3.464  15.114  0.6589 -0.6325  0.0617
  152DOPC   H8R18199   3.926   3.384  15.158 -1.3481  0.0991 -1.3629
  152DOPC   H8S18200   4.090   3.429  15.080  0.8686 -0.7211  0.7511
  152DOPC   C2918201   3.920   3.521  14.996 -0.6801  0.1596  0.9444
  152DOPC   H9R18202   3.828   3.576  15.023 -0.3958  2.2157 -1.8333
  152DOPC  C21018203   3.969   3.515  14.869 -0.7631  0.0109 -0.0659
  152DOPC  H10R18204   3.913   3.551  14.781 -0.3969  0.6227 -0.0514
  152DOPC  C21118205   4.092   3.448  14.816  0.2442  0.2732  0.4002
  152DOPC  H11R18206   4.070   3.342  14.791 -1.9005  0.8456 -0.3659
  152DOPC  H11S18207   4.178   3.447  14.886  0.9504  0.7053 -0.4402
  152DOPC  C21218208   4.148   3.506  14.680 -0.2485 -0.4303  0.0616
  152DOPC  H12R18209   4.147   3.615  14.696  1.3138 -0.1721 -1.3212
  152DOPC  H12S18210   4.073   3.485  14.600 -2.1631  1.2957  1.3208
  152DOPC  C21318211   4.292   3.459  14.648  0.2259 -0.3164 -1.6495
  152DOPC  H13R18212   4.286   3.348  14.651  0.1170 -0.3348 -2.3642
  152DOPC  H13S18213   4.358   3.487  14.733 -1.7831  0.4779 -0.2571
  152DOPC  C21418214   4.340   3.506  14.516  0.0999  0.0108 -0.3516
  152DOPC  H14R18215   4.355   3.616  14.515 -2.5685  0.6411  4.1722
  152DOPC  H14S18216   4.264   3.469  14.443  1.3618  1.4405 -2.5270
  152DOPC  C21518217   4.471   3.435  14.474  0.6099  0.3794 -0.0096
  152DOPC  H15R18218   4.467   3.324  14.476 -0.9086  0.4153 -0.0249
  152DOPC  H15S18219   4.555   3.466  14.541  1.3896 -3.0594  0.8199
  152DOPC  C21618220   4.518   3.485  14.339  0.5089  0.1132  0.5232
  152DOPC  H16R18221   4.625   3.468  14.316 -0.2085 -1.5470 -2.0125
  152DOPC  H16S18222   4.510   3.596  14.334  2.7359  0.2765 -1.0991
  152DOPC  C21718223   4.453   3.406  14.213  0.7600  0.2817 -0.0963
  152DOPC  H17R18224   4.468   3.457  14.116 -0.2614 -0.6911 -0.7943
  152DOPC  H17S18225   4.343   3.397  14.228  0.5955  2.6877  0.5471
  152DOPC  C21818226   4.501   3.255  14.203  0.1807  0.0281 -0.2988
  152DOPC  H18R18227   4.485   3.198  14.297 -0.3931 -0.0102 -0.4148
  152DOPC  H18S18228   4.601   3.234  14.159 -0.5779 -2.3149 -0.9989
  152DOPC  H18T18229   4.434   3.202  14.132  0.7416 -3.9453  1.8558
  152DOPC   C3318230   3.044   3.856  15.711  0.7677 -0.1623  0.0553
  152DOPC   H3X18231   2.979   3.771  15.741  1.6192 -0.7040  0.4199
  152DOPC   H3Y18232   3.013   3.896  15.612  1.0128 -0.4164 -0.1250
  152DOPC   C3418233   3.035   3.961  15.823 -0.0770  0.4749  0.7442
  152DOPC   H4X18234   3.115   4.029  15.786  0.6382  0.3697  2.0125
  152DOPC   H4Y18235   3.079   3.925  15.919  1.2176  1.8323  0.7041
  152DOPC   C3518236   2.900   4.025  15.847  0.3616  0.5675  0.3566
  152DOPC   H5X18237   2.835   3.945  15.888  1.5232  0.0108  1.1655
  152DOPC   H5Y18238   2.868   4.055  15.745  0.1541  0.0339  0.2609
  152DOPC   C3618239   2.911   4.153  15.929  0.3912  0.3782 -0.1775
  152DOPC   H6X18240   2.990   4.138  16.006 -0.6759  0.7204  1.0132
  152DOPC   H6Y18241   2.940   4.244  15.872 -0.1971  0.9864  0.4675
  152DOPC   C3718242   2.781   4.200  16.003 -0.8244  0.2163 -0.4453
  152DOPC   H7X18243   2.759   4.123  16.080 -1.8812  0.5356 -0.4122
  152DOPC   H7Y18244   2.802   4.297  16.052 -1.4932 -0.0227  0.3282
  152DOPC   C3818245   2.661   4.198  15.911  0.1221 -0.0892 -0.3387
  152DOPC   H8X18246   2.654   4.097  15.866  0.4377 -0.5031  0.5221
  152DOPC   H8Y18247   2.697   4.264  15.829  0.8740 -0.3925 -0.2594
  152DOPC   C3918248   2.534   4.243  15.979 -0.3712  0.1947 -0.0595
  152DOPC   H9X18249   2.523   4.225  16.087 -1.7178  2.1980  0.1979
  152DOPC  C31018250   2.418   4.276  15.917  0.1000  0.2563  0.0914
  152DOPC  H10X18251   2.342   4.334  15.972 -0.0569 -0.0092  0.1523
  152DOPC  C31118252   2.417   4.295  15.770 -0.1917  0.7879  0.0009
  152DOPC  H11X18253   2.328   4.245  15.727  1.5052 -2.3853 -0.1452
  152DOPC  H11Y18254   2.492   4.226  15.725 -2.7824 -1.2464 -1.4250
  152DOPC  C31218255   2.427   4.434  15.710  0.1422 -0.2831 -0.4372
  152DOPC  H12X18256   2.501   4.494  15.767  0.1553  2.4206 -3.0483
  152DOPC  H12Y18257   2.330   4.484  15.733  0.8276  1.8161 -1.8308
  152DOPC  C31318258   2.470   4.436  15.569 -0.5373  1.3083  0.0248
  152DOPC  H13X18259   2.577   4.408  15.575 -1.0611 -0.7430  0.8054
  152DOPC  H13Y18260   2.437   4.344  15.517  0.6728  0.4665  0.6942
  152DOPC  C31418261   2.452   4.573  15.499 -0.0536  0.8207  0.4273
  152DOPC  H14X18262   2.466   4.648  15.580 -1.9436 -0.1438  1.7489
  152DOPC  H14Y18263   2.527   4.587  15.419 -1.5990  1.4129 -0.9895
  152DOPC  C31518264   2.309   4.576  15.438  0.4768  0.0840  0.2900
  152DOPC  H15X18265   2.238   4.531  15.510 -0.8452  0.2569 -0.8750
  152DOPC  H15Y18266   2.315   4.510  15.348 -3.3367 -0.1450  0.0677
  152DOPC  C31618267   2.269   4.718  15.388  0.3640 -0.4315 -0.2880
  152DOPC  H16X18268   2.170   4.714  15.338 -0.4326 -0.9971  1.2641
  152DOPC  H16Y18269   2.253   4.784  15.476 -0.0165  0.4421 -0.9962
  152DOPC  C31718270   2.363   4.790  15.291 -0.2099  0.2843 -0.4258
  152DOPC  H17X18271   2.328   4.895  15.286 -2.2663 -0.3061  0.4892
  152DOPC  H17Y18272   2.464   4.797  15.336 -0.2828 -0.0717 -0.2079
  152DOPC  C31818273   2.364   4.733  15.155  0.8718  0.5830  0.5168
  152DOPC  H18X18274   2.259   4.738  15.118 -0.3713  0.6752  3.6608
  152DOPC  H18Y18275   2.428   4.795  15.089 -0.1851 -0.9052 -2.0552
  152DOPC  H18Z18276   2.402   4.629  15.150 -0.9072 -0.2662  2.6475
  153DOPC     N18277   3.873   0.534  16.761 -0.2232  0.0927 -0.0544
  153DOPC   C1218278   3.779   0.632  16.690  0.1330 -0.5135 -0.4642
  153DOPC  H12A18279   3.801   0.728  16.733 -1.0952 -0.6180  0.4538
  153DOPC  H12B18280   3.678   0.601  16.716  0.4952 -0.0136  1.6798
  153DOPC   C1318281   3.847   0.545  16.909 -0.2329 -0.3015 -0.2444
  153DOPC  H13A18282   3.741   0.532  16.926 -0.1987 -1.6500 -0.8683
  153DOPC  H13B18283   3.899   0.471  16.967 -1.7653 -0.9812  0.3324
  153DOPC  H13C18284   3.872   0.643  16.945 -3.8727  0.3839  0.8433
  153DOPC   C1418285   4.017   0.558  16.725 -0.1331  0.0084 -0.4097
  153DOPC  H14A18286   4.091   0.492  16.768 -0.0354  1.0262  1.0580
  153DOPC  H14B18287   4.031   0.544  16.619 -3.6838 -3.4882 -0.6506
  153DOPC  H14C18288   4.045   0.657  16.757 -1.8292  0.2719  0.3747
  153DOPC   C1518289   3.837   0.389  16.728  0.0274  1.1172  0.2511
  153DOPC  H15A18290   3.730   0.376  16.739  0.1279 -0.0477  0.0146
  153DOPC  H15B18291   3.895   0.311  16.775 -0.3090 -0.9718 -2.5127
  153DOPC  H15C18292   3.855   0.371  16.623  1.8593 -0.4698  0.7860
  153DOPC   C1118293   3.804   0.634  16.532 -0.3704 -0.5201  0.6492
  153DOPC  H11A18294   3.826   0.529  16.504  0.0740 -0.1590 -0.3911
  153DOPC  H11B18295   3.712   0.661  16.476  2.0728  3.2094 -2.0347
  153DOPC     P18296   3.892   0.877  16.509  0.1824 -0.0677  0.1282
  153DOPC   O1318297   4.008   0.941  16.463  0.1887  0.1908  0.6125
  153DOPC   O1418298   3.858   0.922  16.646 -0.2703 -0.3818 -0.1855
  153DOPC   O1218299   3.918   0.718  16.501  0.3019 -0.3516 -0.0618
  153DOPC   O1118300   3.766   0.910  16.415  0.6366 -0.0646 -0.0637
  153DOPC    C118301   3.777   0.991  16.296  0.3381 -0.4228 -0.7621
  153DOPC    HA18302   3.863   1.061  16.296 -0.3211  0.6705  3.8470
  153DOPC    HB18303   3.690   1.060  16.292  0.0089 -0.8167 -0.4931
  153DOPC    C218304   3.790   0.901  16.170  0.2169 -0.0531 -0.4566
  153DOPC    HS18305   3.888   0.850  16.160 -0.4844 -1.1743 -2.2700
  153DOPC   O2118306   3.766   0.970  16.048  0.1705 -0.0225 -0.1303
  153DOPC   C2118307   3.862   1.043  15.998  0.8023 -0.1987 -0.0637
  153DOPC   O2218308   3.962   1.081  16.067 -0.1977  1.0768  0.5375
  153DOPC   C2218309   3.830   1.082  15.864 -0.2663  0.6081 -0.2802
  153DOPC   H2R18310   3.801   1.189  15.864  3.1381  1.6202 -0.2127
  153DOPC   H2S18311   3.746   1.022  15.823 -0.3752  2.0771 -2.3999
  153DOPC    C318312   3.686   0.786  16.183  0.0260 -0.0650  0.1194
  153DOPC    HX18313   3.593   0.839  16.212  0.1094  1.1936 -1.7359
  153DOPC    HY18314   3.714   0.713  16.263  0.5084 -1.0812 -0.9363
  153DOPC   O3118315   3.671   0.708  16.064  0.3941 -0.6868 -0.2679
  153DOPC   C3118316   3.570   0.740  15.984 -0.4743 -0.9597 -0.3148
  153DOPC   O3218317   3.495   0.833  15.996  0.8827  0.0549 -0.3856
  153DOPC   C3218318   3.561   0.628  15.879 -0.1236  0.4580 -0.3776
  153DOPC   H2X18319   3.661   0.580  15.878  0.9710  2.4934  1.4753
  153DOPC   H2Y18320   3.487   0.553  15.915 -1.5938 -0.1594 -4.2897
  153DOPC   C2318321   3.940   1.064  15.764 -0.1471  0.0001 -0.1990
  153DOPC   H3R18322   4.026   1.134  15.777 -0.5503  1.0841 -2.7080
  153DOPC   H3S18323   3.895   1.100  15.668  2.6493 -0.4368 -1.7957
  153DOPC   C2418324   3.997   0.927  15.736  0.0533 -0.7429  0.3759
  153DOPC   H4R18325   3.909   0.860  15.736  0.5440 -1.3987  0.7792
  153DOPC   H4S18326   4.071   0.889  15.809 -0.9235 -0.9021  1.3050
  153DOPC   C2518327   4.071   0.923  15.595  0.2048  0.2433 -0.0801
  153DOPC   H5R18328   4.155   0.996  15.601 -1.0413  1.5890  2.5192
  153DOPC   H5S18329   4.006   0.973  15.520 -3.1743 -0.9133  1.8514
  153DOPC   C2618330   4.106   0.785  15.552  0.1781  0.3068 -0.2597
  153DOPC   H6R18331   4.012   0.734  15.522  0.6290 -1.7472  1.5147
  153DOPC   H6S18332   4.152   0.726  15.634  2.9204  3.0680  0.3962
  153DOPC   C2718333   4.211   0.774  15.437  0.5682 -0.6656  0.1817
  153DOPC   H7R18334   4.191   0.852  15.361 -0.3565 -0.5838  0.5011
  153DOPC   H7S18335   4.195   0.676  15.387  3.5452 -0.1686 -1.9852
  153DOPC   C2818336   4.358   0.793  15.489  0.3463  0.5533  0.2202
  153DOPC   H8R18337   4.384   0.717  15.566 -1.0904  0.0760  0.2602
  153DOPC   H8S18338   4.368   0.892  15.537 -0.4290  0.6559  0.1815
  153DOPC   C2918339   4.450   0.782  15.377  0.4440  0.6359 -0.7120
  153DOPC   H9R18340   4.433   0.851  15.293 -1.5946  0.7705 -0.2390
  153DOPC  C21018341   4.552   0.691  15.362  0.3121 -0.4386  0.4363
  153DOPC  H10R18342   4.607   0.688  15.267  1.5731  2.4656  0.9330
  153DOPC  C21118343   4.578   0.579  15.451  0.5407  0.2382 -0.0581
  153DOPC  H11R18344   4.541   0.487  15.399  0.2885  0.3475 -0.0694
  153DOPC  H11S18345   4.540   0.588  15.554  2.7380  2.0438  0.6755
  153DOPC  C21218346   4.726   0.547  15.458 -0.5944 -0.0869 -0.6694
  153DOPC  H12R18347   4.770   0.546  15.356  1.7361  0.2873  0.2660
  153DOPC  H12S18348   4.725   0.445  15.503  0.9795 -0.0731 -0.5406
  153DOPC  C21318349   4.798   0.652  15.535  0.2136  0.2190 -0.2229
  153DOPC  H13R18350   4.828   0.741  15.476 -0.8711  0.2745 -0.7117
  153DOPC  H13S18351   4.891   0.602  15.569 -1.2709  0.2043  4.6574
  153DOPC  C21418352   4.721   0.717  15.662 -0.6155 -0.2078 -0.1494
  153DOPC  H14R18353   4.671   0.625  15.698 -0.9680 -1.0713 -2.6192
  153DOPC  H14S18354   4.645   0.787  15.621  1.2104  2.3297  0.5915
  153DOPC  C21518355   4.802   0.786  15.771  0.3596 -0.2669 -0.0020
  153DOPC  H15R18356   4.866   0.713  15.826  0.4267  0.0516  0.3512
  153DOPC  H15S18357   4.724   0.832  15.835 -0.3305 -0.4390 -0.7137
  153DOPC  C21618358   4.905   0.894  15.712  0.8080  0.4386  0.3878
  153DOPC  H16R18359   4.845   0.957  15.642  0.1502  1.9726  2.2200
  153DOPC  H16S18360   4.981   0.839  15.653  1.7928  0.2156  1.8015
  153DOPC  C21718361   4.963   0.989  15.816 -0.0441 -0.3264 -0.3389
  153DOPC  H17R18362   5.025   0.941  15.894  0.6173  2.0176  0.6734
  153DOPC  H17S18363   4.877   1.019  15.880  1.0211  0.0899  0.9516
  153DOPC  C21818364   5.044   1.115  15.778  0.1241 -0.3671  0.0273
  153DOPC  H18R18365   5.056   1.177  15.869 -0.3484 -0.1210 -0.0750
  153DOPC  H18S18366   4.972   1.169  15.713 -0.1513 -2.4964 -1.5496
  153DOPC  H18T18367   5.140   1.095  15.726 -0.2292  1.3929 -1.4198
  153DOPC   C3318368   3.523   0.669  15.736 -0.1336  0.8197 -0.6433
  153DOPC   H3X18369   3.422   0.716  15.735  0.5346  2.3826  1.0976
  153DOPC   H3Y18370   3.518   0.575  15.676  1.1490 -0.8540  1.7189
  153DOPC   C3418371   3.623   0.768  15.685  0.0216  0.1232  0.5173
  153DOPC   H4X18372   3.729   0.744  15.709  0.2643  0.9281  0.2878
  153DOPC   H4Y18373   3.608   0.863  15.742  1.9831  1.9651 -1.7892
  153DOPC   C3518374   3.617   0.798  15.534  0.9375  0.0028  0.1234
  153DOPC   H5X18375   3.516   0.832  15.503  1.7433 -0.2095 -3.1142
  153DOPC   H5Y18376   3.642   0.707  15.474 -0.7902 -0.8158  0.5803
  153DOPC   C3618377   3.729   0.901  15.500 -0.1001  0.2523 -0.3968
  153DOPC   H6X18378   3.716   0.985  15.572  2.4123  1.5584 -1.3569
  153DOPC   H6Y18379   3.828   0.854  15.516 -0.1676 -0.1062 -0.9896
  153DOPC   C3718380   3.720   0.953  15.362  0.3204 -0.2388  0.4270
  153DOPC   H7X18381   3.616   0.981  15.334  0.4780 -1.0831 -1.1366
  153DOPC   H7Y18382   3.788   1.040  15.348 -1.0291  1.1128  1.8653
  153DOPC   C3818383   3.736   0.837  15.265  0.6425 -0.1584  0.1691
  153DOPC   H8X18384   3.700   0.854  15.161  1.1129  0.2267  0.0718
  153DOPC   H8Y18385   3.668   0.754  15.294 -1.0346  0.1156 -2.6244
  153DOPC   C3918386   3.875   0.785  15.256 -0.8611 -0.4180 -0.2794
  153DOPC   H9X18387   3.951   0.861  15.281 -1.0048 -0.3945  0.0795
  153DOPC  C31018388   3.911   0.671  15.196 -0.2604  0.3532 -0.5006
  153DOPC  H10X18389   4.019   0.653  15.185  0.4292  1.3748  3.2263
  153DOPC  C31118390   3.818   0.565  15.150  0.3276  0.2894 -0.1210
  153DOPC  H11X18391   3.715   0.598  15.172 -0.1220  0.5548 -2.4052
  153DOPC  H11Y18392   3.840   0.472  15.206 -2.7416 -1.8936 -2.2480
  153DOPC  C31218393   3.836   0.542  15.002  0.2578  0.0281  0.2136
  153DOPC  H12X18394   3.944   0.540  14.975  0.6024  2.9652  1.0694
  153DOPC  H12Y18395   3.799   0.636  14.955 -0.0653  0.7669  1.8681
  153DOPC  C31318396   3.755   0.422  14.942  0.4833 -0.0819  0.3221
  153DOPC  H13X18397   3.779   0.338  15.010 -2.9102  0.7607  2.7613
  153DOPC  H13Y18398   3.648   0.444  14.957  0.7701  1.2476  0.6123
  153DOPC  C31418399   3.798   0.399  14.797  0.1721  0.1617  0.7084
  153DOPC  H14X18400   3.825   0.497  14.754 -0.0052  0.4411  1.2263
  153DOPC  H14Y18401   3.883   0.327  14.803 -0.3519 -0.5132  0.2868
  153DOPC  C31518402   3.681   0.336  14.721 -0.2454 -0.4360  0.4845
  153DOPC  H15X18403   3.584   0.388  14.731  0.6143  2.1494 -3.0320
  153DOPC  H15Y18404   3.671   0.230  14.753 -2.0328 -0.2442  0.6247
  153DOPC  C31618405   3.715   0.336  14.573  0.1137 -0.1369  0.2257
  153DOPC  H16X18406   3.629   0.302  14.512 -0.9722  0.2888  1.4815
  153DOPC  H16Y18407   3.727   0.440  14.537 -0.6050 -0.1459 -0.0445
  153DOPC  C31718408   3.836   0.252  14.531 -0.1129 -0.4558  0.0755
  153DOPC  H17X18409   3.934   0.288  14.570  0.2311 -0.0402 -1.1386
  153DOPC  H17Y18410   3.822   0.147  14.566  0.2309 -0.1661  1.1238
  153DOPC  C31818411   3.860   0.246  14.380  0.0128  0.4276  0.4851
  153DOPC  H18X18412   3.768   0.230  14.320  0.5486  1.8489 -0.7610
  153DOPC  H18Y18413   3.888   0.347  14.344 -0.1395  0.3260  0.0717
  153DOPC  H18Z18414   3.938   0.172  14.353  0.3289  0.8350  0.2726
  154DOPC     N18415   5.717   4.577  16.711  0.4733 -0.2679  0.0054
  154DOPC   C1218416   5.666   4.586  16.566 -0.3074 -0.3815 -0.0196
  154DOPC  H12A18417   5.559   4.572  16.569 -0.1510 -1.6607 -0.0619
  154DOPC  H12B18418   5.706   4.502  16.512 -2.7431 -2.8751  1.7443
  154DOPC   C1318419   5.862   4.604  16.708  0.5801 -0.3618 -0.5806
  154DOPC  H13A18420   5.886   4.691  16.649  1.3759 -0.9116 -1.0924
  154DOPC  H13B18421   5.890   4.630  16.810  0.7509  0.7272 -0.8970
  154DOPC  H13C18422   5.923   4.522  16.674  0.7438 -0.1783 -0.7288
  154DOPC   C1418423   5.698   4.441  16.772 -0.0532  0.1510  0.3815
  154DOPC  H14A18424   5.749   4.437  16.867 -1.6909  0.3552  1.3027
  154DOPC  H14B18425   5.595   4.420  16.797  0.0542  0.6136  1.2429
  154DOPC  H14C18426   5.748   4.364  16.715  2.1170  1.4973  0.3412
  154DOPC   C1518427   5.643   4.681  16.796 -0.6392 -0.4975 -0.5533
  154DOPC  H15A18428   5.536   4.662  16.793 -1.0236  1.3905  0.3695
  154DOPC  H15B18429   5.653   4.781  16.756  2.1628 -0.3666  0.3317
  154DOPC  H15C18430   5.677   4.677  16.898 -0.4144 -1.2851 -0.6501
  154DOPC   C1118431   5.676   4.720  16.494  0.1342 -0.7208  0.5808
  154DOPC  H11A18432   5.780   4.727  16.457 -0.8051 -0.6126 -2.2957
  154DOPC  H11B18433   5.608   4.706  16.407  3.8615 -3.3176 -2.1882
  154DOPC     P18434   5.539   4.954  16.528  0.4872 -0.1199  0.1869
  154DOPC   O1318435   5.595   5.057  16.437  0.2882  0.5157 -0.1599
  154DOPC   O1418436   5.465   5.002  16.648 -0.0618  0.0895  0.6605
  154DOPC   O1218437   5.644   4.845  16.568  0.1974  0.6797 -0.7065
  154DOPC   O1118438   5.437   4.866  16.447 -0.7598  0.0675  0.0675
  154DOPC    C118439   5.314   4.910  16.401  0.4101  0.0720 -0.0411
  154DOPC    HA18440   5.307   5.017  16.372  1.0268  0.4293  1.0646
  154DOPC    HB18441   5.238   4.894  16.481 -0.6964 -1.2549 -1.3084
  154DOPC    C218442   5.255   4.824  16.283  0.5904  0.0818 -0.8561
  154DOPC    HS18443   5.219   4.727  16.325 -0.8973  0.0088 -2.2101
  154DOPC   O2118444   5.337   4.824  16.159 -0.2597 -0.1953 -0.1086
  154DOPC   C2118445   5.411   4.714  16.153  0.3346 -0.6766  0.0234
  154DOPC   O2218446   5.403   4.618  16.227 -0.2132  0.5943  0.1498
  154DOPC   C2218447   5.509   4.721  16.039 -0.1192 -0.0231  0.1864
  154DOPC   H2R18448   5.593   4.653  16.066  0.9435  1.2233  0.1176
  154DOPC   H2S18449   5.545   4.826  16.041  1.0187 -0.3996  1.4953
  154DOPC    C318450   5.116   4.876  16.238  0.2854 -0.5360 -0.1542
  154DOPC    HX18451   5.133   4.979  16.198 -3.6643  1.2241  2.0495
  154DOPC    HY18452   5.048   4.891  16.324  1.0669  2.0084  0.1252
  154DOPC   O3118453   5.064   4.796  16.130 -0.1663  0.1621 -0.3859
  154DOPC   C3118454   4.998   4.845  16.022 -0.5325 -0.6157  0.8314
  154DOPC   O3218455   4.976   4.965  16.006 -0.0181  0.4271  0.6554
  154DOPC   C3218456   4.966   4.737  15.915  0.5486 -0.8878  0.7034
  154DOPC   H2X18457   5.023   4.650  15.954  3.7379  0.7182 -0.0362
  154DOPC   H2Y18458   4.855   4.726  15.920  0.3093 -0.1310 -1.5453
  154DOPC   C2318459   5.452   4.688  15.899 -0.2049 -0.4304 -0.1447
  154DOPC   H3R18460   5.377   4.764  15.873  1.0620  0.3897 -1.5655
  154DOPC   H3S18461   5.397   4.592  15.904 -1.0260 -0.2740 -3.5363
  154DOPC   C2418462   5.554   4.682  15.780  0.0201 -0.2185 -0.0695
  154DOPC   H4R18463   5.607   4.587  15.804 -0.9309 -0.3321  1.8178
  154DOPC   H4S18464   5.621   4.769  15.786  0.9491 -0.8306 -1.2161
  154DOPC   C2518465   5.478   4.679  15.643 -0.3055 -0.0554  0.5979
  154DOPC   H5R18466   5.428   4.776  15.624  0.6382  0.2425 -0.4526
  154DOPC   H5S18467   5.399   4.601  15.638 -0.4844  0.1473  0.2725
  154DOPC   C2618468   5.584   4.657  15.522  0.1852 -0.1332  0.6340
  154DOPC   H6R18469   5.641   4.562  15.522 -0.3137 -0.4885 -1.7181
  154DOPC   H6S18470   5.659   4.738  15.528 -0.3288  0.2903  1.7174
  154DOPC   C2718471   5.514   4.700  15.389 -0.5010 -0.2331  0.5893
  154DOPC   H7R18472   5.462   4.796  15.403  0.1497  0.3668 -0.8350
  154DOPC   H7S18473   5.440   4.619  15.369 -0.3403 -0.3655  0.5216
  154DOPC   C2818474   5.617   4.701  15.266 -0.2259 -0.1141 -0.1826
  154DOPC   H8R18475   5.712   4.755  15.288  0.4506  0.6367 -4.2152
  154DOPC   H8S18476   5.579   4.764  15.184  2.9996  1.4344 -0.6632
  154DOPC   C2918477   5.659   4.562  15.219 -0.4768  0.4810  0.3863
  154DOPC   H9R18478   5.716   4.506  15.295 -2.5728 -1.1476  0.8518
  154DOPC  C21018479   5.623   4.494  15.104 -0.4302 -0.7229 -0.0417
  154DOPC  H10R18480   5.668   4.396  15.085  0.8378 -0.2671  0.5003
  154DOPC  C21118481   5.526   4.550  15.003 -0.1870  0.2897  0.3832
  154DOPC  H11R18482   5.504   4.655  15.030 -2.9358 -0.4917  1.5610
  154DOPC  H11S18483   5.428   4.497  14.999  0.8124 -1.6417 -2.4010
  154DOPC  C21218484   5.575   4.536  14.860  0.3490 -0.4275  0.1074
  154DOPC  H12R18485   5.485   4.560  14.799 -0.6120  1.3981  2.0803
  154DOPC  H12S18486   5.600   4.430  14.840  1.2084 -0.3198  0.5614
  154DOPC  C21318487   5.693   4.632  14.824  0.1773  0.1955  0.0172
  154DOPC  H13R18488   5.785   4.591  14.873  0.0085 -0.9013 -0.5629
  154DOPC  H13S18489   5.671   4.733  14.866 -0.5778  0.7436 -1.6089
  154DOPC  C21418490   5.735   4.641  14.677  0.6242 -0.2610 -0.3993
  154DOPC  H14R18491   5.793   4.734  14.656 -0.2489  0.1329 -1.1403
  154DOPC  H14S18492   5.639   4.651  14.623  1.1157 -1.9223 -1.6795
  154DOPC  C21518493   5.799   4.521  14.618 -0.6945  0.0371  0.3081
  154DOPC  H15R18494   5.723   4.441  14.606  1.6543 -2.0706 -1.8310
  154DOPC  H15S18495   5.887   4.484  14.675 -0.0109 -1.9825 -1.8944
  154DOPC  C21618496   5.861   4.549  14.474 -0.1436  0.6223  0.4165
  154DOPC  H16R18497   5.934   4.633  14.469  2.6684 -1.7128 -0.6673
  154DOPC  H16S18498   5.774   4.576  14.409  0.9936  1.1060 -0.9706
  154DOPC  C21718499   5.929   4.427  14.408  0.0998 -0.0113  0.4914
  154DOPC  H17R18500   5.858   4.342  14.409 -1.3931  1.1850 -0.1798
  154DOPC  H17S18501   6.026   4.406  14.459  0.5005  3.9711  1.6856
  154DOPC  C21818502   5.973   4.450  14.256  0.5050  0.0143  0.6931
  154DOPC  H18R18503   5.998   4.354  14.205  1.2605 -0.0161  1.1135
  154DOPC  H18S18504   6.061   4.517  14.248  0.2869  0.1867 -0.4478
  154DOPC  H18T18505   5.893   4.488  14.189 -0.6825 -0.1508  1.9821
  154DOPC   C3318506   5.014   4.776  15.777  0.7419  0.3495  0.0603
  154DOPC   H3X18507   5.124   4.792  15.789  0.4109  2.0766  1.1898
  154DOPC   H3Y18508   4.961   4.865  15.739 -1.0346 -0.0973  1.3771
  154DOPC   C3418509   5.009   4.661  15.676  0.3930  0.6256 -0.5911
  154DOPC   H4X18510   4.900   4.653  15.655  0.2068 -0.2005  0.5980
  154DOPC   H4Y18511   5.045   4.563  15.715 -1.1511  0.1768 -0.1989
  154DOPC   C3518512   5.093   4.692  15.555 -0.4940  0.1643  0.2845
  154DOPC   H5X18513   5.198   4.708  15.587  0.3742  0.0868 -2.2613
  154DOPC   H5Y18514   5.069   4.790  15.507  1.1797  0.5908  0.2630
  154DOPC   C3618515   5.070   4.583  15.446 -0.8808  0.0892 -0.1812
  154DOPC   H6X18516   5.074   4.482  15.491 -0.0922  0.2102  0.0329
  154DOPC   H6Y18517   4.963   4.599  15.419 -0.5625  2.2096 -0.3416
  154DOPC   C3718518   5.161   4.606  15.325 -0.2752 -0.0062 -0.0088
  154DOPC   H7X18519   5.232   4.691  15.333 -0.8919  0.8052 -2.2968
  154DOPC   H7Y18520   5.224   4.516  15.314  0.4533  0.3504  1.1163
  154DOPC   C3818521   5.084   4.639  15.194 -0.2164  0.6082 -0.7033
  154DOPC   H8X18522   5.014   4.722  15.215 -0.4185  0.1885  0.3469
  154DOPC   H8Y18523   5.019   4.552  15.168  0.7491 -1.0310  1.8735
  154DOPC   C3918524   5.181   4.671  15.080 -0.1553  0.4167 -0.2895
  154DOPC   H9X18525   5.275   4.721  15.110 -0.0942  1.2007 -1.7280
  154DOPC  C31018526   5.156   4.667  14.950 -0.0567 -0.4721  0.1397
  154DOPC  H10X18527   5.242   4.696  14.888 -0.0081 -0.9970 -0.0475
  154DOPC  C31118528   5.034   4.617  14.880  0.5737 -0.3882  0.0566
  154DOPC  H11X18529   4.986   4.702  14.826  1.0297  1.1605  1.9817
  154DOPC  H11Y18530   4.965   4.567  14.951  1.7319 -1.3621  0.5154
  154DOPC  C31218531   5.077   4.509  14.770  0.2678 -0.2332  0.0148
  154DOPC  H12X18532   5.167   4.552  14.721  0.1789  0.4798  0.4692
  154DOPC  H12Y18533   5.006   4.492  14.685  1.5717  0.4347 -1.2578
  154DOPC  C31318534   5.128   4.379  14.832  0.2340  0.9010 -0.4451
  154DOPC  H13X18535   5.209   4.401  14.905 -1.6660  2.3841  1.3409
  154DOPC  H13Y18536   5.046   4.333  14.892 -0.2160  0.7714 -1.1457
  154DOPC  C31418537   5.187   4.272  14.737 -0.0452  0.0120  0.1676
  154DOPC  H14X18538   5.214   4.175  14.785  0.2006 -0.5662 -1.1004
  154DOPC  H14Y18539   5.102   4.253  14.668  0.2650 -0.8942  0.0101
  154DOPC  C31518540   5.313   4.321  14.666  0.6684 -0.5523  0.5066
  154DOPC  H15X18541   5.393   4.357  14.735  1.4993  1.0244 -1.1913
  154DOPC  H15Y18542   5.303   4.403  14.592 -3.3905 -1.1604  0.1934
  154DOPC  C31618543   5.372   4.217  14.577  0.8921 -0.4796  0.0592
  154DOPC  H16X18544   5.359   4.115  14.621 -3.8560 -0.9395 -1.7443
  154DOPC  H16Y18545   5.320   4.215  14.478  0.6306  2.2867  0.0691
  154DOPC  C31718546   5.521   4.230  14.546 -0.4071 -1.2289  0.5403
  154DOPC  H17X18547   5.534   4.326  14.494  0.2075 -0.8475  1.3819
  154DOPC  H17Y18548   5.579   4.230  14.641 -1.8138  1.0160  1.5015
  154DOPC  C31818549   5.557   4.117  14.453 -0.3870  0.6906  0.1396
  154DOPC  H18X18550   5.486   4.136  14.370  1.5271  1.9848 -1.2803
  154DOPC  H18Y18551   5.657   4.131  14.408 -0.3228  2.0689  0.6610
  154DOPC  H18Z18552   5.532   4.019  14.498  0.8596  0.1279 -0.3737
  155DOPC     N18553   0.293   3.641  16.870  0.0355  0.5342 -0.5867
  155DOPC   C1218554   0.272   3.548  16.752  0.1024  0.5813  0.9769
  155DOPC  H12A18555   0.170   3.547  16.718  0.0570 -1.1324  1.0771
  155DOPC  H12B18556   0.285   3.448  16.792 -0.0263 -0.1683 -0.7766
  155DOPC   C1318557   0.174   3.634  16.958 -0.4159  0.7953 -0.4092
  155DOPC  H13A18558   0.077   3.659  16.919 -1.8055 -1.7732  1.1471
  155DOPC  H13B18559   0.154   3.533  16.993 -0.6716  1.0633  0.2266
  155DOPC  H13C18560   0.188   3.698  17.044  1.7292 -1.5048  1.1374
  155DOPC   C1418561   0.305   3.786  16.823 -0.3781  0.0261 -0.4159
  155DOPC  H14A18562   0.394   3.782  16.763 -0.0348 -3.0826  0.1559
  155DOPC  H14B18563   0.231   3.824  16.754  0.6821 -1.0432 -2.2038
  155DOPC  H14C18564   0.328   3.847  16.910  1.1869 -0.6314 -0.3404
  155DOPC   C1518565   0.412   3.607  16.945  0.1087  0.4034  0.1108
  155DOPC  H15A18566   0.427   3.681  17.022 -1.0464  2.1418 -1.2565
  155DOPC  H15B18567   0.499   3.598  16.881 -1.1503 -0.2815 -1.5936
  155DOPC  H15C18568   0.401   3.512  16.996  0.7239 -0.5970 -1.5242
  155DOPC   C1118569   0.369   3.564  16.636 -0.1442  0.8192 -0.1291
  155DOPC  H11A18570   0.338   3.494  16.556 -0.8752  1.9165 -0.8333
  155DOPC  H11B18571   0.341   3.661  16.590  0.8543  0.4864 -1.5215
  155DOPC     P18572   0.624   3.644  16.604 -0.2338 -0.1547  0.4087
  155DOPC   O1318573   0.762   3.604  16.639  0.2852  0.6432 -0.0339
  155DOPC   O1418574   0.580   3.781  16.630  0.7853  0.1306  0.2503
  155DOPC   O1218575   0.513   3.554  16.674  0.0910  0.0909 -0.2173
  155DOPC   O1118576   0.594   3.618  16.448  0.0354  0.3833  0.0458
  155DOPC    C118577   0.598   3.479  16.413 -0.2593  0.1089 -0.2534
  155DOPC    HA18578   0.503   3.423  16.429 -0.0537 -0.1561  0.0554
  155DOPC    HB18579   0.678   3.422  16.465  1.7874  2.1237 -1.0132
  155DOPC    C218580   0.642   3.468  16.265  0.4211  0.2642  0.2444
  155DOPC    HS18581   0.663   3.360  16.251  2.4080  0.4113  1.6237
  155DOPC   O2118582   0.756   3.545  16.252  0.5258 -0.6699 -0.4059
  155DOPC   C2118583   0.843   3.527  16.159 -0.3552 -0.7595 -0.1899
  155DOPC   O2218584   0.832   3.448  16.069 -0.2551  0.2259  0.6647
  155DOPC   C2218585   0.962   3.627  16.161 -1.3126  0.9923  0.0202
  155DOPC   H2R18586   1.053   3.564  16.169 -2.1165  0.0117  2.7655
  155DOPC   H2S18587   0.957   3.690  16.252 -0.6259  1.6354 -0.3779
  155DOPC    C318588   0.527   3.519  16.173  0.4176  0.4683 -0.1718
  155DOPC    HX18589   0.493   3.615  16.217  1.5459  0.3137  1.1355
  155DOPC    HY18590   0.438   3.456  16.195 -0.3507  1.6531  0.2145
  155DOPC   O3118591   0.552   3.527  16.027 -0.6555 -0.0082 -0.1034
  155DOPC   C3118592   0.604   3.638  15.977 -0.0336 -0.0630  0.0610
  155DOPC   O3218593   0.628   3.737  16.047 -0.2465  0.1953 -0.2180
  155DOPC   C3218594   0.636   3.630  15.831 -0.1669 -0.1354  0.5072
  155DOPC   H2X18595   0.740   3.590  15.825 -0.1545  0.0520 -0.6355
  155DOPC   H2Y18596   0.572   3.546  15.799  0.5856 -0.1668 -0.9939
  155DOPC   C2318597   0.954   3.712  16.040  0.1129 -0.6184  0.0342
  155DOPC   H3R18598   0.858   3.768  16.032  1.2137  1.5912  1.4911
  155DOPC   H3S18599   0.953   3.650  15.947  0.6184 -0.9212  0.2285
  155DOPC   C2418600   1.070   3.811  16.029 -0.1072 -0.0114 -0.0912
  155DOPC   H4R18601   1.165   3.754  16.038 -1.0146 -1.8616 -1.6098
  155DOPC   H4S18602   1.059   3.873  16.121 -0.2261 -0.2621  0.0637
  155DOPC   C2518603   1.086   3.901  15.902  0.2785 -0.4788 -0.1203
  155DOPC   H5R18604   1.178   3.962  15.908 -0.4331  0.6930 -0.8695
  155DOPC   H5S18605   0.996   3.966  15.899  0.6204 -0.0207 -0.4614
  155DOPC   C2618606   1.095   3.821  15.769 -0.3789  0.6142 -0.3699
  155DOPC   H6R18607   1.003   3.759  15.767 -0.8396  1.1439  1.9140
  155DOPC   H6S18608   1.188   3.761  15.778 -1.3891 -0.8319  1.0989
  155DOPC   C2718609   1.092   3.902  15.639  0.2496  1.1263 -0.7547
  155DOPC   H7R18610   1.005   3.970  15.653  0.1673  0.9637 -0.4691
  155DOPC   H7S18611   1.065   3.841  15.550  1.0585  0.7909 -0.7821
  155DOPC   C2818612   1.219   3.982  15.609  0.0050 -0.4817  0.2677
  155DOPC   H8R18613   1.247   4.031  15.705 -1.2236  0.8969 -0.0618
  155DOPC   H8S18614   1.184   4.061  15.539 -1.0156  0.3048  1.6195
  155DOPC   C2918615   1.332   3.905  15.552  0.7525  0.5871 -0.4821
  155DOPC   H9R18616   1.357   3.831  15.629  0.9631  2.0055  0.8402
  155DOPC  C21018617   1.379   3.914  15.432 -0.4721  0.2849 -0.5202
  155DOPC  H10R18618   1.463   3.851  15.401 -1.2741  0.4764 -3.3574
  155DOPC  C21118619   1.331   4.019  15.332 -0.1839  0.0445  0.0059
  155DOPC  H11R18620   1.416   4.082  15.300  1.1647 -1.2039  1.0010
  155DOPC  H11S18621   1.270   4.097  15.382  0.8154  0.2521  0.9191
  155DOPC  C21218622   1.259   3.949  15.216  0.3086  0.0075 -0.1887
  155DOPC  H12R18623   1.161   3.902  15.239  0.8184 -1.0105 -0.0414
  155DOPC  H12S18624   1.327   3.863  15.194 -0.0480 -0.1970 -0.4855
  155DOPC  C21318625   1.250   4.029  15.085  0.0976  0.0860  0.2592
  155DOPC  H13R18626   1.224   4.136  15.100  0.1749  0.1155  0.1736
  155DOPC  H13S18627   1.169   3.981  15.026  0.4735  1.2616 -1.2632
  155DOPC  C21418628   1.372   4.034  15.000 -0.6101 -0.1530 -0.6916
  155DOPC  H14R18629   1.422   3.936  14.988  2.2505  1.1031  0.0462
  155DOPC  H14S18630   1.451   4.096  15.048 -0.8937 -0.8602  0.7308
  155DOPC  C21518631   1.337   4.077  14.857 -0.3382 -0.3345 -0.3779
  155DOPC  H15R18632   1.301   4.181  14.871  0.9388 -0.0870  1.3158
  155DOPC  H15S18633   1.244   4.025  14.824 -1.2018  0.9222 -0.0227
  155DOPC  C21618634   1.451   4.089  14.752 -0.2234  0.9240 -0.1855
  155DOPC  H16R18635   1.402   4.121  14.657 -0.4316  0.7640 -0.1325
  155DOPC  H16S18636   1.485   3.986  14.726  1.0831  1.5782 -1.2325
  155DOPC  C21718637   1.571   4.176  14.802 -0.6346  0.0247  0.5659
  155DOPC  H17R18638   1.614   4.133  14.895  0.7144  1.0154  0.4286
  155DOPC  H17S18639   1.535   4.277  14.830 -0.4344 -0.4305  2.6303
  155DOPC  C21818640   1.688   4.181  14.703 -0.2174 -0.5439  0.0029
  155DOPC  H18R18641   1.645   4.210  14.604 -1.7729  0.2397  0.8808
  155DOPC  H18S18642   1.757   4.093  14.703  1.9157  0.9679  2.6895
  155DOPC  H18T18643   1.742   4.275  14.726  2.4153 -1.8498 -0.4038
  155DOPC   C3318644   0.628   3.751  15.727 -0.4504  0.0721 -0.0843
  155DOPC   H3X18645   0.665   3.846  15.773  0.4319  0.1819 -0.9995
  155DOPC   H3Y18646   0.523   3.769  15.695 -0.6876  0.5580  0.9275
  155DOPC   C3418647   0.713   3.734  15.594  0.4099  0.4817  0.1932
  155DOPC   H4X18648   0.700   3.628  15.563  1.4473  0.6640 -0.9407
  155DOPC   H4Y18649   0.815   3.767  15.621  1.4845 -0.2996 -2.5619
  155DOPC   C3518650   0.648   3.811  15.477  0.1667 -0.2634 -0.1161
  155DOPC   H5X18651   0.540   3.792  15.463 -0.0728  1.3760 -0.7116
  155DOPC   H5Y18652   0.693   3.761  15.388  0.5050  0.8549 -0.5915
  155DOPC   C3618653   0.673   3.958  15.481 -0.3733 -0.4204  0.6645
  155DOPC   H6X18654   0.622   4.004  15.569 -1.5374 -1.3905  0.5289
  155DOPC   H6Y18655   0.783   3.973  15.480 -0.1874 -1.4949 -1.9121
  155DOPC   C3718656   0.619   4.026  15.359  0.3220  0.2455 -0.4376
  155DOPC   H7X18657   0.653   3.974  15.266 -0.0744  1.9735 -1.5956
  155DOPC   H7Y18658   0.509   4.020  15.350  0.1794  1.8020 -0.0778
  155DOPC   C3818659   0.655   4.172  15.358  0.3606 -0.2960 -0.1784
  155DOPC   H8X18660   0.765   4.159  15.352  0.0652 -3.4323 -0.5814
  155DOPC   H8Y18661   0.626   4.211  15.459  4.4261  1.4521  0.5022
  155DOPC   C3918662   0.606   4.257  15.242  0.1121  0.5640 -0.4166
  155DOPC   H9X18663   0.662   4.240  15.149 -0.8931 -0.6698 -0.8196
  155DOPC  C31018664   0.512   4.350  15.247 -0.0220 -0.0265 -0.4683
  155DOPC  H10X18665   0.509   4.408  15.154 -2.5780  0.0131 -0.4419
  155DOPC  C31118666   0.433   4.401  15.366 -0.2347 -0.1741  0.0870
  155DOPC  H11X18667   0.490   4.368  15.455  0.1728 -0.6554 -0.3395
  155DOPC  H11Y18668   0.327   4.369  15.356 -0.3901  0.7024 -1.4785
  155DOPC  C31218669   0.424   4.561  15.377 -0.2035 -0.1550  0.3826
  155DOPC  H12X18670   0.527   4.602  15.373 -0.7761  1.2920  0.0680
  155DOPC  H12Y18671   0.395   4.584  15.482  0.2849 -1.4567  0.8323
  155DOPC  C31318672   0.337   4.630  15.271  0.5479 -0.3807 -0.3036
  155DOPC  H13X18673   0.370   4.602  15.169 -0.5627 -0.2499 -0.7040
  155DOPC  H13Y18674   0.240   4.578  15.288  0.7373 -0.6685 -0.0671
  155DOPC  C31418675   0.339   4.778  15.296 -0.0205  0.0988  0.4866
  155DOPC  H14X18676   0.304   4.804  15.398 -4.2836  1.1050 -0.9914
  155DOPC  H14Y18677   0.443   4.814  15.287 -0.0364  0.0040 -0.2010
  155DOPC  C31518678   0.259   4.848  15.190 -0.0436 -0.2451  0.7925
  155DOPC  H15X18679   0.171   4.788  15.161 -0.5181  0.2408  1.2114
  155DOPC  H15Y18680   0.331   4.836  15.106 -1.4420 -0.3573 -0.4285
  155DOPC  C31618681   0.225   4.993  15.209  0.5251 -0.5998 -0.1442
  155DOPC  H16X18682   0.166   5.007  15.302 -1.6303 -1.4158 -1.3059
  155DOPC  H16Y18683   0.315   5.057  15.218 -1.2141  1.7964  2.0211
  155DOPC  C31718684   0.139   5.060  15.095 -0.5893  0.4200 -0.6401
  155DOPC  H17X18685   0.189   5.040  14.998 -0.1434 -2.4708  0.0968
  155DOPC  H17Y18686   0.037   5.016  15.088 -0.6687  0.1167  1.5757
  155DOPC  C31818687   0.103   5.211  15.117 -0.6047  0.8211  0.0661
  155DOPC  H18X18688   0.030   5.240  15.038  0.7846  0.1455 -1.5283
  155DOPC  H18Y18689   0.057   5.226  15.217  0.0354 -0.1060  0.5106
  155DOPC  H18Z18690   0.195   5.274  15.109 -0.8379  1.1414 -0.1684
  156DOPC     N18691   5.575   0.494  16.572 -0.4519 -0.0535 -0.4230
  156DOPC   C1218692   5.573   0.573  16.445  0.0433  0.6220 -0.2690
  156DOPC  H12A18693   5.674   0.605  16.425  0.3967 -0.2461  0.1106
  156DOPC  H12B18694   5.510   0.659  16.460 -3.0783 -1.6141  0.5464
  156DOPC   C1318695   5.660   0.367  16.554 -0.2568 -0.1504  0.2624
  156DOPC  H13A18696   5.632   0.310  16.467  0.4637  1.0411 -0.8023
  156DOPC  H13B18697   5.762   0.394  16.530 -0.3330 -0.8979 -1.0123
  156DOPC  H13C18698   5.645   0.297  16.634 -1.7362 -0.1953 -0.0361
  156DOPC   C1418699   5.435   0.455  16.601 -0.2026  0.2172 -0.2084
  156DOPC  H14A18700   5.369   0.537  16.624 -0.8122 -0.6973  1.4627
  156DOPC  H14B18701   5.383   0.398  16.525 -0.6298 -1.1794  1.0874
  156DOPC  H14C18702   5.429   0.398  16.692 -0.7733  1.6313  0.6730
  156DOPC   C1518703   5.631   0.576  16.686  0.3696 -0.0858  0.1468
  156DOPC  H15A18704   5.630   0.522  16.779 -0.4584  1.8210  1.3050
  156DOPC  H15B18705   5.577   0.668  16.703  1.9158  1.5451 -3.0327
  156DOPC  H15C18706   5.728   0.613  16.658  0.1591 -0.7173 -1.5205
  156DOPC   C1118707   5.524   0.500  16.310  0.0154 -0.3294  0.1225
  156DOPC  H11A18708   5.422   0.465  16.333  0.1541 -0.8992 -0.1108
  156DOPC  H11B18709   5.524   0.570  16.223 -0.9459 -0.7386 -0.2152
  156DOPC     P18710   5.726   0.384  16.193  0.1443  0.1375  0.3349
  156DOPC   O1318711   5.810   0.266  16.219  0.4334 -0.4166  0.1045
  156DOPC   O1418712   5.792   0.515  16.205 -0.3619  0.7730  0.0955
  156DOPC   O1218713   5.595   0.377  16.276  0.4879  0.0358  0.5742
  156DOPC   O1118714   5.677   0.385  16.040  0.2124 -0.3378 -0.1124
  156DOPC    C118715   5.550   0.345  16.000  0.0202 -0.6847 -0.4967
  156DOPC    HA18716   5.476   0.336  16.082  0.9442 -2.4988  0.1877
  156DOPC    HB18717   5.553   0.238  15.970 -2.2315 -1.4937  1.8421
  156DOPC    C218718   5.506   0.420  15.879  0.3074  1.0546  0.4275
  156DOPC    HS18719   5.436   0.359  15.818  0.0324  0.5514  1.2195
  156DOPC   O2118720   5.618   0.469  15.801 -0.9669  0.3633 -0.2296
  156DOPC   C2118721   5.677   0.366  15.730 -0.7681  0.2952 -0.3937
  156DOPC   O2218722   5.635   0.249  15.731 -0.3936 -0.3947  0.1586
  156DOPC   C2218723   5.811   0.406  15.662  0.2757 -0.1902 -0.2936
  156DOPC   H2R18724   5.851   0.317  15.608 -0.4933  0.0235 -1.2453
  156DOPC   H2S18725   5.871   0.438  15.749 -0.5319 -0.6251  0.4414
  156DOPC    C318726   5.432   0.549  15.923 -0.2204 -0.0236  0.0785
  156DOPC    HX18727   5.506   0.613  15.977 -0.2985 -1.0421  1.4536
  156DOPC    HY18728   5.356   0.518  15.999 -0.5880 -0.2694 -0.3837
  156DOPC   O3118729   5.371   0.613  15.809 -0.0358 -0.1276 -0.0364
  156DOPC   C3118730   5.334   0.733  15.830 -0.8753  0.4964 -0.5526
  156DOPC   O3218731   5.349   0.793  15.939  0.1115  0.3064  0.4374
  156DOPC   C3218732   5.262   0.781  15.700  0.1230  0.0308  0.1875
  156DOPC   H2X18733   5.154   0.757  15.703 -0.1790  1.2447 -0.4795
  156DOPC   H2Y18734   5.275   0.891  15.705 -2.1060  0.3045  0.6340
  156DOPC   C2318735   5.780   0.525  15.562  0.0801 -0.2219 -0.7137
  156DOPC   H3R18736   5.876   0.557  15.515  1.0425  0.5806  1.6748
  156DOPC   H3S18737   5.742   0.600  15.635 -0.2938 -2.4779  1.5468
  156DOPC   C2418738   5.664   0.499  15.457  0.7457  0.6225  0.1253
  156DOPC   H4R18739   5.567   0.536  15.499  0.8955 -0.2375  1.2780
  156DOPC   H4S18740   5.666   0.394  15.422 -1.6693  0.8795 -0.9856
  156DOPC   C2518741   5.688   0.600  15.341  0.1357 -0.3358  0.1319
  156DOPC   H5R18742   5.793   0.635  15.335  0.1572 -0.3254  0.5531
  156DOPC   H5S18743   5.620   0.685  15.361  0.4209 -0.4366  1.7255
  156DOPC   C2618744   5.653   0.545  15.205  0.6452 -0.5963 -0.2569
  156DOPC   H6R18745   5.649   0.626  15.129 -1.2862  0.8573  1.2988
  156DOPC   H6S18746   5.554   0.494  15.205  1.0903 -1.4903  1.0534
  156DOPC   C2718747   5.758   0.450  15.145 -0.0016 -0.2081  0.0433
  156DOPC   H7R18748   5.737   0.345  15.172  1.0681 -0.2370  0.8084
  156DOPC   H7S18749   5.853   0.484  15.191  0.6006 -0.6443 -0.8351
  156DOPC   C2818750   5.761   0.458  14.983  0.2530 -0.2068 -0.0413
  156DOPC   H8R18751   5.839   0.394  14.935  0.4309  0.0523 -0.0984
  156DOPC   H8S18752   5.781   0.562  14.952  2.6269 -1.6158 -3.9942
  156DOPC   C2918753   5.635   0.417  14.907 -0.5954  0.2266 -0.3424
  156DOPC   H9R18754   5.556   0.371  14.969 -0.2820 -2.8947 -2.0391
  156DOPC  C21018755   5.610   0.417  14.777 -0.2137  0.0273 -0.2526
  156DOPC  H10R18756   5.512   0.385  14.740  0.1599  1.0776 -2.3103
  156DOPC  C21118757   5.706   0.472  14.675  0.7050  0.1146  0.4623
  156DOPC  H11R18758   5.730   0.391  14.603  1.9184  0.9559 -0.1258
  156DOPC  H11S18759   5.799   0.500  14.730 -0.1105  1.9372  1.0006
  156DOPC  C21218760   5.652   0.591  14.585  0.6556  0.3418  0.3767
  156DOPC  H12R18761   5.566   0.545  14.532 -0.9776 -0.0550  3.1322
  156DOPC  H12S18762   5.720   0.621  14.503 -1.6404 -0.3264 -1.8957
  156DOPC  C21318763   5.613   0.720  14.652  0.0871  0.5286 -0.1637
  156DOPC  H13R18764   5.709   0.764  14.687 -0.4915 -0.0983  2.4539
  156DOPC  H13S18765   5.553   0.696  14.743 -0.8147  0.2694 -0.8072
  156DOPC  C21418766   5.521   0.811  14.566 -0.2439  0.1313  0.1916
  156DOPC  H14R18767   5.567   0.816  14.465 -1.1159  0.9627 -0.1799
  156DOPC  H14S18768   5.530   0.905  14.625  1.0751 -0.5637  1.1516
  156DOPC  C21518769   5.374   0.768  14.560  0.1192 -0.0559  0.4490
  156DOPC  H15R18770   5.333   0.734  14.658 -0.4324 -0.0649  0.2167
  156DOPC  H15S18771   5.360   0.682  14.490 -0.9955  1.0506 -0.7299
  156DOPC  C21618772   5.279   0.870  14.508 -0.0121  0.4999  0.2568
  156DOPC  H16R18773   5.302   0.896  14.403 -0.3708 -1.0824 -0.2513
  156DOPC  H16S18774   5.272   0.967  14.561  1.0356  0.9597 -0.4139
  156DOPC  C21718775   5.136   0.818  14.506 -0.0101 -0.1295  0.0565
  156DOPC  H17R18776   5.103   0.805  14.611 -0.2395  0.0022  0.0004
  156DOPC  H17S18777   5.129   0.726  14.443 -0.0809  0.2780 -0.5357
  156DOPC  C21818778   5.050   0.923  14.442  0.3962  0.0400 -0.3003
  156DOPC  H18R18779   4.943   0.915  14.472 -0.1077  0.1121 -1.9521
  156DOPC  H18S18780   5.062   0.902  14.334 -3.0828  0.0446 -0.8142
  156DOPC  H18T18781   5.089   1.024  14.466 -0.8105  0.3890  0.3132
  156DOPC   C3318782   5.325   0.725  15.569 -0.2687 -0.4784  0.1178
  156DOPC   H3X18783   5.339   0.615  15.581  0.5155 -0.5284 -1.0693
  156DOPC   H3Y18784   5.422   0.771  15.541  0.8161 -2.4763  0.4289
  156DOPC   C3418785   5.231   0.767  15.453  0.4648  0.0948 -0.2935
  156DOPC   H4X18786   5.180   0.866  15.457 -1.1210 -0.7376  1.2139
  156DOPC   H4Y18787   5.148   0.693  15.446  1.7832 -1.4668 -0.0296
  156DOPC   C3518788   5.316   0.762  15.318  0.3960 -0.9036 -0.4224
  156DOPC   H5X18789   5.377   0.669  15.313  1.9395  0.0774 -0.6773
  156DOPC   H5Y18790   5.391   0.844  15.319 -0.1501 -0.3917  0.5856
  156DOPC   C3618791   5.224   0.774  15.200  1.3813  0.2583  0.2055
  156DOPC   H6X18792   5.154   0.688  15.206  2.0603 -0.2146  1.8913
  156DOPC   H6Y18793   5.168   0.869  15.206 -0.8745 -0.9190 -0.9095
  156DOPC   C3718794   5.298   0.776  15.065 -0.7490 -0.0406  0.7832
  156DOPC   H7X18795   5.360   0.868  15.069  1.1395 -1.0319 -2.2915
  156DOPC   H7Y18796   5.370   0.692  15.067  1.5286  1.7257 -1.0501
  156DOPC   C3818797   5.210   0.764  14.935  0.1839 -0.4697  0.1120
  156DOPC   H8X18798   5.198   0.658  14.905  0.3925 -0.3871 -0.2668
  156DOPC   H8Y18799   5.269   0.809  14.852  1.9303  0.7404  1.8866
  156DOPC   C3918800   5.085   0.851  14.945  0.1332 -0.3073  0.2113
  156DOPC   H9X18801   5.098   0.960  14.955 -1.1533  0.3010 -3.3832
  156DOPC  C31018802   4.953   0.817  14.932  0.3732 -0.2259 -0.9472
  156DOPC  H10X18803   4.869   0.886  14.950  0.1761 -0.4126 -1.1373
  156DOPC  C31118804   4.907   0.676  14.893  0.0484 -0.1542 -0.3323
  156DOPC  H11X18805   4.844   0.626  14.970 -0.1137  1.3471  0.5533
  156DOPC  H11Y18806   4.992   0.610  14.866 -0.3697 -0.4072 -1.0505
  156DOPC  C31218807   4.830   0.679  14.761 -0.8808 -0.6248  0.5935
  156DOPC  H12X18808   4.784   0.582  14.732  1.5095 -0.9662 -2.6848
  156DOPC  H12Y18809   4.900   0.709  14.680 -1.3856  0.5992  0.5837
  156DOPC  C31318810   4.713   0.777  14.748 -0.2369  0.3170 -0.4616
  156DOPC  H13X18811   4.754   0.878  14.769  1.4876 -0.8202  2.1366
  156DOPC  H13Y18812   4.669   0.777  14.645 -0.7607 -2.5002 -0.3078
  156DOPC  C31418813   4.595   0.742  14.849 -0.1707  0.0863  0.3734
  156DOPC  H14X18814   4.636   0.708  14.947  0.2816  0.5048  0.3328
  156DOPC  H14Y18815   4.531   0.829  14.875  0.4608  0.3153  1.2138
  156DOPC  C31518816   4.505   0.628  14.795  0.4448  0.3727  0.5433
  156DOPC  H15X18817   4.563   0.534  14.790 -1.4693 -0.8167 -0.1623
  156DOPC  H15Y18818   4.463   0.655  14.696 -1.1460  0.1475  1.1295
  156DOPC  C31618819   4.386   0.620  14.881 -0.0654  0.4760 -0.6801
  156DOPC  H16X18820   4.362   0.722  14.918 -2.5821 -0.1598 -0.3583
  156DOPC  H16Y18821   4.291   0.591  14.832 -0.9344  1.4813  0.3426
  156DOPC  C31718822   4.402   0.537  15.010 -0.0839 -0.2305  0.6667
  156DOPC  H17X18823   4.439   0.437  14.977 -1.3282  0.3743 -2.9360
  156DOPC  H17Y18824   4.479   0.587  15.073  0.3897 -1.7185  1.3380
  156DOPC  C31818825   4.271   0.521  15.092 -0.1978 -0.0737 -1.0414
  156DOPC  H18X18826   4.293   0.480  15.193  2.0171 -1.6340 -2.0684
  156DOPC  H18Y18827   4.217   0.617  15.101 -1.6878 -0.9097 -0.8429
  156DOPC  H18Z18828   4.211   0.446  15.037  0.4525 -0.0657 -1.7722
  157DOPC     N18829   4.285   1.979  16.763 -0.3966  0.0603 -0.2278
  157DOPC   C1218830   4.286   2.120  16.695 -0.1424 -0.7875 -0.0545
  157DOPC  H12A18831   4.365   2.184  16.731 -0.8188  0.5352 -0.8257
  157DOPC  H12B18832   4.201   2.172  16.736  0.4657  0.6104 -0.4983
  157DOPC   C1318833   4.178   1.892  16.707 -0.2180  0.1256  0.3530
  157DOPC  H13A18834   4.207   1.858  16.609 -1.6450 -0.0385 -0.0376
  157DOPC  H13B18835   4.172   1.805  16.771  2.2265  0.6149  1.3795
  157DOPC  H13C18836   4.084   1.943  16.718 -1.2026 -1.6859  0.6842
  157DOPC   C1418837   4.258   1.985  16.909 -0.0641  0.4670  0.6539
  157DOPC  H14A18838   4.269   1.892  16.962 -1.0961  0.0807  0.2216
  157DOPC  H14B18839   4.324   2.056  16.957 -1.7313  1.7922  1.1191
  157DOPC  H14C18840   4.157   2.015  16.933 -0.2999 -1.4571  2.3601
  157DOPC   C1518841   4.416   1.905  16.747  0.6052 -0.7415  0.5640
  157DOPC  H15A18842   4.401   1.807  16.789 -2.3956  0.6799  3.2853
  157DOPC  H15B18843   4.505   1.954  16.784  0.9932 -0.5301 -0.5998
  157DOPC  H15C18844   4.441   1.894  16.643  3.8421 -1.5062  1.3353
  157DOPC   C1118845   4.279   2.119  16.540 -0.6626 -0.0610 -0.5447
  157DOPC  H11A18846   4.204   2.055  16.489 -0.3877 -1.2815  0.5328
  157DOPC  H11B18847   4.255   2.221  16.502 -3.1030 -0.2762  0.2241
  157DOPC     P18848   4.525   2.183  16.457  0.3614 -0.0129 -0.4032
  157DOPC   O1318849   4.655   2.120  16.466  0.5747  0.2106  0.6062
  157DOPC   O1418850   4.514   2.306  16.542  0.4294 -0.2944 -0.8240
  157DOPC   O1218851   4.409   2.076  16.491  0.2739 -0.4930 -0.0484
  157DOPC   O1118852   4.503   2.221  16.310 -0.1361 -0.0463  0.0948
  157DOPC    C118853   4.429   2.146  16.210  0.2093 -0.3835  0.4162
  157DOPC    HA18854   4.415   2.037  16.225 -1.2747 -0.6933 -2.6135
  157DOPC    HB18855   4.482   2.160  16.114  1.4544 -0.2342  1.0890
  157DOPC    C218856   4.296   2.215  16.177  0.7821  0.3134 -0.0963
  157DOPC    HS18857   4.239   2.203  16.271  1.3201 -0.1203  0.1820
  157DOPC   O2118858   4.240   2.145  16.066 -0.4376  0.2898 -0.1735
  157DOPC   C2118859   4.109   2.138  16.072  0.2017 -0.5950 -0.9635
  157DOPC   O2218860   4.039   2.193  16.158 -0.0150 -0.3192 -0.1105
  157DOPC   C2218861   4.056   2.033  15.974  0.9497  0.5034 -0.1600
  157DOPC   H2R18862   3.946   2.042  15.971  0.7759 -1.2497  0.1824
  157DOPC   H2S18863   4.078   1.934  16.020  1.7034  0.4156 -0.6840
  157DOPC    C318864   4.309   2.363  16.154  0.2699 -0.1336  0.2625
  157DOPC    HX18865   4.341   2.397  16.255 -2.5527 -0.6405  1.4280
  157DOPC    HY18866   4.206   2.399  16.134 -0.0409 -2.0365 -1.9413
  157DOPC   O3118867   4.402   2.392  16.047 -0.2345  0.0979  0.8507
  157DOPC   C3118868   4.384   2.502  15.984 -0.0513  1.0638 -0.3096
  157DOPC   O3218869   4.287   2.574  15.992 -0.8081  0.3641  0.3056
  157DOPC   C3218870   4.490   2.521  15.867 -0.1333 -0.1665  0.6571
  157DOPC   H2X18871   4.475   2.444  15.789  0.4844  0.4604 -0.1012
  157DOPC   H2Y18872   4.455   2.614  15.816 -2.1324 -0.5447  1.2406
  157DOPC   C2318873   4.104   2.041  15.828 -0.0236  0.0953  0.1837
  157DOPC   H3R18874   4.139   1.942  15.792  0.3251  0.7098 -1.2621
  157DOPC   H3S18875   4.196   2.104  15.834 -1.1041  1.7552  0.0333
  157DOPC   C2418876   3.997   2.082  15.733 -0.3723  0.8149 -0.2816
  157DOPC   H4R18877   3.912   2.011  15.743  1.1806 -1.1846 -0.5954
  157DOPC   H4S18878   4.032   2.066  15.629  0.5184 -0.5777  0.2008
  157DOPC   C2518879   3.957   2.230  15.737 -0.5625 -0.0325 -0.0867
  157DOPC   H5R18880   3.911   2.247  15.837  1.6143 -2.6740  1.4930
  157DOPC   H5S18881   3.874   2.247  15.665 -0.7053 -1.2587 -0.2311
  157DOPC   C2618882   4.071   2.318  15.698 -0.2731  0.5098 -0.3126
  157DOPC   H6R18883   4.130   2.263  15.621 -1.5389 -0.8976 -0.3345
  157DOPC   H6S18884   4.141   2.314  15.784 -0.6666 -0.4457 -0.0230
  157DOPC   C2718885   4.043   2.465  15.656  0.4524  0.2260 -0.2664
  157DOPC   H7R18886   3.939   2.481  15.691  1.3236  2.3034  1.6156
  157DOPC   H7S18887   4.060   2.480  15.547  0.0168  1.6719 -0.1530
  157DOPC   C2818888   4.145   2.551  15.716  0.3466  0.6062 -0.2090
  157DOPC   H8R18889   4.240   2.504  15.685 -0.4579  0.2983 -2.3793
  157DOPC   H8S18890   4.143   2.538  15.826 -1.3589 -1.0199 -0.3756
  157DOPC   C2918891   4.143   2.706  15.686 -0.0929 -0.7409 -0.2855
  157DOPC   H9R18892   4.062   2.765  15.732  2.0218  0.6042  1.9292
  157DOPC  C21018893   4.231   2.780  15.611 -0.4740  0.4564  0.1007
  157DOPC  H10R18894   4.206   2.887  15.601  0.7666  0.6538 -1.1241
  157DOPC  C21118895   4.350   2.737  15.529 -1.1657  0.6023  0.6504
  157DOPC  H11R18896   4.372   2.633  15.561  0.5852  0.6195 -0.3840
  157DOPC  H11S18897   4.439   2.803  15.540 -1.0814  0.7942 -0.9675
  157DOPC  C21218898   4.342   2.731  15.377  0.0856 -0.2444  0.3052
  157DOPC  H12R18899   4.293   2.816  15.325 -0.5066 -1.0951 -0.5541
  157DOPC  H12S18900   4.276   2.645  15.355  0.4730 -0.1655 -1.2671
  157DOPC  C21318901   4.467   2.694  15.303 -0.8062  0.0854 -0.3601
  157DOPC  H13R18902   4.498   2.592  15.331 -0.0586  0.2270 -0.6346
  157DOPC  H13S18903   4.549   2.761  15.337  0.3067 -0.3154 -2.1405
  157DOPC  C21418904   4.444   2.705  15.153 -0.2871 -0.2944 -0.4241
  157DOPC  H14R18905   4.427   2.810  15.121  0.8260  0.0754  0.1706
  157DOPC  H14S18906   4.354   2.647  15.122  1.6573 -3.2506 -1.0152
  157DOPC  C21518907   4.557   2.646  15.072 -0.8626  0.0086 -0.1804
  157DOPC  H15R18908   4.599   2.554  15.118 -0.1016  0.8040  0.7553
  157DOPC  H15S18909   4.634   2.725  15.059 -0.2674 -0.8278 -2.2197
  157DOPC  C21618910   4.523   2.619  14.927 -1.2308  0.5653  0.4806
  157DOPC  H16R18911   4.508   2.717  14.876  0.2169  1.0022  0.8365
  157DOPC  H16S18912   4.430   2.559  14.926 -1.7259  1.2767 -1.4886
  157DOPC  C21718913   4.634   2.543  14.846 -0.6311  0.1612 -0.0842
  157DOPC  H17R18914   4.590   2.525  14.746 -2.0971  0.9770  0.3814
  157DOPC  H17S18915   4.673   2.453  14.897  1.3399  0.5790 -0.7585
  157DOPC  C21818916   4.758   2.632  14.822  0.4172  0.2551 -0.0081
  157DOPC  H18R18917   4.726   2.724  14.768  0.1731  1.2804  1.8005
  157DOPC  H18S18918   4.836   2.582  14.761  0.4489  0.0820  0.1749
  157DOPC  H18T18919   4.808   2.676  14.911 -1.8824 -0.1799  1.5796
  157DOPC   C3318920   4.642   2.545  15.904 -0.3360  0.3204 -0.1347
  157DOPC   H3X18921   4.704   2.566  15.815  1.0080 -1.1427  0.4098
  157DOPC   H3Y18922   4.693   2.454  15.942  0.5825 -0.0064 -2.0620
  157DOPC   C3418923   4.654   2.663  16.003  0.3329 -0.4211 -0.1191
  157DOPC   H4X18924   4.622   2.628  16.103  1.4464 -0.6323  0.1757
  157DOPC   H4Y18925   4.596   2.753  15.973  0.5131 -0.1789  0.2528
  157DOPC   C3518926   4.797   2.696  16.031 -0.4207 -0.0963 -0.1848
  157DOPC   H5X18927   4.861   2.607  16.047 -2.1338 -1.2034  0.7365
  157DOPC   H5Y18928   4.811   2.766  16.116  0.5206 -0.3711 -0.1012
  157DOPC   C3618929   4.859   2.784  15.921  0.0785  0.2241  0.9675
  157DOPC   H6X18930   4.881   2.726  15.829  1.0973 -0.2343  1.4937
  157DOPC   H6Y18931   4.785   2.862  15.894 -0.5357 -0.4247  0.7250
  157DOPC   C3718932   4.997   2.845  15.963 -0.2875 -0.9516  0.7502
  157DOPC   H7X18933   4.987   2.892  16.063  3.2356  1.2372  0.2504
  157DOPC   H7Y18934   5.069   2.761  15.973 -0.1767 -0.9236  0.1979
  157DOPC   C3818935   5.051   2.961  15.876 -0.0678 -0.6198  0.7380
  157DOPC   H8X18936   5.129   3.019  15.931  0.1695 -0.2589  0.0307
  157DOPC   H8Y18937   4.968   3.033  15.859  0.4298  0.2681  1.9250
  157DOPC   C3918938   5.102   2.899  15.747  0.0788  0.1209 -0.4269
  157DOPC   H9X18939   5.071   2.798  15.716  0.7686  0.1421 -1.2395
  157DOPC  C31018940   5.185   2.963  15.662  0.2704  0.2096 -0.5862
  157DOPC  H10X18941   5.232   2.900  15.585 -1.9944 -1.1846 -0.9201
  157DOPC  C31118942   5.231   3.110  15.670  0.7273  0.2444 -0.4771
  157DOPC  H11X18943   5.293   3.134  15.759 -0.6990  0.2829  0.5244
  157DOPC  H11Y18944   5.145   3.179  15.675  0.8585  0.4434 -0.9356
  157DOPC  C31218945   5.297   3.148  15.537 -0.2471  0.1800 -0.4835
  157DOPC  H12X18946   5.394   3.094  15.537 -0.3126  0.0569 -0.9179
  157DOPC  H12Y18947   5.318   3.256  15.529  0.5913  0.0571 -0.0308
  157DOPC  C31318948   5.219   3.118  15.411 -0.6994 -0.0702 -0.1239
  157DOPC  H13X18949   5.184   3.014  15.390 -0.2225  0.0366 -1.5510
  157DOPC  H13Y18950   5.131   3.185  15.420  0.7459  1.9591 -0.5466
  157DOPC  C31418951   5.311   3.145  15.286 -0.0042  0.0403  0.3069
  157DOPC  H14X18952   5.368   3.238  15.308  1.5730 -0.6233 -0.8172
  157DOPC  H14Y18953   5.373   3.054  15.274 -1.7031 -0.9492 -1.6849
  157DOPC  C31518954   5.231   3.179  15.163  0.7759 -0.6232  0.2756
  157DOPC  H15X18955   5.157   3.260  15.182 -0.1503 -1.2425 -0.5524
  157DOPC  H15Y18956   5.169   3.098  15.119  1.5142  0.4686 -3.0864
  157DOPC  C31618957   5.325   3.210  15.050 -0.1352  0.2353  0.2976
  157DOPC  H16X18958   5.396   3.291  15.078 -1.0415  0.7642  1.1239
  157DOPC  H16Y18959   5.374   3.117  15.016  1.5679  1.2313 -0.0772
  157DOPC  C31718960   5.256   3.275  14.931 -0.3545  0.1034  0.0300
  157DOPC  H17X18961   5.184   3.205  14.884 -0.6540  1.2849 -1.3730
  157DOPC  H17Y18962   5.193   3.357  14.972  0.8572  0.7888  0.5649
  157DOPC  C31818963   5.347   3.314  14.812  0.2457 -0.0378 -0.1472
  157DOPC  H18X18964   5.383   3.223  14.759  0.5632 -0.9853  1.6236
  157DOPC  H18Y18965   5.289   3.375  14.739 -0.4622  0.3225  0.7134
  157DOPC  H18Z18966   5.432   3.370  14.856 -0.6093  1.1571  0.0292
  158DOPC     N18967   2.275   1.590  16.271  0.0246 -0.1087  1.0542
  158DOPC   C1218968   2.289   1.440  16.247 -0.1924 -0.3766 -0.6886
  158DOPC  H12A18969   2.188   1.411  16.221 -0.5355  0.6406 -0.5130
  158DOPC  H12B18970   2.310   1.389  16.340  0.8711  0.4843 -0.4392
  158DOPC   C1318971   2.397   1.642  16.333  0.6754  0.5780 -0.8630
  158DOPC  H13A18972   2.394   1.750  16.334  1.4344  0.6169 -1.5261
  158DOPC  H13B18973   2.418   1.618  16.436  3.0006  1.9696 -0.9553
  158DOPC  H13C18974   2.487   1.598  16.292 -0.2989 -1.0235 -1.4189
  158DOPC   C1418975   2.162   1.631  16.358 -0.8849 -0.2690 -0.1622
  158DOPC  H14A18976   2.177   1.581  16.453 -0.1175 -0.6091 -0.4540
  158DOPC  H14B18977   2.160   1.738  16.370  1.5306 -0.2248  0.3082
  158DOPC  H14C18978   2.067   1.597  16.318 -0.3283 -1.1436 -0.7610
  158DOPC   C1518979   2.250   1.660  16.140 -0.4226 -0.4228  0.6482
  158DOPC  H15A18980   2.253   1.766  16.162 -0.7111 -0.7480  2.3609
  158DOPC  H15B18981   2.155   1.625  16.102  0.1472 -0.3867 -0.8544
  158DOPC  H15C18982   2.335   1.644  16.075 -0.0752  0.4258  0.8727
  158DOPC   C1118983   2.386   1.399  16.144  0.4999  0.0607 -0.1851
  158DOPC  H11A18984   2.359   1.298  16.107 -0.1955  0.1147  0.1540
  158DOPC  H11B18985   2.365   1.460  16.053  2.4376  0.5299 -0.3516
  158DOPC     P18986   2.560   1.290  16.294  0.1334 -0.1515 -0.0473
  158DOPC   O1318987   2.467   1.284  16.407  0.1278  0.3816 -0.0993
  158DOPC   O1418988   2.703   1.316  16.334  0.5717 -0.3745 -0.2171
  158DOPC   O1218989   2.513   1.406  16.203  0.4694 -0.5588 -0.0865
  158DOPC   O1118990   2.550   1.167  16.202  0.3099 -0.0988  1.0214
  158DOPC    C118991   2.668   1.098  16.157 -0.4039 -0.0014  0.3696
  158DOPC    HA18992   2.643   0.990  16.150  1.5817 -0.4081 -1.4439
  158DOPC    HB18993   2.752   1.111  16.229 -0.1042  1.2385 -0.1820
  158DOPC    C218994   2.708   1.149  16.012 -0.2615  0.7044  0.5680
  158DOPC    HS18995   2.743   1.255  16.019  0.2002  0.4171  3.9698
  158DOPC   O2118996   2.600   1.135  15.915  0.0509  0.3605 -0.1274
  158DOPC   C2118997   2.576   1.237  15.839  0.1925 -1.5135 -0.2435
  158DOPC   O2218998   2.634   1.344  15.835  0.5601  0.2057  0.6690
  158DOPC   C2218999   2.449   1.204  15.760 -0.6049 -0.1555 -0.4556
  158DOPC   H2R19000   2.370   1.179  15.834  0.4620  0.4537  0.9318
  158DOPC   H2S19001   2.465   1.110  15.704 -2.3052 -0.2678 -0.8177
  158DOPC    C319002   2.838   1.076  15.957  0.7317 -0.1072 -1.0642
  158DOPC    HX19003   2.805   0.970  15.959 -0.4780  0.2558 -0.0076
  158DOPC    HY19004   2.922   1.076  16.029 -0.3231  2.2230  0.2694
  158DOPC   O3119005   2.874   1.115  15.826 -0.2351  0.3460  0.6061
  158DOPC   C3119006   2.940   1.230  15.815 -0.1012  0.5341  0.5184
  158DOPC   O3219007   2.977   1.304  15.902  0.7931  0.0945 -0.2316
  158DOPC   C3219008   2.992   1.248  15.668 -0.1035  0.5338  0.4368
  158DOPC   H2X19009   3.099   1.218  15.662 -0.0487 -0.5519  4.0378
  158DOPC   H2Y19010   2.924   1.184  15.608 -0.9303  0.9654  0.8915
  158DOPC   C2319011   2.392   1.316  15.671  0.3378 -0.1025 -0.1472
  158DOPC   H3R19012   2.457   1.314  15.581  0.7529 -0.9138  0.1648
  158DOPC   H3S19013   2.395   1.420  15.711  2.1983 -0.2254  0.1325
  158DOPC   C2419014   2.248   1.290  15.620  0.4637  0.1044  0.2949
  158DOPC   H4R19015   2.163   1.289  15.692 -0.1869  2.3431 -0.3676
  158DOPC   H4S19016   2.245   1.196  15.560 -0.2793  0.9070 -0.9620
  158DOPC   C2519017   2.214   1.386  15.500  0.8892 -0.2152  0.2298
  158DOPC   H5R19018   2.303   1.420  15.443 -0.6337  2.7687 -0.5526
  158DOPC   H5S19019   2.166   1.480  15.536  0.4744  0.3361 -1.6422
  158DOPC   C2619020   2.112   1.316  15.399  0.2169 -0.3796  0.1464
  158DOPC   H6R19021   2.036   1.259  15.456  0.4716 -0.5000  0.3689
  158DOPC   H6S19022   2.177   1.239  15.352 -0.4392 -1.6819  1.3098
  158DOPC   C2719023   2.058   1.405  15.291 -0.1717 -0.5444 -0.4988
  158DOPC   H7R19024   2.142   1.445  15.230  0.4975 -0.0145  0.7316
  158DOPC   H7S19025   2.006   1.494  15.334  0.4972  0.0342 -0.8739
  158DOPC   C2819026   1.950   1.337  15.198 -0.6550  0.3307  0.1879
  158DOPC   H8R19027   1.871   1.294  15.263 -0.2148  1.2005  1.3279
  158DOPC   H8S19028   1.987   1.243  15.153 -1.2059 -0.0280  0.4695
  158DOPC   C2919029   1.915   1.435  15.098 -0.5254 -0.6681  0.1093
  158DOPC   H9R19030   1.851   1.514  15.139 -2.5896 -2.0106 -0.3606
  158DOPC  C21019031   1.967   1.448  14.973 -0.2458 -0.2873  0.5577
  158DOPC  H10R19032   1.931   1.537  14.918  0.7750 -0.1536  0.0819
  158DOPC  C21119033   2.066   1.359  14.899  0.1664 -0.4555 -0.0695
  158DOPC  H11R19034   2.021   1.323  14.804 -1.2831  0.6727  0.1442
  158DOPC  H11S19035   2.104   1.278  14.965 -2.1640 -0.4451  1.4244
  158DOPC  C21219036   2.176   1.457  14.851  0.3790  0.6262 -0.1625
  158DOPC  H12R19037   2.234   1.492  14.939  2.6772 -1.4813 -0.7225
  158DOPC  H12S19038   2.141   1.540  14.785 -1.3092 -0.9734 -1.4071
  158DOPC  C21319039   2.287   1.396  14.759 -0.2836 -0.0848  0.2061
  158DOPC  H13R19040   2.247   1.385  14.656  2.4358  0.7139 -1.0320
  158DOPC  H13S19041   2.308   1.294  14.796  2.1370 -0.3657 -1.6980
  158DOPC  C21419042   2.408   1.485  14.754 -0.2978 -0.6313  0.3187
  158DOPC  H14R19043   2.493   1.431  14.706 -0.2854  0.7665 -1.3135
  158DOPC  H14S19044   2.446   1.504  14.856  0.3456 -3.0218  0.6022
  158DOPC  C21519045   2.396   1.614  14.670 -0.0024 -0.5738 -0.9569
  158DOPC  H15R19046   2.492   1.668  14.686  0.7398 -2.2108  0.4651
  158DOPC  H15S19047   2.320   1.684  14.710  2.0140  1.1820 -0.0196
  158DOPC  C21619048   2.374   1.592  14.515  0.1079 -0.8548 -0.6794
  158DOPC  H16R19049   2.269   1.577  14.481 -0.2006  1.3145 -0.8098
  158DOPC  H16S19050   2.435   1.504  14.488 -0.1502 -1.0913 -0.5005
  158DOPC  C21719051   2.409   1.716  14.428  0.0761  0.1451  0.3613
  158DOPC  H17R19052   2.406   1.676  14.325  3.1797  0.4952  0.0327
  158DOPC  H17S19053   2.513   1.751  14.449 -0.2084  1.1362  0.1753
  158DOPC  C21819054   2.302   1.825  14.437  0.4180 -1.1026  0.2826
  158DOPC  H18R19055   2.339   1.917  14.386 -1.1828 -0.7155 -0.2133
  158DOPC  H18S19056   2.296   1.854  14.544 -0.1160  0.5952 -0.1711
  158DOPC  H18T19057   2.207   1.798  14.387 -1.1421  0.9630  1.9736
  158DOPC   C3319058   2.982   1.391  15.625  0.1987 -0.0949  0.5761
  158DOPC   H3X19059   3.059   1.445  15.685  1.1557 -1.0785  0.2744
  158DOPC   H3Y19060   2.882   1.435  15.647 -1.6918 -2.3681 -2.6221
  158DOPC   C3419061   3.024   1.401  15.478  0.3347 -0.5969 -0.0692
  158DOPC   H4X19062   2.969   1.318  15.428 -1.3212  0.1330  0.4578
  158DOPC   H4Y19063   3.134   1.398  15.460  0.4254 -0.7552  0.4788
  158DOPC   C3519064   2.969   1.534  15.418 -0.4499  0.3935  0.3565
  158DOPC   H5X19065   2.864   1.543  15.453 -0.3466  1.9908  0.2890
  158DOPC   H5Y19066   2.959   1.517  15.309 -1.2982 -2.4280  0.7748
  158DOPC   C3619067   3.053   1.654  15.464  0.1171 -0.7746  0.4199
  158DOPC   H6X19068   3.062   1.641  15.574 -1.1604 -2.4574  0.3694
  158DOPC   H6Y19069   3.157   1.642  15.428 -0.2163  1.2050 -1.4138
  158DOPC   C3719070   2.998   1.793  15.421  0.0203 -0.0082  0.1984
  158DOPC   H7X19071   2.986   1.784  15.311  0.7560  1.9682 -0.0916
  158DOPC   H7Y19072   2.900   1.820  15.467  0.5112 -0.9930  1.9275
  158DOPC   C3819073   3.099   1.905  15.430  0.4205  0.1096 -0.0647
  158DOPC   H8X19074   3.183   1.896  15.357 -0.0056  0.4942 -0.6124
  158DOPC   H8Y19075   3.164   1.905  15.520  0.3133  1.3915  0.0330
  158DOPC   C3919076   3.034   2.040  15.418 -0.2327 -0.1522 -0.6321
  158DOPC   H9X19077   2.997   2.075  15.515  0.5632  1.0179 -0.7323
  158DOPC  C31019078   3.023   2.118  15.309 -0.5999 -0.4229  0.0512
  158DOPC  H10X19079   2.972   2.214  15.322  0.1600  0.1762 -1.1722
  158DOPC  C31119080   3.089   2.097  15.172 -0.4583  0.0578 -0.5630
  158DOPC  H11X19081   3.150   2.004  15.171 -1.0126 -0.3422  0.8915
  158DOPC  H11Y19082   3.149   2.190  15.158 -1.7578  1.1291  0.6251
  158DOPC  C31219083   2.979   2.083  15.066 -0.1647  0.6606  0.6636
  158DOPC  H12X19084   2.912   2.172  15.065 -0.2512  0.5963  0.4702
  158DOPC  H12Y19085   2.918   1.993  15.089  1.0601 -1.0090 -2.0897
  158DOPC  C31319086   3.022   2.048  14.918 -0.2697 -0.2380  0.7410
  158DOPC  H13X19087   3.095   1.968  14.941  0.4091 -0.2626 -1.3535
  158DOPC  H13Y19088   2.936   2.013  14.858 -0.8600  1.3027  0.6313
  158DOPC  C31419089   3.096   2.169  14.854  0.2899  0.3047 -0.2442
  158DOPC  H14X19090   3.017   2.246  14.845  0.5258  0.6511  0.5167
  158DOPC  H14Y19091   3.175   2.207  14.922  0.4974 -0.2431 -0.1774
  158DOPC  C31519092   3.148   2.137  14.715 -0.3921 -0.5234 -0.0021
  158DOPC  H15X19093   3.133   2.237  14.669 -1.0517  0.9646  3.1527
  158DOPC  H15Y19094   3.091   2.051  14.674  0.0250 -1.1895  0.7824
  158DOPC  C31619095   3.297   2.101  14.707 -0.2528 -0.3935  0.0949
  158DOPC  H16X19096   3.317   2.099  14.598  1.6726 -0.4679  0.4165
  158DOPC  H16Y19097   3.365   2.179  14.747 -0.3519 -1.0222  1.5493
  158DOPC  C31719098   3.343   1.968  14.770  0.1824  0.1646  0.4014
  158DOPC  H17X19099   3.336   1.988  14.879  1.8349 -1.4185  0.8536
  158DOPC  H17Y19100   3.274   1.888  14.736  0.8941 -0.0717 -0.5466
  158DOPC  C31819101   3.487   1.929  14.732  0.5669 -0.1306 -0.5175
  158DOPC  H18X19102   3.546   1.992  14.662  0.7514  0.8185  0.4737
  158DOPC  H18Y19103   3.540   1.937  14.829 -0.2051  1.2280 -0.1787
  158DOPC  H18Z19104   3.496   1.825  14.694  1.8239 -0.1568 -0.1907
  159DOPC     N19105   5.734   3.141  17.212  0.9252 -0.2531 -0.7301
  159DOPC   C1219106   5.645   3.184  17.094  0.5174  0.4719  0.3749
  159DOPC  H12A19107   5.570   3.252  17.131  0.6852  1.1514 -0.4950
  159DOPC  H12B19108   5.579   3.101  17.072  0.1743  1.0208 -0.7341
  159DOPC   C1319109   5.820   3.019  17.162  0.0482 -0.4330  0.1530
  159DOPC  H13A19110   5.868   3.056  17.073 -1.3906 -0.2827 -0.5957
  159DOPC  H13B19111   5.885   2.980  17.239 -1.4821  0.2219  1.8646
  159DOPC  H13C19112   5.758   2.932  17.146  1.4638 -1.2872 -0.8557
  159DOPC   C1419113   5.650   3.099  17.328 -0.8837 -0.2157  0.2918
  159DOPC  H14A19114   5.597   3.188  17.359  1.9943  1.2950  1.2313
  159DOPC  H14B19115   5.583   3.016  17.312 -0.0889 -0.7292 -0.4810
  159DOPC  H14C19116   5.713   3.073  17.411 -1.1669  0.8942  0.8809
  159DOPC   C1519117   5.826   3.250  17.262  0.5794 -0.3516  0.0283
  159DOPC  H15A19118   5.883   3.287  17.178  1.5158 -0.1890  0.7298
  159DOPC  H15B19119   5.885   3.212  17.344  0.4467 -3.1778 -1.0475
  159DOPC  H15C19120   5.769   3.333  17.300  1.5147  1.4447 -2.2413
  159DOPC   C1119121   5.715   3.241  16.968  0.1646  0.1575  0.0318
  159DOPC  H11A19122   5.633   3.258  16.896  0.3049  0.2336 -0.1095
  159DOPC  H11B19123   5.762   3.339  16.989 -0.0114  0.3088 -0.2759
  159DOPC     P19124   5.749   3.029  16.813  0.0939 -0.2968  0.0259
  159DOPC   O1319125   5.683   2.939  16.905  0.3443  0.6089 -0.2396
  159DOPC   O1419126   5.851   2.988  16.716  0.3075  0.5341 -0.2530
  159DOPC   O1219127   5.800   3.155  16.896 -0.4142  1.0351 -0.0390
  159DOPC   O1119128   5.632   3.091  16.731 -0.1383 -0.3125 -0.1502
  159DOPC    C119129   5.579   3.011  16.620  0.0347  0.2576  0.5555
  159DOPC    HA19130   5.478   2.969  16.637 -1.5118  2.0107 -3.1648
  159DOPC    HB19131   5.649   2.929  16.592 -0.4609  0.3735 -1.1572
  159DOPC    C219132   5.580   3.099  16.491  0.3683 -0.5036 -0.5918
  159DOPC    HS19133   5.512   3.049  16.418  0.0651  0.8060 -1.2457
  159DOPC   O2119134   5.715   3.128  16.449  0.0573 -0.0047  0.4188
  159DOPC   C2119135   5.779   3.038  16.389 -0.2903  0.5285  0.4346
  159DOPC   O2219136   5.749   2.925  16.366 -0.1938  0.3648  0.1701
  159DOPC   C2219137   5.916   3.085  16.344 -0.5552  0.4160  0.0396
  159DOPC   H2R19138   5.980   2.995  16.352  2.3662  2.4610  2.2433
  159DOPC   H2S19139   5.958   3.164  16.410  0.7029 -0.0641 -0.1601
  159DOPC    C319140   5.511   3.234  16.527 -0.4813  0.1233  0.5863
  159DOPC    HX19141   5.576   3.290  16.598  0.2557 -0.2955  0.2594
  159DOPC    HY19142   5.418   3.218  16.586 -1.6588  1.1537 -0.9292
  159DOPC   O3119143   5.490   3.305  16.408  0.3462 -0.4935 -0.9881
  159DOPC   C3119144   5.377   3.277  16.333 -0.7128  1.3500  0.2363
  159DOPC   O3219145   5.286   3.202  16.365 -0.3492 -0.1699 -0.1478
  159DOPC   C3219146   5.391   3.359  16.209  0.5266 -0.1830  0.3324
  159DOPC   H2X19147   5.302   3.338  16.145  0.7617 -4.5337  1.0974
  159DOPC   H2Y19148   5.381   3.465  16.239 -0.0411  0.1067 -0.8198
  159DOPC   C2319149   5.920   3.149  16.201  0.1680  0.1735  0.0856
  159DOPC   H3R19150   5.834   3.218  16.188  1.6949  2.0058 -0.6347
  159DOPC   H3S19151   5.896   3.071  16.126 -1.3453 -0.5680  1.2580
  159DOPC   C2419152   6.039   3.235  16.158 -0.0265  0.2170 -0.3629
  159DOPC   H4R19153   6.137   3.192  16.185  1.1242  0.7533 -3.2958
  159DOPC   H4S19154   6.028   3.332  16.212 -1.9338  1.3125 -2.5372
  159DOPC   C2519155   6.040   3.272  16.012 -0.3522 -0.3226  0.7387
  159DOPC   H5R19156   5.957   3.341  15.984 -0.0786 -0.3256 -0.1149
  159DOPC   H5S19157   6.028   3.172  15.965  1.8944  0.0922 -0.8853
  159DOPC   C2619158   6.180   3.323  15.967  0.3001  0.0449 -0.1053
  159DOPC   H6R19159   6.259   3.245  15.977  2.6144  2.2214 -0.4693
  159DOPC   H6S19160   6.213   3.411  16.025 -1.3467  0.2272  0.6279
  159DOPC   C2719161   6.167   3.377  15.821 -0.5741 -0.4845  0.5750
  159DOPC   H7R19162   6.267   3.421  15.801  0.9526 -3.9611 -0.3099
  159DOPC   H7S19163   6.090   3.456  15.821  1.1370  1.2605  0.3736
  159DOPC   C2819164   6.131   3.267  15.713  0.1654 -0.6077  0.5131
  159DOPC   H8R19165   6.021   3.253  15.702  0.2865 -1.0083 -0.2603
  159DOPC   H8S19166   6.178   3.174  15.753  0.1213 -0.5140  0.7850
  159DOPC   C2919167   6.182   3.312  15.576  0.3400  0.0603 -0.7681
  159DOPC   H9R19168   6.197   3.420  15.570  1.5040  0.1595  2.1832
  159DOPC  C21019169   6.245   3.232  15.486  0.7464  0.2935  0.3541
  159DOPC  H10R19170   6.295   3.271  15.397  0.5521 -0.9987 -0.3522
  159DOPC  C21119171   6.250   3.082  15.500  0.6557  1.1100 -0.2044
  159DOPC  H11R19172   6.201   3.037  15.589  0.1966 -0.8128 -1.3928
  159DOPC  H11S19173   6.358   3.058  15.505  0.3149 -0.1893  1.7275
  159DOPC  C21219174   6.191   3.009  15.375 -0.5815 -0.1372  0.7439
  159DOPC  H12R19175   6.102   3.061  15.333 -1.4487  0.0109  2.6443
  159DOPC  H12S19176   6.161   2.907  15.409 -0.9933 -0.2705  0.0014
  159DOPC  C21319177   6.297   2.989  15.264 -0.0532  0.0692 -0.0355
  159DOPC  H13R19178   6.382   2.933  15.308 -0.0301  1.4339  1.8175
  159DOPC  H13S19179   6.346   3.081  15.225 -0.4809  1.2193  1.9800
  159DOPC  C21419180   6.236   2.908  15.152  0.1491  0.0267  0.1035
  159DOPC  H14R19181   6.140   2.940  15.105  0.5432 -0.4225 -1.0431
  159DOPC  H14S19182   6.222   2.802  15.182 -2.6530 -0.6088 -2.8717
  159DOPC  C21519183   6.338   2.890  15.038  0.6270  0.1216  0.2822
  159DOPC  H15R19184   6.432   2.850  15.083  2.1225  2.1736 -0.8246
  159DOPC  H15S19185   6.372   2.986  14.995  3.4461 -0.8820  0.0639
  159DOPC  C21619186   6.293   2.783  14.940 -0.6824  0.1907  1.0523
  159DOPC  H16R19187   6.224   2.702  14.969  0.5606 -2.0146 -1.7317
  159DOPC  H16S19188   6.392   2.735  14.924  0.3074  1.3120  3.3929
  159DOPC  C21719189   6.253   2.845  14.801  0.1256  0.1625 -0.2634
  159DOPC  H17R19190   6.344   2.890  14.756  1.4154 -1.8343  0.2129
  159DOPC  H17S19191   6.183   2.930  14.818  1.7583  1.8591 -1.5370
  159DOPC  C21819192   6.199   2.744  14.705 -0.1308  0.2014  0.4801
  159DOPC  H18R19193   6.107   2.705  14.753 -0.4173  0.8392  0.4634
  159DOPC  H18S19194   6.269   2.665  14.673  1.0025  1.7055 -0.9592
  159DOPC  H18T19195   6.154   2.784  14.612 -0.2179 -0.1654  0.3643
  159DOPC   C3319196   5.520   3.346  16.130  0.5586  0.5575  0.4600
  159DOPC   H3X19197   5.610   3.351  16.196  1.1334  0.6894 -0.3287
  159DOPC   H3Y19198   5.524   3.431  16.059 -0.3543 -1.2690 -1.9037
  159DOPC   C3419199   5.540   3.215  16.056  0.9995 -0.2166 -0.9104
  159DOPC   H4X19200   5.445   3.186  16.006  1.2948 -1.2115 -0.9071
  159DOPC   H4Y19201   5.555   3.128  16.123 -0.9448 -0.7824 -1.1580
  159DOPC   C3519202   5.636   3.225  15.940  0.7673 -0.3948 -0.2113
  159DOPC   H5X19203   5.740   3.248  15.973  0.5770  1.7350 -0.8992
  159DOPC   H5Y19204   5.613   3.307  15.868 -0.2644 -1.1188 -0.7173
  159DOPC   C3619205   5.641   3.095  15.852 -0.0750 -0.2579  0.3734
  159DOPC   H6X19206   5.676   3.017  15.922  1.7377 -0.0180 -0.2230
  159DOPC   H6Y19207   5.535   3.075  15.823 -1.3338  2.1196  2.8844
  159DOPC   C3719208   5.735   3.113  15.729  0.0819  0.7995 -0.0612
  159DOPC   H7X19209   5.702   3.191  15.657  1.2068  1.8104  0.4982
  159DOPC   H7Y19210   5.836   3.144  15.760  0.7196 -0.4701 -0.7892
  159DOPC   C3819211   5.749   2.977  15.656 -0.7199  0.3711  0.1563
  159DOPC   H8X19212   5.756   2.894  15.730  2.0110  1.0443  0.7595
  159DOPC   H8Y19213   5.848   2.980  15.607  0.6806 -0.3470  2.7773
  159DOPC   C3919214   5.642   2.954  15.547 -0.5688  0.3157 -0.0698
  159DOPC   H9X19215   5.540   2.940  15.587 -1.1578 -0.5097 -1.7534
  159DOPC  C31019216   5.655   2.958  15.413  0.6894 -0.4935  0.0682
  159DOPC  H10X19217   5.566   2.937  15.353  1.2954  0.0268 -1.0286
  159DOPC  C31119218   5.780   2.982  15.337 -0.3669  0.6244 -0.4371
  159DOPC  H11X19219   5.799   2.900  15.264  1.9837  0.1154  0.6492
  159DOPC  H11Y19220   5.875   2.991  15.394  1.1699  0.1763 -2.7734
  159DOPC  C31219221   5.764   3.120  15.269 -0.3738 -0.3494  0.2689
  159DOPC  H12X19222   5.866   3.156  15.243  0.6744 -1.5629  2.4580
  159DOPC  H12Y19223   5.744   3.193  15.351  0.7260  0.9457 -0.5617
  159DOPC  C31319224   5.666   3.131  15.148  0.4049 -0.1399  0.7787
  159DOPC  H13X19225   5.597   3.044  15.149 -0.2213  0.3543  2.0251
  159DOPC  H13Y19226   5.611   3.226  15.165  1.2416  0.5384 -0.1875
  159DOPC  C31419227   5.726   3.135  15.007  0.3235  0.4182  0.6445
  159DOPC  H14X19228   5.644   3.143  14.933  1.0851  0.6570 -0.1952
  159DOPC  H14Y19229   5.793   3.221  14.986  1.3395 -0.3140  0.7691
  159DOPC  C31519230   5.794   3.009  14.972  0.0071 -0.3871  0.3465
  159DOPC  H15X19231   5.889   2.992  15.026 -0.4903  0.5344  1.5848
  159DOPC  H15Y19232   5.831   3.015  14.868 -0.3385  0.3832  0.2584
  159DOPC  C31619233   5.708   2.884  14.996  0.4149 -0.6392 -0.3037
  159DOPC  H16X19234   5.686   2.871  15.104  0.7219 -0.5332 -0.2284
  159DOPC  H16Y19235   5.614   2.913  14.945  1.2110  2.1960 -0.3106
  159DOPC  C31719236   5.770   2.760  14.927  0.4378 -0.1140 -0.1986
  159DOPC  H17X19237   5.875   2.758  14.964  0.9390 -0.2738 -1.5528
  159DOPC  H17Y19238   5.725   2.672  14.979  1.2916  0.1067  0.9521
  159DOPC  C31819239   5.743   2.761  14.772 -0.2810  0.7023  0.0708
  159DOPC  H18X19240   5.795   2.847  14.725 -2.4783  0.8894 -2.1698
  159DOPC  H18Y19241   5.790   2.668  14.733  1.2494  0.7049  1.7451
  159DOPC  H18Z19242   5.635   2.755  14.747 -0.8295 -3.5779  2.3839
  160DOPC     N19243   0.876   1.756  16.020  0.1252  0.3092  0.0413
  160DOPC   C1219244   1.015   1.719  15.987 -0.7293  0.0720  0.1802
  160DOPC  H12A19245   1.090   1.763  16.051  1.3062 -1.4911 -0.9996
  160DOPC  H12B19246   1.045   1.774  15.899 -0.4235  2.1792  1.5242
  160DOPC   C1319247   0.776   1.700  15.921  0.7789  0.5081 -0.1416
  160DOPC  H13A19248   0.808   1.739  15.825  0.3025 -1.0629 -0.9566
  160DOPC  H13B19249   0.770   1.593  15.913 -3.2030  0.4959  0.9857
  160DOPC  H13C19250   0.677   1.737  15.942  0.6003  0.7013 -1.2450
  160DOPC   C1419251   0.858   1.913  16.026 -0.4806 -0.0556 -0.3634
  160DOPC  H14A19252   0.874   1.956  15.929  1.3366 -2.2870 -1.1218
  160DOPC  H14B19253   0.762   1.941  16.067 -0.0388 -0.0924  0.7301
  160DOPC  H14C19254   0.931   1.949  16.097  0.1115 -1.5669 -0.1848
  160DOPC   C1519255   0.840   1.697  16.153 -0.5537  0.3221  0.0673
  160DOPC  H15A19256   0.829   1.591  16.137 -0.0261  0.3019 -0.1869
  160DOPC  H15B19257   0.750   1.737  16.198 -0.6303  0.1285  0.0911
  160DOPC  H15C19258   0.924   1.721  16.216 -0.7825  0.3604  0.3628
  160DOPC   C1119259   1.056   1.573  15.957  0.1349  0.0303 -0.0803
  160DOPC  H11A19260   0.974   1.520  15.903  2.5168 -2.3614 -1.5912
  160DOPC  H11B19261   1.145   1.574  15.891  1.3841  2.7459  1.4737
  160DOPC     P19262   1.227   1.468  16.127 -0.4663 -0.1223  0.3058
  160DOPC   O1319263   1.220   1.417  16.266  0.0965  0.3246 -0.6284
  160DOPC   O1419264   1.323   1.585  16.110  0.5272 -0.5621  0.2291
  160DOPC   O1219265   1.080   1.506  16.080 -0.0663 -0.5494  0.5884
  160DOPC   O1119266   1.276   1.350  16.033 -0.2994 -0.0717 -0.0786
  160DOPC    C119267   1.204   1.228  16.032 -0.1071 -0.6731 -0.9857
  160DOPC    HA19268   1.208   1.181  15.931 -1.6723 -2.8771 -0.1122
  160DOPC    HB19269   1.095   1.242  16.051 -0.6372 -1.7424 -2.9120
  160DOPC    C219270   1.260   1.123  16.135 -0.0012  0.3846 -0.0608
  160DOPC    HS19271   1.278   1.176  16.231 -2.1110 -0.4955  0.8854
  160DOPC   O2119272   1.387   1.069  16.078 -0.0224 -0.0284 -0.7932
  160DOPC   C2119273   1.455   0.994  16.167 -0.3067  0.9101 -0.3119
  160DOPC   O2219274   1.432   0.987  16.286  0.0600  0.4661 -0.6550
  160DOPC   C2219275   1.581   0.942  16.102 -0.4332  0.2107  0.1409
  160DOPC   H2R19276   1.559   0.876  16.015  1.0143 -2.1585  1.4588
  160DOPC   H2S19277   1.631   0.869  16.170  3.8081  1.6067 -1.1479
  160DOPC    C319278   1.156   1.005  16.158 -0.0696  0.2199 -1.1543
  160DOPC    HX19279   1.079   1.041  16.230  0.9773 -0.5735  0.4170
  160DOPC    HY19280   1.211   0.924  16.211  0.4411  0.5269 -1.2066
  160DOPC   O3119281   1.099   0.956  16.039  0.0190 -0.0095  0.1139
  160DOPC   C3119282   1.131   0.827  16.003  0.0421  0.4515 -0.8700
  160DOPC   O3219283   1.199   0.749  16.069 -0.7469 -0.8222  0.0610
  160DOPC   C3219284   1.063   0.793  15.869 -0.5058 -0.0682 -0.1221
  160DOPC   H2X19285   0.953   0.810  15.872 -0.7930 -1.5534 -1.1956
  160DOPC   H2Y19286   1.113   0.852  15.790 -0.9780 -0.2813 -0.5807
  160DOPC   C2319287   1.686   1.055  16.087  0.1637 -0.2776 -0.0048
  160DOPC   H3R19288   1.706   1.108  16.182  1.2113  1.6339 -1.2005
  160DOPC   H3S19289   1.651   1.125  16.008  3.8177  0.7630 -0.9076
  160DOPC   C2419290   1.820   1.001  16.046  0.0488 -0.7823 -0.9367
  160DOPC   H4R19291   1.845   0.919  16.117 -0.5058 -0.8056 -0.7691
  160DOPC   H4S19292   1.897   1.081  16.053 -0.9027  0.0724 -0.0386
  160DOPC   C2519293   1.813   0.941  15.908 -0.3828 -0.8425 -0.1788
  160DOPC   H5R19294   1.748   1.007  15.847 -1.0024 -0.8190  0.5033
  160DOPC   H5S19295   1.760   0.844  15.911  3.3607 -3.0571  0.5711
  160DOPC   C2619296   1.942   0.918  15.837 -0.3170  0.7303 -0.2143
  160DOPC   H6R19297   2.005   0.849  15.896  2.1969  3.2131  0.2596
  160DOPC   H6S19298   1.989   1.018  15.826  0.9135  0.2473  0.4602
  160DOPC   C2719299   1.932   0.862  15.692 -0.1990  0.6148  0.1615
  160DOPC   H7R19300   1.856   0.918  15.634  0.8799  1.5962 -0.3408
  160DOPC   H7S19301   1.908   0.754  15.691  1.1970  0.2971 -0.5803
  160DOPC   C2819302   2.069   0.891  15.616 -0.8952 -0.6434  0.7834
  160DOPC   H8R19303   2.148   0.843  15.678  0.7980 -0.9576 -1.4927
  160DOPC   H8S19304   2.071   1.001  15.601 -3.3956 -0.3627  2.1161
  160DOPC   C2919305   2.065   0.814  15.487  0.3012  0.2795 -0.1304
  160DOPC   H9R19306   2.097   0.709  15.491  0.9728  0.5216  2.6988
  160DOPC  C21019307   1.996   0.858  15.378 -0.3588  0.6286  0.9844
  160DOPC  H10R19308   1.997   0.793  15.289 -1.0386 -2.2014  2.9267
  160DOPC  C21119309   1.937   0.995  15.354  0.0370  0.2003 -0.1203
  160DOPC  H11R19310   1.999   1.053  15.281  0.3322  1.2391  0.9297
  160DOPC  H11S19311   1.931   1.056  15.447 -3.4533 -2.4258  1.6005
  160DOPC  C21219312   1.795   0.984  15.297  0.5787 -0.5817 -0.1474
  160DOPC  H12R19313   1.738   1.078  15.313 -2.3158 -1.6323 -3.0492
  160DOPC  H12S19314   1.744   0.900  15.350 -0.8905  0.0827 -0.4426
  160DOPC  C21319315   1.795   0.949  15.149 -0.1639  0.1453 -0.3595
  160DOPC  H13R19316   1.851   0.855  15.127 -0.1454  0.3392 -1.1615
  160DOPC  H13S19317   1.845   1.021  15.081  0.7225 -0.8446 -0.7982
  160DOPC  C21419318   1.653   0.932  15.097  0.5517 -0.1603  0.3235
  160DOPC  H14R19319   1.583   1.007  15.139  1.0828 -1.2723  3.4834
  160DOPC  H14S19320   1.619   0.846  15.159  1.9497 -0.3183  0.9211
  160DOPC  C21519321   1.649   0.924  14.941  0.2015  0.2036 -0.0956
  160DOPC  H15R19322   1.713   0.837  14.917 -0.5987 -0.5569  0.4659
  160DOPC  H15S19323   1.684   1.020  14.897  0.0436 -0.0760 -0.8309
  160DOPC  C21619324   1.516   0.891  14.874 -0.6108 -0.4360 -0.8844
  160DOPC  H16R19325   1.479   0.794  14.915  0.1695 -0.2358  0.3544
  160DOPC  H16S19326   1.536   0.890  14.765 -1.7586  1.2729 -1.1536
  160DOPC  C21719327   1.411   0.996  14.906 -0.9646 -0.2488  0.4054
  160DOPC  H17R19328   1.440   1.091  14.856 -0.3794  0.5565  2.2030
  160DOPC  H17S19329   1.411   1.030  15.012 -0.3955  0.1159  0.2921
  160DOPC  C21819330   1.275   0.959  14.858 -0.0458 -0.0425 -0.1095
  160DOPC  H18R19331   1.255   0.856  14.896 -1.1047  0.3536  0.4517
  160DOPC  H18S19332   1.272   0.966  14.747 -0.5603  0.7637 -0.0567
  160DOPC  H18T19333   1.195   1.024  14.899 -0.6934 -1.0178  0.2116
  160DOPC   C3319334   1.098   0.651  15.817 -0.0946  0.0499 -0.2275
  160DOPC   H3X19335   1.023   0.588  15.870 -0.5953 -0.5013 -1.5357
  160DOPC   H3Y19336   1.199   0.621  15.853 -1.3533 -1.8476  2.0383
  160DOPC   C3419337   1.100   0.636  15.664  0.4346 -0.2205 -0.2064
  160DOPC   H4X19338   1.177   0.695  15.609  1.8425 -1.8465 -0.0476
  160DOPC   H4Y19339   1.006   0.679  15.623  0.7718  2.4261  1.5806
  160DOPC   C3519340   1.118   0.495  15.619 -0.5681  0.1515  0.5877
  160DOPC   H5X19341   1.038   0.424  15.651 -0.6720 -0.5029 -1.0569
  160DOPC   H5Y19342   1.214   0.462  15.664 -1.2703 -0.7775  1.4611
  160DOPC   C3619343   1.125   0.483  15.466 -0.8252 -0.1655 -0.1937
  160DOPC   H6X19344   1.206   0.542  15.417 -1.7601  0.2149 -1.3176
  160DOPC   H6Y19345   1.150   0.377  15.447 -0.5338 -0.4625  1.6974
  160DOPC   C3719346   0.993   0.513  15.402  0.2873  0.3050 -0.4813
  160DOPC   H7X19347   0.918   0.470  15.472  1.0358  0.6365  0.5425
  160DOPC   H7Y19348   0.978   0.622  15.412  2.1099  0.4842  0.8877
  160DOPC   C3819349   0.979   0.474  15.251  0.4676 -0.2004  0.8321
  160DOPC   H8X19350   0.951   0.562  15.189 -0.8651 -0.9355  0.3462
  160DOPC   H8Y19351   0.898   0.398  15.250 -0.4793  0.7673  1.4129
  160DOPC   C3919352   1.099   0.415  15.188 -0.0552 -0.2968 -0.0490
  160DOPC   H9X19353   1.104   0.305  15.192  0.2549 -0.3640 -1.5780
  160DOPC  C31019354   1.184   0.476  15.104  0.0299  0.5259 -0.9835
  160DOPC  H10X19355   1.281   0.425  15.089 -0.1995 -0.3763  0.3536
  160DOPC  C31119356   1.180   0.621  15.069  0.2438 -0.3264  0.4054
  160DOPC  H11X19357   1.080   0.640  15.024 -0.7590 -4.4107  0.5062
  160DOPC  H11Y19358   1.243   0.641  14.980 -2.0718  0.7990 -1.0878
  160DOPC  C31219359   1.222   0.716  15.182  0.4295 -0.5661  0.3464
  160DOPC  H12X19360   1.150   0.697  15.265 -2.9260  0.8209 -2.0001
  160DOPC  H12Y19361   1.197   0.821  15.154  2.3539  0.3904  1.9918
  160DOPC  C31319362   1.367   0.710  15.231  0.3330 -0.2500 -1.2409
  160DOPC  H13X19363   1.370   0.612  15.284  1.3446 -0.3806 -1.5237
  160DOPC  H13Y19364   1.442   0.711  15.150  0.9881 -1.0269 -0.6595
  160DOPC  C31419365   1.391   0.812  15.342 -0.5489 -0.3489 -0.2515
  160DOPC  H14X19366   1.430   0.910  15.306 -0.7624 -0.0128  0.4252
  160DOPC  H14Y19367   1.293   0.831  15.389 -0.4112 -1.2411  0.3994
  160DOPC  C31519368   1.496   0.771  15.456  0.1063 -0.1214  0.6193
  160DOPC  H15X19369   1.589   0.749  15.400 -1.5199  0.1240 -2.3844
  160DOPC  H15Y19370   1.452   0.678  15.499  0.2686 -0.0738  0.8907
  160DOPC  C31619371   1.504   0.878  15.575  0.5256  0.5508  0.3603
  160DOPC  H16X19372   1.571   0.840  15.655 -1.3826  0.2076  1.8810
  160DOPC  H16Y19373   1.548   0.971  15.534  0.0816  0.0616 -1.3071
  160DOPC  C31719374   1.370   0.898  15.642  0.2466 -0.0058 -0.0742
  160DOPC  H17X19375   1.295   0.953  15.582  0.5003  1.8089  1.1810
  160DOPC  H17Y19376   1.328   0.801  15.677 -0.6520  0.3514 -0.1348
  160DOPC  C31819377   1.385   0.988  15.767 -0.6393 -0.2336  0.0634
  160DOPC  H18X19378   1.289   1.039  15.791  0.3390  1.8888 -0.2553
  160DOPC  H18Y19379   1.414   0.923  15.852  0.1437 -1.3300 -1.0099
  160DOPC  H18Z19380   1.471   1.057  15.757 -0.2555 -0.8992 -1.4398
  161DOPC     N19381   3.261   2.082  16.668 -0.8566  0.2453 -0.4673
  161DOPC   C1219382   3.142   2.144  16.746  0.3209 -0.0350  0.2657
  161DOPC  H12A19383   3.166   2.247  16.764  1.9536 -0.3541  0.0767
  161DOPC  H12B19384   3.139   2.104  16.846  0.2842 -0.0115  0.2735
  161DOPC   C1319385   3.242   1.929  16.660  0.5215  0.0470 -0.4700
  161DOPC  H13A19386   3.256   1.886  16.758  0.5305  1.7948  0.3396
  161DOPC  H13B19387   3.140   1.902  16.636  1.0025 -1.7531 -0.5905
  161DOPC  H13C19388   3.307   1.881  16.589  0.0823 -0.7172 -0.3629
  161DOPC   C1419389   3.387   2.114  16.737 -0.5121 -0.0419 -0.3958
  161DOPC  H14A19390   3.398   2.066  16.833 -2.2469  1.2180  0.4917
  161DOPC  H14B19391   3.470   2.083  16.676  0.6422  0.9920  0.5856
  161DOPC  H14C19392   3.393   2.220  16.758 -1.5635  0.1635 -1.0491
  161DOPC   C1519393   3.268   2.139  16.537 -0.0421 -0.1689 -0.4091
  161DOPC  H15A19394   3.176   2.188  16.510 -0.7339 -1.3325 -0.2516
  161DOPC  H15B19395   3.287   2.062  16.464  0.4537 -0.9499  0.5161
  161DOPC  H15C19396   3.346   2.213  16.526 -0.1734  0.2398  1.2453
  161DOPC   C1119397   3.001   2.127  16.691 -0.3176  0.0783 -0.4697
  161DOPC  H11A19398   2.975   2.019  16.690 -0.3757  0.0867 -1.7563
  161DOPC  H11B19399   2.937   2.183  16.762 -0.4163  1.8055 -1.8403
  161DOPC     P19400   2.935   2.312  16.526 -0.2131  0.0862 -0.5307
  161DOPC   O1319401   3.042   2.405  16.568 -0.0396  0.4389  0.3693
  161DOPC   O1419402   2.800   2.330  16.582 -0.0166 -0.0771 -0.5462
  161DOPC   O1219403   2.987   2.171  16.553  0.3948 -0.3082 -0.1283
  161DOPC   O1119404   2.929   2.304  16.371 -0.8566 -0.1234  0.2408
  161DOPC    C119405   3.047   2.346  16.291  0.1450  0.1445 -0.0257
  161DOPC    HA19406   3.132   2.283  16.323  0.6590 -0.7871 -2.9075
  161DOPC    HB19407   3.081   2.449  16.314 -1.6007  1.0722 -1.3092
  161DOPC    C219408   3.015   2.343  16.142 -0.2256  0.1784 -0.6017
  161DOPC    HS19409   3.097   2.300  16.081 -0.9008 -1.0296 -0.6885
  161DOPC   O2119410   2.991   2.474  16.097  0.7593  0.1896 -0.5991
  161DOPC   C2119411   3.091   2.553  16.073  0.5678 -0.5598  0.0756
  161DOPC   O2219412   3.208   2.531  16.091  0.1583 -0.3768 -0.1404
  161DOPC   C2219413   3.029   2.684  16.017 -0.6019 -0.1444 -0.0814
  161DOPC   H2R19414   2.977   2.720  16.108 -0.3680  1.2793 -0.4914
  161DOPC   H2S19415   2.956   2.658  15.937 -0.9360 -2.5735  0.9303
  161DOPC    C319416   2.894   2.260  16.090  0.3583  0.6816  0.3577
  161DOPC    HX19417   2.801   2.308  16.127 -0.5895  0.2138 -1.3196
  161DOPC    HY19418   2.891   2.160  16.136 -2.2125 -0.6889 -2.4350
  161DOPC   O3119419   2.900   2.245  15.946  0.4277  0.0130  0.0866
  161DOPC   C3119420   2.790   2.204  15.894  0.3366  0.2662  0.1410
  161DOPC   O3219421   2.686   2.179  15.950 -0.2367  0.1386  0.5005
  161DOPC   C3219422   2.819   2.197  15.740 -0.7397 -0.2831  0.1252
  161DOPC   H2X19423   2.854   2.300  15.715  0.2903 -0.5120  0.5564
  161DOPC   H2Y19424   2.890   2.114  15.720 -2.5781 -1.5396 -1.5535
  161DOPC   C2319425   3.132   2.786  15.960  0.2542 -0.3763 -0.3558
  161DOPC   H3R19426   3.200   2.743  15.883 -0.6437 -1.9849 -0.2938
  161DOPC   H3S19427   3.191   2.814  16.050 -0.0726 -1.5525  0.2434
  161DOPC   C2419428   3.080   2.926  15.918  0.4593 -0.2695 -0.0834
  161DOPC   H4R19429   3.158   3.001  15.947  0.8973 -0.8270  0.1936
  161DOPC   H4S19430   2.990   2.947  15.980  0.9347 -1.8964  1.2419
  161DOPC   C2519431   3.048   2.941  15.771 -0.2902  0.0199 -0.4770
  161DOPC   H5R19432   2.982   2.855  15.751 -0.1843  0.2038 -1.6541
  161DOPC   H5S19433   3.139   2.929  15.708 -0.9184  2.4150 -1.9563
  161DOPC   C2619434   2.992   3.087  15.734 -0.5486  0.3181 -0.2350
  161DOPC   H6R19435   2.957   3.086  15.628 -2.7845 -0.6783  0.4492
  161DOPC   H6S19436   3.067   3.165  15.760 -0.3614  0.4476 -1.1182
  161DOPC   C2719437   2.868   3.130  15.818  0.0636  1.2166 -0.1439
  161DOPC   H7R19438   2.913   3.142  15.920  0.9483 -0.5269 -0.2961
  161DOPC   H7S19439   2.792   3.050  15.821  1.9031 -0.6078  1.5961
  161DOPC   C2819440   2.809   3.266  15.776 -0.4610  0.1601  1.0025
  161DOPC   H8R19441   2.725   3.302  15.840 -0.7503 -1.1628  1.3918
  161DOPC   H8S19442   2.747   3.235  15.689 -0.2508  1.6786  0.2697
  161DOPC   C2919443   2.903   3.386  15.758  1.0601  1.0145 -0.8942
  161DOPC   H9R19444   2.995   3.382  15.817 -0.2857  0.1830  1.2633
  161DOPC  C21019445   2.890   3.490  15.670 -0.8366 -0.3231 -0.3382
  161DOPC  H10R19446   2.963   3.572  15.670  1.4015 -2.2118 -0.4024
  161DOPC  C21119447   2.776   3.499  15.573  0.9341 -0.0316  0.0672
  161DOPC  H11R19448   2.722   3.403  15.558 -1.2158  1.0081  0.8093
  161DOPC  H11S19449   2.829   3.527  15.479 -0.3301  1.7015 -0.1714
  161DOPC  C21219450   2.667   3.610  15.599 -0.2679 -0.0242  0.7584
  161DOPC  H12R19451   2.659   3.628  15.708  0.1333  1.5328  0.5465
  161DOPC  H12S19452   2.575   3.561  15.559 -0.2081 -0.9731  1.7427
  161DOPC  C21319453   2.707   3.738  15.526 -0.3038  0.3045 -0.0922
  161DOPC  H13R19454   2.696   3.730  15.415 -3.7081 -0.7089  0.2147
  161DOPC  H13S19455   2.809   3.760  15.563 -0.4737 -0.0620  0.6100
  161DOPC  C21419456   2.610   3.848  15.578  0.1091 -0.2935  0.4320
  161DOPC  H14R19457   2.661   3.945  15.558  0.5113  0.0332  2.7877
  161DOPC  H14S19458   2.586   3.840  15.686 -0.6483 -0.5410  0.2465
  161DOPC  C21519459   2.464   3.844  15.515  0.6751 -0.1006  0.0101
  161DOPC  H15R19460   2.415   3.764  15.574  0.6417  0.2748  0.4939
  161DOPC  H15S19461   2.473   3.791  15.418  0.7859 -0.9877  0.4931
  161DOPC  C21619462   2.379   3.974  15.513  0.1673 -0.1452 -1.5565
  161DOPC  H16R19463   2.434   4.062  15.472  1.8084 -0.8993 -1.0715
  161DOPC  H16S19464   2.356   4.004  15.618  1.4578  0.5516 -1.4523
  161DOPC  C21719465   2.242   3.966  15.445 -0.8243  0.6105 -0.8525
  161DOPC  H17R19466   2.201   4.069  15.454  0.7155  1.2308 -0.5759
  161DOPC  H17S19467   2.176   3.888  15.489 -1.2878  1.2182 -0.4524
  161DOPC  C21819468   2.249   3.928  15.299  0.5336 -0.0140  0.1463
  161DOPC  H18R19469   2.151   3.948  15.252  0.9878  1.9095 -0.0694
  161DOPC  H18S19470   2.260   3.818  15.291  1.4182 -0.2585  3.3335
  161DOPC  H18T19471   2.329   3.969  15.233  0.6802 -1.3088 -0.5082
  161DOPC   C3319472   2.691   2.159  15.661 -0.5354  0.3795 -0.6849
  161DOPC   H3X19473   2.621   2.244  15.669  0.3030  1.1954 -1.8149
  161DOPC   H3Y19474   2.630   2.078  15.706 -0.0703  0.4970  0.1899
  161DOPC   C3419475   2.720   2.135  15.508 -0.1062 -0.1802 -0.4410
  161DOPC   H4X19476   2.763   2.032  15.508 -0.0156 -0.1776  1.3957
  161DOPC   H4Y19477   2.770   2.219  15.456 -2.3561  3.5498  2.8152
  161DOPC   C3519478   2.582   2.113  15.429  0.2240 -0.3608  0.5378
  161DOPC   H5X19479   2.525   2.208  15.435  0.8601  0.1833 -1.4105
  161DOPC   H5Y19480   2.518   2.029  15.465 -1.0356 -0.5357 -1.9246
  161DOPC   C3619481   2.604   2.080  15.281 -0.4770 -0.4981 -0.4433
  161DOPC   H6X19482   2.639   2.167  15.221 -0.8325 -0.0332  0.0173
  161DOPC   H6Y19483   2.674   1.994  15.267 -1.4222 -1.4630  0.5480
  161DOPC   C3719484   2.472   2.042  15.221  0.2716  0.1226  0.5563
  161DOPC   H7X19485   2.448   1.941  15.262 -1.6165 -0.2645 -1.3277
  161DOPC   H7Y19486   2.387   2.109  15.244 -1.5648 -1.6749 -0.6779
  161DOPC   C3819487   2.467   2.034  15.067 -0.6582  0.9819  0.1750
  161DOPC   H8X19488   2.470   2.132  15.016  0.1578  1.3250  0.8586
  161DOPC   H8Y19489   2.372   1.980  15.047 -1.6633  2.2034  1.4885
  161DOPC   C3919490   2.580   1.935  15.016  0.1118 -0.5459  0.4780
  161DOPC   H9X19491   2.587   1.863  15.099 -0.9631 -0.0016  1.0680
  161DOPC  C31019492   2.637   1.919  14.897 -0.3260  0.3872  0.4459
  161DOPC  H10X19493   2.705   1.833  14.889  0.1303  0.5591  2.0561
  161DOPC  C31119494   2.624   2.002  14.769 -0.6687 -0.4098  0.1976
  161DOPC  H11X19495   2.586   1.925  14.698  0.2953 -0.7803  0.0641
  161DOPC  H11Y19496   2.726   2.026  14.733 -0.7993 -1.0614 -0.6347
  161DOPC  C31219497   2.522   2.120  14.768  0.5310 -0.5235 -0.3530
  161DOPC  H12X19498   2.566   2.192  14.841 -0.4391  0.1605 -0.4381
  161DOPC  H12Y19499   2.428   2.084  14.814  1.1881 -0.2456  1.2907
  161DOPC  C31319500   2.506   2.178  14.629 -0.0551 -0.1252 -0.2756
  161DOPC  H13X19501   2.599   2.220  14.585 -0.2123 -1.4384 -1.9791
  161DOPC  H13Y19502   2.474   2.097  14.559 -0.3959  0.1430 -0.4300
  161DOPC  C31419503   2.416   2.299  14.624 -0.3415  0.4022 -0.7187
  161DOPC  H14X19504   2.310   2.274  14.643  0.3178 -1.4432  0.9107
  161DOPC  H14Y19505   2.443   2.367  14.708 -0.1666 -0.8004  0.2377
  161DOPC  C31519506   2.433   2.371  14.489 -0.1383  0.1190 -0.1877
  161DOPC  H15X19507   2.540   2.388  14.464 -0.0403  2.4745  1.5455
  161DOPC  H15Y19508   2.390   2.471  14.509  0.6459  0.0694  2.0137
  161DOPC  C31619509   2.367   2.301  14.370 -0.5406  0.6944  0.3067
  161DOPC  H16X19510   2.335   2.201  14.408  0.5265  0.6745  1.2230
  161DOPC  H16Y19511   2.269   2.345  14.340 -1.0100 -1.3827 -1.5025
  161DOPC  C31719512   2.452   2.290  14.245  0.0774  0.3473  0.1221
  161DOPC  H17X19513   2.546   2.235  14.265 -0.0733 -0.6770 -1.7510
  161DOPC  H17Y19514   2.395   2.230  14.170  0.8401 -0.4688  0.1707
  161DOPC  C31819515   2.481   2.430  14.191  0.0018  0.2105  1.1193
  161DOPC  H18X19516   2.542   2.411  14.100  1.0190  0.7705  1.6661
  161DOPC  H18Y19517   2.386   2.483  14.169  1.0061  0.6045 -2.9856
  161DOPC  H18Z19518   2.539   2.498  14.257  0.7468  0.6188  0.0676
  162DOPC     N19519   1.953   7.036  16.995 -0.6320  0.0541  0.1696
  162DOPC   C1219520   2.091   7.036  16.929 -0.2013  0.7250 -0.4449
  162DOPC  H12A19521   2.112   6.932  16.909  0.2258  0.8206 -0.4908
  162DOPC  H12B19522   2.169   7.076  16.992 -0.3647  3.0049 -1.5713
  162DOPC   C1319523   1.926   7.168  17.049  0.8040 -0.0644 -0.5815
  162DOPC  H13A19524   1.989   7.185  17.135  2.0949 -0.0885 -1.4825
  162DOPC  H13B19525   1.936   7.246  16.974  1.4508 -0.3210 -0.7628
  162DOPC  H13C19526   1.825   7.166  17.088  0.3618 -0.6155 -1.6940
  162DOPC   C1419527   1.959   6.948  17.122  0.5461 -0.2983  0.7746
  162DOPC  H14A19528   2.011   6.854  17.109 -1.1776 -1.0922 -0.8780
  162DOPC  H14B19529   2.016   6.998  17.199 -0.4827 -1.0626  2.0637
  162DOPC  H14C19530   1.859   6.922  17.152  0.2792 -1.7353 -1.1642
  162DOPC   C1519531   1.845   6.994  16.903  0.6856  0.6771  0.3886
  162DOPC  H15A19532   1.838   7.061  16.818  0.1492 -0.9111 -0.8904
  162DOPC  H15B19533   1.748   6.994  16.951 -0.4553  2.0534 -1.7391
  162DOPC  H15C19534   1.868   6.897  16.861  0.1651  0.3941  0.7480
  162DOPC   C1119535   2.107   7.117  16.798 -0.1266 -0.4808  0.1534
  162DOPC  H11A19536   2.067   7.217  16.827  0.9147 -0.2585  0.8636
  162DOPC  H11B19537   2.212   7.124  16.763 -0.4482 -0.9386 -0.9614
  162DOPC     P19538   2.056   6.938  16.607  0.3553  0.3410 -0.1033
  162DOPC   O1319539   1.919   6.882  16.577  0.5193  0.1521  1.0612
  162DOPC   O1419540   2.158   6.854  16.676 -0.8905  0.1433 -0.5304
  162DOPC   O1219541   2.026   7.072  16.688  0.2161 -0.2634  0.0657
  162DOPC   O1119542   2.124   6.986  16.470  0.2976  0.4804  0.2851
  162DOPC    C119543   2.216   7.092  16.464  0.1814  0.6494 -0.1094
  162DOPC    HA19544   2.311   7.068  16.517  1.0047 -0.2457 -1.8933
  162DOPC    HB19545   2.168   7.184  16.505  0.0523  0.6106 -0.1770
  162DOPC    C219546   2.280   7.114  16.319  0.0510  0.1804 -0.0575
  162DOPC    HS19547   2.361   7.188  16.338  1.0329 -0.8149 -0.2233
  162DOPC   O2119548   2.176   7.152  16.224 -0.6596 -0.1028 -0.4221
  162DOPC   C2119549   2.152   7.287  16.232 -0.2417  0.1125  0.0891
  162DOPC   O2219550   2.229   7.364  16.290 -0.1167 -0.2284 -0.0572
  162DOPC   C2219551   2.026   7.318  16.155 -0.2901 -0.1801 -0.3794
  162DOPC   H2R19552   1.944   7.258  16.200  1.3193 -2.2445 -0.0735
  162DOPC   H2S19553   2.050   7.283  16.053  1.1770  0.5626 -0.3247
  162DOPC    C319554   2.355   6.992  16.284  0.3176  1.1627  0.0007
  162DOPC    HX19555   2.287   6.906  16.262  0.6056  1.7857 -4.2341
  162DOPC    HY19556   2.405   6.956  16.376 -1.7691  0.7775  1.0481
  162DOPC   O3119557   2.442   6.995  16.166  0.4671  0.0425  0.1317
  162DOPC   C3119558   2.550   7.065  16.188 -0.1516 -0.3675  0.6516
  162DOPC   O3219559   2.601   7.105  16.291 -0.2775  0.0110  0.0346
  162DOPC   C3219560   2.612   7.089  16.047  0.3004 -0.3704  0.1015
  162DOPC   H2X19561   2.721   7.075  16.059  0.3466  0.0105  0.1388
  162DOPC   H2Y19562   2.576   7.013  15.975 -0.6982 -0.0303  0.2297
  162DOPC   C2319563   2.004   7.469  16.161  0.8383  0.3614 -0.4634
  162DOPC   H3R19564   2.065   7.519  16.083 -0.2989  0.2859 -1.4280
  162DOPC   H3S19565   2.046   7.511  16.254 -2.3277 -1.7310  2.1167
  162DOPC   C2419566   1.851   7.502  16.161  0.2372  0.2927  0.1275
  162DOPC   H4R19567   1.817   7.573  16.239  2.3863  1.6701 -0.1249
  162DOPC   H4S19568   1.787   7.414  16.186  0.5105  0.1152  0.2075
  162DOPC   C2519569   1.798   7.565  16.025 -0.3047  0.0688 -0.2495
  162DOPC   H5R19570   1.838   7.516  15.934 -0.2037  1.4062 -0.9500
  162DOPC   H5S19571   1.838   7.668  16.025  0.6590 -0.2842  0.9448
  162DOPC   C2619572   1.651   7.553  16.007  0.4319 -0.2261 -0.1346
  162DOPC   H6R19573   1.595   7.569  16.102  3.8711 -1.2096  2.2864
  162DOPC   H6S19574   1.641   7.444  15.987  2.3042 -0.1909 -1.5227
  162DOPC   C2719575   1.585   7.634  15.891 -0.1952 -0.3787 -1.0742
  162DOPC   H7R19576   1.630   7.734  15.877 -0.7923  0.4719  2.2497
  162DOPC   H7S19577   1.475   7.645  15.904 -0.2747 -0.6077 -1.5204
  162DOPC   C2819578   1.605   7.578  15.748 -0.8402 -0.3177  0.7209
  162DOPC   H8R19579   1.572   7.475  15.724  0.4797 -0.0658 -2.6046
  162DOPC   H8S19580   1.715   7.571  15.743 -0.6659 -0.6853  3.5383
  162DOPC   C2919581   1.569   7.665  15.626  0.7558  0.2889  0.4430
  162DOPC   H9R19582   1.594   7.771  15.643 -0.5278  0.5491  0.8306
  162DOPC  C21019583   1.509   7.624  15.513  0.4928  0.6032 -0.0651
  162DOPC  H10R19584   1.473   7.702  15.444  0.2319  1.1654  0.6980
  162DOPC  C21119585   1.463   7.483  15.474 -0.2553  1.0642  0.3179
  162DOPC  H11R19586   1.354   7.466  15.463 -0.0233 -0.6037  0.3187
  162DOPC  H11S19587   1.499   7.420  15.559  1.1943  2.7354  1.0118
  162DOPC  C21219588   1.516   7.442  15.336 -0.4533  0.5699  0.5355
  162DOPC  H12R19589   1.500   7.332  15.327 -0.0629  0.5641 -0.2109
  162DOPC  H12S19590   1.625   7.452  15.314 -0.5656  0.5321 -0.0684
  162DOPC  C21319591   1.437   7.505  15.225  0.3155  0.3312 -0.3956
  162DOPC  H13R19592   1.431   7.615  15.239 -0.8071  0.5692 -2.3105
  162DOPC  H13S19593   1.332   7.470  15.238  0.8413 -0.8031  0.9635
  162DOPC  C21419594   1.497   7.473  15.089  0.1786  1.0473  0.3434
  162DOPC  H14R19595   1.458   7.371  15.070  1.0361  0.5040  1.3763
  162DOPC  H14S19596   1.608   7.479  15.088  0.2442  0.0201  0.7273
  162DOPC  C21519597   1.442   7.568  14.985  0.0683 -0.2818  0.0629
  162DOPC  H15R19598   1.461   7.676  15.001  0.8945 -0.2255 -1.1742
  162DOPC  H15S19599   1.333   7.552  14.996  0.2836 -1.9944 -0.0596
  162DOPC  C21619600   1.473   7.529  14.841 -1.1667  0.3098 -0.2522
  162DOPC  H16R19601   1.421   7.595  14.768  0.5201  0.4649 -1.3862
  162DOPC  H16S19602   1.432   7.425  14.841 -0.5775  0.0010  2.4516
  162DOPC  C21719603   1.624   7.534  14.797 -0.6190  0.3993  0.2287
  162DOPC  H17R19604   1.630   7.478  14.701 -0.8114  1.3616 -0.3543
  162DOPC  H17S19605   1.675   7.471  14.873 -2.3235 -2.3091 -0.7341
  162DOPC  C21819606   1.687   7.668  14.791  0.0837  0.0108 -0.5700
  162DOPC  H18R19607   1.798   7.659  14.783  0.1838 -0.1961  0.8275
  162DOPC  H18S19608   1.677   7.724  14.887  3.0239  0.0528 -0.1988
  162DOPC  H18T19609   1.641   7.731  14.712 -1.4682  2.1885  1.9049
  162DOPC   C3319610   2.577   7.227  15.993 -0.0872 -0.4211  0.2266
  162DOPC   H3X19611   2.645   7.260  15.911 -1.8781 -2.4095 -2.2007
  162DOPC   H3Y19612   2.583   7.305  16.072 -0.3944  0.0676 -0.2261
  162DOPC   C3419613   2.441   7.238  15.932 -0.4217  0.5967  0.1556
  162DOPC   H4X19614   2.369   7.200  16.007  0.5210 -0.8089  0.3742
  162DOPC   H4Y19615   2.445   7.157  15.856 -0.7914 -0.8525  1.6494
  162DOPC   C3519616   2.408   7.366  15.864  0.1285 -0.2510 -0.1566
  162DOPC   H5X19617   2.479   7.388  15.782  0.4343  1.6344  0.5793
  162DOPC   H5Y19618   2.395   7.441  15.945 -0.7736  0.3534 -0.8350
  162DOPC   C3619619   2.279   7.355  15.785 -0.0620  0.1461  0.7976
  162DOPC   H6X19620   2.303   7.293  15.695 -0.8318  1.1316 -0.1167
  162DOPC   H6Y19621   2.211   7.294  15.848 -1.7020  1.1569  0.0725
  162DOPC   C3719622   2.217   7.486  15.734  0.2128 -0.0680  0.1782
  162DOPC   H7X19623   2.200   7.537  15.832 -1.1791 -2.3873  1.2295
  162DOPC   H7Y19624   2.288   7.539  15.667  0.8200 -3.7338 -2.3333
  162DOPC   C3819625   2.075   7.470  15.661 -0.2074  0.0055 -0.9588
  162DOPC   H8X19626   2.013   7.394  15.713  2.9318 -1.5732  0.7775
  162DOPC   H8Y19627   2.108   7.427  15.564  1.8880  0.5714 -0.5562
  162DOPC   C3919628   2.012   7.604  15.641  0.2365 -0.8334  0.1916
  162DOPC   H9X19629   1.971   7.651  15.731 -1.4356  0.0688 -0.9726
  162DOPC  C31019630   1.978   7.675  15.532  0.0860 -0.0231 -0.9532
  162DOPC  H10X19631   1.919   7.767  15.544  0.7578  0.4159 -0.9180
  162DOPC  C31119632   2.009   7.626  15.393  0.2936  0.6306  0.4760
  162DOPC  H11X19633   2.065   7.531  15.384  0.4955  0.6993  0.9907
  162DOPC  H11Y19634   2.064   7.705  15.337 -0.7322  1.2336  0.2932
  162DOPC  C31219635   1.876   7.603  15.309 -0.1202 -0.0264 -0.1735
  162DOPC  H12X19636   1.819   7.698  15.320  0.4242  0.3694 -0.6783
  162DOPC  H12Y19637   1.824   7.515  15.354 -0.3000 -0.4623 -1.2053
  162DOPC  C31319638   1.898   7.569  15.162  0.9806  0.2131  0.0301
  162DOPC  H13X19639   1.803   7.584  15.107  1.6664 -2.3648 -2.1096
  162DOPC  H13Y19640   1.975   7.642  15.128  0.6849  1.1018  1.2045
  162DOPC  C31419641   1.939   7.426  15.141 -0.4361 -0.1647  0.0936
  162DOPC  H14X19642   2.049   7.409  15.147 -0.3204  0.7414  0.7170
  162DOPC  H14Y19643   1.900   7.364  15.225  0.2138 -2.2108 -1.0470
  162DOPC  C31519644   1.882   7.362  15.013 -0.5861  0.2110  0.4788
  162DOPC  H15X19645   1.909   7.434  14.933 -2.2057  2.2732  1.7114
  162DOPC  H15Y19646   1.772   7.359  15.025 -0.5390  0.8957  1.1000
  162DOPC  C31619647   1.926   7.217  14.988  0.5683 -0.7733  0.0418
  162DOPC  H16X19648   2.037   7.216  14.982  0.6451  0.8468  0.7400
  162DOPC  H16Y19649   1.910   7.162  15.083  0.6268 -0.2463  0.3560
  162DOPC  C31719650   1.869   7.144  14.861  0.5921  1.4082  0.1725
  162DOPC  H17X19651   1.760   7.135  14.882  0.8336 -2.9705  0.3752
  162DOPC  H17Y19652   1.872   7.209  14.771 -0.7560 -1.1643 -1.8719
  162DOPC  C31819653   1.936   7.007  14.836  0.3804  0.0443 -0.1363
  162DOPC  H18X19654   1.895   6.932  14.906 -0.1896 -0.4262 -0.9594
  162DOPC  H18Y19655   1.912   6.978  14.731  0.0588  1.1064 -0.3705
  162DOPC  H18Z19656   2.045   7.020  14.850 -0.1640  2.3630  2.8769
  163DOPC     N19657   0.279   4.504  16.796  0.2450 -0.7478  0.0624
  163DOPC   C1219658   0.256   4.443  16.656 -0.1531 -0.0213 -0.2261
  163DOPC  H12A19659   0.304   4.512  16.589 -1.1087  0.8157 -0.0646
  163DOPC  H12B19660   0.149   4.438  16.638 -0.7022  2.3995  1.7648
  163DOPC   C1319661   0.426   4.514  16.820  0.1828  0.1859 -0.0201
  163DOPC  H13A19662   0.425   4.558  16.919  0.4927  2.6772 -1.0385
  163DOPC  H13B19663   0.469   4.415  16.824 -3.0550 -1.3618 -0.3712
  163DOPC  H13C19664   0.466   4.580  16.744 -0.0366 -0.0500 -0.3472
  163DOPC   C1419665   0.207   4.416  16.903 -0.2327 -0.0127 -0.7672
  163DOPC  H14A19666   0.192   4.478  16.990 -1.9402 -0.0283 -1.0122
  163DOPC  H14B19667   0.108   4.394  16.865 -1.1447  1.3514  0.6810
  163DOPC  H14C19668   0.270   4.331  16.924 -1.1434 -0.6010 -0.3320
  163DOPC   C1519669   0.227   4.638  16.814 -0.6502 -0.2167  0.0085
  163DOPC  H15A19670   0.252   4.669  16.915  0.2017 -0.7938 -0.0095
  163DOPC  H15B19671   0.119   4.628  16.814 -0.8809  1.5828 -2.2196
  163DOPC  H15C19672   0.257   4.705  16.736 -1.0536 -1.1383 -0.9612
  163DOPC   C1119673   0.318   4.301  16.626  0.1606  0.4176 -0.6079
  163DOPC  H11A19674   0.297   4.272  16.521  1.5876 -1.5148 -0.4019
  163DOPC  H11B19675   0.426   4.325  16.638  0.1816 -0.1635  0.4722
  163DOPC     P19676   0.145   4.124  16.707  0.0354 -0.0458  0.0659
  163DOPC   O1319677   0.036   4.225  16.704 -0.0122 -0.1911  0.6973
  163DOPC   O1419678   0.134   4.018  16.809  0.0855  0.4661 -0.0255
  163DOPC   O1219679   0.282   4.205  16.727  0.2195 -0.2461  0.3647
  163DOPC   O1119680   0.163   4.071  16.557 -0.1130  0.1180 -0.3170
  163DOPC    C119681   0.271   3.977  16.528  0.4581 -0.0346 -0.0458
  163DOPC    HA19682   0.228   3.874  16.524 -1.5622  0.7030  1.2630
  163DOPC    HB19683   0.356   3.983  16.599 -1.0289  0.3306  1.8232
  163DOPC    C219684   0.325   4.016  16.385  0.5015 -0.0222  0.4922
  163DOPC    HS19685   0.366   4.118  16.397 -1.9239  0.8149  2.3570
  163DOPC   O2119686   0.213   3.994  16.292  0.0772 -0.0664  0.1001
  163DOPC   C2119687   0.175   4.102  16.226  0.0784  0.2899  0.5633
  163DOPC   O2219688   0.211   4.216  16.246 -0.8956 -0.2015  0.0400
  163DOPC   C2219689   0.068   4.057  16.123  0.5476  0.0634  0.5722
  163DOPC   H2R19690   0.038   4.151  16.073  0.1350 -0.0736  0.5595
  163DOPC   H2S19691  -0.014   3.996  16.166 -0.6694 -0.3743 -2.1644
  163DOPC    C319692   0.445   3.928  16.347 -0.1248 -0.4069  0.1886
  163DOPC    HX19693   0.414   3.823  16.361 -1.3526 -0.4136 -2.0889
  163DOPC    HY19694   0.529   3.946  16.417 -0.9149  0.8688  0.8523
  163DOPC   O3119695   0.493   3.950  16.212  0.1597 -0.1998  0.1756
  163DOPC   C3119696   0.557   4.064  16.193 -0.1420 -0.0145  0.1966
  163DOPC   O3219697   0.566   4.151  16.275 -0.0245 -0.1622 -0.7436
  163DOPC   C3219698   0.617   4.064  16.052 -0.1393  0.5304  0.9339
  163DOPC   H2X19699   0.694   3.984  16.058  0.2774  0.7936 -0.4498
  163DOPC   H2Y19700   0.542   4.014  15.987 -1.0223  0.1137  2.2278
  163DOPC   C2319701   0.135   3.961  16.021 -0.5175  0.2698 -0.7254
  163DOPC   H3R19702   0.052   3.928  15.955 -1.0690  1.8451 -0.8542
  163DOPC   H3S19703   0.164   3.863  16.065  0.8113  0.0413 -2.0665
  163DOPC   C2419704   0.244   4.030  15.942 -0.3226  1.2408 -0.2578
  163DOPC   H4R19705   0.280   3.958  15.865 -0.0682 -0.2014  1.1547
  163DOPC   H4S19706   0.333   4.040  16.008 -0.4783 -0.9739  0.3706
  163DOPC   C2519707   0.201   4.161  15.872  0.0582  0.5091 -1.3670
  163DOPC   H5R19708   0.179   4.233  15.954  0.4739 -2.2024  1.2682
  163DOPC   H5S19709   0.110   4.144  15.811  0.9749 -1.1237 -2.3441
  163DOPC   C2619710   0.302   4.220  15.776  0.8785  0.4318  0.4465
  163DOPC   H6R19711   0.291   4.161  15.683  1.8895  0.2207  0.4475
  163DOPC   H6S19712   0.407   4.197  15.803  0.9994  0.6823  0.1974
  163DOPC   C2719713   0.271   4.369  15.749 -0.4850 -0.1954 -0.0725
  163DOPC   H7R19714   0.356   4.419  15.698 -1.0849  0.3219 -0.5862
  163DOPC   H7S19715   0.288   4.407  15.852  1.2141 -1.2762  0.0827
  163DOPC   C2819716   0.137   4.404  15.688 -0.0076  0.3115  1.1574
  163DOPC   H8R19717   0.116   4.507  15.722  0.4229  0.4899  0.8859
  163DOPC   H8S19718   0.065   4.329  15.726 -0.1341 -0.9578 -1.3663
  163DOPC   C2919719   0.142   4.403  15.537 -0.0413  0.3010 -0.4778
  163DOPC   H9R19720   0.207   4.485  15.502  1.9949 -0.1942  1.8003
  163DOPC  C21019721   0.071   4.333  15.448 -0.3591  0.8696 -0.0111
  163DOPC  H10R19722   0.115   4.338  15.347  1.1470  0.3820  0.5844
  163DOPC  C21119723  -0.032   4.217  15.469  0.4530  0.8775  0.1006
  163DOPC  H11R19724  -0.122   4.256  15.418 -0.5940 -0.3699  0.9483
  163DOPC  H11S19725  -0.048   4.192  15.576  3.1924  0.4372  0.4817
  163DOPC  C21219726   0.002   4.079  15.404 -0.0207  0.7427 -0.2937
  163DOPC  H12R19727   0.047   4.106  15.306 -0.3115  1.3460 -0.2631
  163DOPC  H12S19728  -0.090   4.020  15.385  0.7993 -0.6077 -0.1909
  163DOPC  C21319729   0.110   4.004  15.487 -0.2987 -0.8974  0.5060
  163DOPC  H13R19730   0.067   3.983  15.587 -1.5065 -1.0018 -0.0140
  163DOPC  H13S19731   0.204   4.063  15.491 -0.1781 -1.1132  0.9621
  163DOPC  C21419732   0.139   3.860  15.435 -0.1923  0.0432  0.1928
  163DOPC  H14R19733   0.037   3.815  15.427 -0.8151  0.8086  2.6427
  163DOPC  H14S19734   0.196   3.803  15.512 -1.5469  0.1393  1.3163
  163DOPC  C21519735   0.216   3.857  15.301  0.7333 -0.1068  0.3407
  163DOPC  H15R19736   0.320   3.895  15.313  0.3047  1.2326 -0.0215
  163DOPC  H15S19737   0.177   3.936  15.233  1.8799  0.5474  0.4083
  163DOPC  C21619738   0.192   3.729  15.212 -0.1752 -0.4769 -0.1360
  163DOPC  H16R19739   0.082   3.739  15.196 -0.4549 -1.0179  1.2531
  163DOPC  H16S19740   0.218   3.636  15.267 -1.2346 -0.8619 -0.2594
  163DOPC  C21719741   0.273   3.737  15.087 -0.1682  0.4338  0.3898
  163DOPC  H17R19742   0.236   3.824  15.029 -2.0742 -1.3624 -1.2832
  163DOPC  H17S19743   0.256   3.653  15.015  0.1072  2.2335 -1.8915
  163DOPC  C21819744   0.429   3.758  15.098 -0.7443  0.1693 -0.8352
  163DOPC  H18R19745   0.485   3.724  15.009 -2.8223 -0.2137 -2.0701
  163DOPC  H18S19746   0.466   3.707  15.189  2.3338  1.6706 -1.1176
  163DOPC  H18T19747   0.449   3.867  15.106 -0.0367 -0.0774  1.5578
  163DOPC   C3319748   0.661   4.197  15.984  0.3743  0.2713 -0.7434
  163DOPC   H3X19749   0.740   4.241  16.049 -2.7113  4.5342  0.5484
  163DOPC   H3Y19750   0.578   4.270  15.977 -0.2901 -0.4319 -0.3266
  163DOPC   C3419751   0.716   4.170  15.847 -0.0257  0.1406 -0.0072
  163DOPC   H4X19752   0.660   4.099  15.783  1.4735  1.0927 -2.5197
  163DOPC   H4Y19753   0.816   4.120  15.851 -0.4992 -0.8457 -0.1148
  163DOPC   C3519754   0.724   4.305  15.772 -0.1977  0.1766 -0.4586
  163DOPC   H5X19755   0.632   4.361  15.799  0.7217  1.1973  0.6369
  163DOPC   H5Y19756   0.728   4.288  15.662 -0.3753  0.2934 -0.4846
  163DOPC   C3619757   0.844   4.387  15.829 -0.5738 -0.5703  0.5672
  163DOPC   H6X19758   0.835   4.489  15.785  1.7742 -0.3837  0.4032
  163DOPC   H6Y19759   0.843   4.401  15.940  2.1744 -2.5826  0.9311
  163DOPC   C3719760   0.985   4.342  15.788  0.5122 -0.1276 -0.6441
  163DOPC   H7X19761   1.062   4.397  15.847  1.5949 -0.7701 -1.4276
  163DOPC   H7Y19762   0.992   4.241  15.832  1.2135 -0.5943 -1.8028
  163DOPC   C3819763   1.017   4.339  15.637  0.0307 -0.3807  0.5160
  163DOPC   H8X19764   0.940   4.272  15.594 -0.1872 -1.4828  2.4769
  163DOPC   H8Y19765   1.116   4.288  15.633 -1.7824 -4.4455  2.1356
  163DOPC   C3919766   1.031   4.473  15.587 -0.4303 -0.0403  0.6823
  163DOPC   H9X19767   1.111   4.535  15.631  1.1661  0.4759 -2.6117
  163DOPC  C31019768   0.962   4.540  15.487 -0.0786  0.5042 -0.6200
  163DOPC  H10X19769   0.983   4.646  15.462 -3.4648  0.7770 -3.0829
  163DOPC  C31119770   0.841   4.499  15.399 -0.5845 -0.4011 -0.9705
  163DOPC  H11X19771   0.759   4.566  15.431 -0.3910  0.0044 -1.3114
  163DOPC  H11Y19772   0.812   4.392  15.409 -0.8866 -0.3846 -1.5966
  163DOPC  C31219773   0.875   4.533  15.248 -0.2107  0.3341 -0.7045
  163DOPC  H12X19774   0.866   4.641  15.228 -1.4167  0.3348 -0.2552
  163DOPC  H12Y19775   0.801   4.473  15.191 -3.4413  3.4853 -0.1810
  163DOPC  C31319776   1.019   4.491  15.210  0.0993  0.2728  0.3884
  163DOPC  H13X19777   1.093   4.562  15.252  0.4043  1.2804 -1.7079
  163DOPC  H13Y19778   1.042   4.388  15.244 -0.2727  0.5676  1.5527
  163DOPC  C31419779   1.042   4.498  15.056  0.2048  0.2150 -0.0562
  163DOPC  H14X19780   1.000   4.591  15.011 -0.3132 -0.3557 -0.7996
  163DOPC  H14Y19781   1.153   4.503  15.052  0.3595 -1.9548 -0.1277
  163DOPC  C31519782   0.997   4.371  14.975  0.1132  0.1137  0.0572
  163DOPC  H15X19783   0.889   4.350  14.991  0.4288 -0.9355  0.9462
  163DOPC  H15Y19784   1.038   4.272  15.007 -0.0357  0.4841  1.4556
  163DOPC  C31619785   1.020   4.378  14.821  0.6589  0.4226 -0.6746
  163DOPC  H16X19786   0.960   4.457  14.770  0.3061  0.3228 -0.4181
  163DOPC  H16Y19787   1.126   4.409  14.816  1.4460 -1.3912  2.4886
  163DOPC  C31719788   0.997   4.245  14.751  0.0359  0.3195  0.2383
  163DOPC  H17X19789   1.036   4.170  14.822  2.9761  0.3024 -1.2366
  163DOPC  H17Y19790   0.894   4.213  14.728  0.0823  1.4340 -1.7448
  163DOPC  C31819791   1.075   4.234  14.624  0.1498 -0.2780 -0.2569
  163DOPC  H18X19792   1.059   4.130  14.588  0.0882  0.2261 -1.7551
  163DOPC  H18Y19793   1.039   4.306  14.547  1.9340  0.1706 -0.7059
  163DOPC  H18Z19794   1.182   4.263  14.634  0.4525 -0.3579 -2.6346
  164DOPC     N19795   1.406   2.481  16.471 -0.2226 -0.2257 -0.5417
  164DOPC   C1219796   1.347   2.393  16.356  0.3572 -0.0545  0.1342
  164DOPC  H12A19797   1.372   2.291  16.381  0.6967 -0.3484 -1.3310
  164DOPC  H12B19798   1.398   2.419  16.264 -2.9852 -2.1785 -2.5771
  164DOPC   C1319799   1.339   2.446  16.603  0.5387 -0.1269  0.0950
  164DOPC  H13A19800   1.234   2.424  16.589  0.6841 -0.6037 -0.2789
  164DOPC  H13B19801   1.385   2.358  16.646  0.4912 -0.4552 -0.5125
  164DOPC  H13C19802   1.357   2.528  16.671 -1.1420 -1.3908  2.2054
  164DOPC   C1419803   1.386   2.626  16.437  0.6670 -0.8354 -0.3480
  164DOPC  H14A19804   1.423   2.649  16.338  0.1738 -2.7033 -1.0225
  164DOPC  H14B19805   1.280   2.644  16.450  0.9854 -0.3684  2.1574
  164DOPC  H14C19806   1.439   2.693  16.502 -0.4401  0.2622 -0.5265
  164DOPC   C1519807   1.550   2.456  16.486 -0.1145 -0.2814  0.2943
  164DOPC  H15A19808   1.578   2.358  16.521  0.2179 -1.1812 -2.2385
  164DOPC  H15B19809   1.589   2.537  16.545 -0.9289  1.6519 -1.7016
  164DOPC  H15C19810   1.606   2.463  16.394  0.4766  0.2740  0.6962
  164DOPC   C1119811   1.193   2.415  16.331  0.0576  0.0311  0.1028
  164DOPC  H11A19812   1.142   2.374  16.420  1.9378 -1.0271  0.7528
  164DOPC  H11B19813   1.165   2.523  16.329 -0.1696  0.0171  1.6471
  164DOPC     P19814   1.089   2.199  16.230  0.0125 -0.0541  0.1724
  164DOPC   O1319815   0.953   2.205  16.279 -0.2327  0.2584  0.7355
  164DOPC   O1419816   1.180   2.116  16.312 -0.2040  0.0353 -0.2746
  164DOPC   O1219817   1.146   2.351  16.217  0.5586  0.3464 -0.4303
  164DOPC   O1119818   1.087   2.141  16.082  0.2732  0.4900 -0.1795
  164DOPC    C119819   1.085   2.246  15.980 -0.7945  0.1006  0.2781
  164DOPC    HA19820   1.176   2.310  15.977 -1.4895  1.0902 -0.9777
  164DOPC    HB19821   0.999   2.316  15.994 -1.5438 -0.1817 -2.3624
  164DOPC    C219822   1.051   2.183  15.844 -0.6406  0.1998  0.1268
  164DOPC    HS19823   0.970   2.109  15.865 -0.8681  0.1457 -0.8806
  164DOPC   O2119824   1.171   2.119  15.799 -0.7414  0.1752 -0.1998
  164DOPC   C2119825   1.159   1.998  15.752 -0.7747  0.1031  0.2428
  164DOPC   O2219826   1.055   1.937  15.749 -0.0906  0.9314 -0.4715
  164DOPC   C2219827   1.289   1.952  15.687  0.0076 -0.3175 -0.2322
  164DOPC   H2R19828   1.341   1.884  15.758  0.8984  1.4879  0.9246
  164DOPC   H2S19829   1.346   2.047  15.678  0.8583 -0.7287  0.6310
  164DOPC    C319830   1.006   2.294  15.743  0.3842  0.0889  0.2968
  164DOPC    HX19831   1.083   2.371  15.719 -0.5918  0.1708 -3.1034
  164DOPC    HY19832   0.923   2.355  15.786  2.4285  0.7485  3.7200
  164DOPC   O3119833   0.953   2.233  15.619 -1.0326  0.0340  0.0462
  164DOPC   C3119834   0.832   2.166  15.616 -0.2300 -0.2855 -0.2254
  164DOPC   O3219835   0.753   2.153  15.708 -0.4822 -0.2499 -0.1001
  164DOPC   C3219836   0.810   2.125  15.464 -0.1327  0.2019  0.3034
  164DOPC   H2X19837   0.785   2.221  15.415 -2.8549 -0.8087 -0.4373
  164DOPC   H2Y19838   0.904   2.073  15.435 -1.0357 -2.0585  1.1996
  164DOPC   C2319839   1.283   1.875  15.555  0.1005  0.8606 -0.0150
  164DOPC   H3R19840   1.225   1.781  15.558  0.5403  0.5851 -0.0388
  164DOPC   H3S19841   1.386   1.846  15.526 -0.5316 -0.6656 -0.8630
  164DOPC   C2419842   1.230   1.958  15.444  0.2882 -0.1932  0.3300
  164DOPC   H4R19843   1.264   2.063  15.431 -1.2182  0.3009  0.1533
  164DOPC   H4S19844   1.120   1.967  15.457  0.1116 -0.3320 -0.9759
  164DOPC   C2519845   1.250   1.877  15.311 -0.9405  0.5479 -0.3751
  164DOPC   H5R19846   1.246   1.771  15.344  1.0153 -0.1640 -2.2066
  164DOPC   H5S19847   1.347   1.884  15.257 -0.5568 -1.7527 -0.0883
  164DOPC   C2619848   1.138   1.894  15.211 -0.1755 -0.4599  0.2607
  164DOPC   H6R19849   1.121   2.004  15.212  0.9018 -0.2904  0.2410
  164DOPC   H6S19850   1.051   1.836  15.251  1.4672 -2.0149  1.7676
  164DOPC   C2719851   1.180   1.838  15.076 -0.4146  0.3548 -0.3553
  164DOPC   H7R19852   1.215   1.733  15.083 -0.5990  0.3538  0.6347
  164DOPC   H7S19853   1.262   1.900  15.032  0.4622 -0.1194  0.5582
  164DOPC   C2819854   1.065   1.825  14.976  0.2613 -0.2782  0.2194
  164DOPC   H8R19855   0.995   1.740  14.994  0.0720 -0.4633 -1.2552
  164DOPC   H8S19856   1.112   1.787  14.883 -1.1627  0.1262 -0.6989
  164DOPC   C2919857   0.988   1.955  14.962 -0.2199  0.3984 -0.0890
  164DOPC   H9R19858   0.942   1.983  15.057 -0.3432 -0.7523  0.2094
  164DOPC  C21019859   0.985   2.033  14.852  0.1508 -0.3584 -0.0976
  164DOPC  H10R19860   0.928   2.128  14.853  1.3814  0.4207  2.1588
  164DOPC  C21119861   1.057   2.009  14.728  0.1305  0.0104  0.2672
  164DOPC  H11R19862   0.990   1.995  14.641  1.2984 -0.3840 -0.6030
  164DOPC  H11S19863   1.125   1.922  14.743  0.4865  0.8102  4.2110
  164DOPC  C21219864   1.143   2.134  14.690  1.0132  0.2272  0.6313
  164DOPC  H12R19865   1.238   2.140  14.749  2.3661 -0.2243 -1.4151
  164DOPC  H12S19866   1.089   2.226  14.720  0.5802 -0.0327  0.6551
  164DOPC  C21319867   1.179   2.143  14.541 -0.5535  0.5761  0.9118
  164DOPC  H13R19868   1.192   2.251  14.518 -0.9664  0.4857  0.2315
  164DOPC  H13S19869   1.104   2.102  14.470 -0.8420  0.6196  1.1892
  164DOPC  C21419870   1.311   2.063  14.513  0.2820  0.0578 -0.3667
  164DOPC  H14R19871   1.284   1.959  14.540 -2.0894  0.8196  0.4482
  164DOPC  H14S19872   1.379   2.100  14.593 -1.3040  0.9733  0.6065
  164DOPC  C21519873   1.359   2.081  14.367  1.0197  0.0696 -0.9111
  164DOPC  H15R19874   1.391   2.187  14.353  0.5306  0.5135  1.0578
  164DOPC  H15S19875   1.282   2.046  14.295  0.0823 -0.0053  0.0993
  164DOPC  C21619876   1.476   1.995  14.327  0.0983 -0.0689  0.0509
  164DOPC  H16R19877   1.561   2.030  14.389  0.3339 -1.2341  0.4055
  164DOPC  H16S19878   1.502   2.010  14.220 -0.8677 -1.2813 -0.3783
  164DOPC  C21719879   1.468   1.848  14.343 -0.0450  0.4828 -0.4092
  164DOPC  H17R19880   1.377   1.809  14.293  0.3609 -0.8074 -0.1828
  164DOPC  H17S19881   1.457   1.826  14.451  0.9483 -1.2087 -0.6097
  164DOPC  C21819882   1.585   1.771  14.288 -0.0752  0.3343 -0.3861
  164DOPC  H18R19883   1.594   1.667  14.326 -1.1337  0.5720  0.5611
  164DOPC  H18S19884   1.680   1.821  14.316 -0.5635  1.4917 -0.7540
  164DOPC  H18T19885   1.578   1.780  14.178  1.7065 -2.0544 -0.7753
  164DOPC   C3319886   0.686   2.027  15.466  0.3670 -0.4998  0.5760
  164DOPC   H3X19887   0.686   2.004  15.357  1.2119 -1.4426  0.7653
  164DOPC   H3Y19888   0.591   2.085  15.470  0.3155 -0.5983  0.7891
  164DOPC   C3419889   0.710   1.884  15.515 -0.3825 -0.2621  0.2529
  164DOPC   H4X19890   0.634   1.819  15.467  0.2360  0.2510 -1.5122
  164DOPC   H4Y19891   0.689   1.872  15.623 -0.6185 -2.8086  0.0013
  164DOPC   C3519892   0.843   1.822  15.482 -0.0815  0.7932 -0.3145
  164DOPC   H5X19893   0.916   1.855  15.558  0.6759  0.3537 -0.8424
  164DOPC   H5Y19894   0.873   1.860  15.382  0.9609  1.1331  0.1234
  164DOPC   C3619895   0.837   1.668  15.466 -1.3728  0.5791 -0.1888
  164DOPC   H6X19896   0.776   1.640  15.378 -2.5095  0.6423  0.5507
  164DOPC   H6Y19897   0.942   1.634  15.454 -0.7027  2.6831 -0.7356
  164DOPC   C3719898   0.787   1.603  15.588 -0.0483  0.0134 -0.2274
  164DOPC   H7X19899   0.866   1.624  15.663 -0.7172  1.2009  0.1818
  164DOPC   H7Y19900   0.696   1.651  15.629  0.8767  1.7882 -0.1814
  164DOPC   C3819901   0.774   1.446  15.578  0.9759  0.5823 -0.5728
  164DOPC   H8X19902   0.880   1.414  15.569  0.8971  0.3993 -0.8642
  164DOPC   H8Y19903   0.731   1.416  15.480  2.0076 -0.3056 -0.7714
  164DOPC   C3919904   0.694   1.380  15.686  0.2435  0.0321 -0.0299
  164DOPC   H9X19905   0.591   1.416  15.696  0.2951 -0.2729  1.9277
  164DOPC  C31019906   0.746   1.305  15.784 -0.5866 -0.3591 -0.1073
  164DOPC  H10X19907   0.680   1.277  15.867  1.0164 -0.7019  1.0991
  164DOPC  C31119908   0.889   1.266  15.810  0.2851 -0.3615 -0.1875
  164DOPC  H11X19909   0.905   1.273  15.919  1.8469 -0.4164 -0.3967
  164DOPC  H11Y19910   0.957   1.346  15.773  0.1819 -0.6525 -1.0374
  164DOPC  C31219911   0.943   1.132  15.749  0.1126 -0.3413  0.2536
  164DOPC  H12X19912   0.881   1.052  15.794  0.0835 -0.9993 -0.9198
  164DOPC  H12Y19913   1.044   1.126  15.794 -0.1412  2.2078  1.3618
  164DOPC  C31319914   0.927   1.117  15.600  0.4772 -0.5066  0.5286
  164DOPC  H13X19915   0.824   1.137  15.562  0.8671  0.6969  0.0498
  164DOPC  H13Y19916   1.000   1.184  15.550  0.3782 -2.5472 -2.5740
  164DOPC  C31419917   0.964   0.967  15.559  0.1928 -0.3489 -0.3158
  164DOPC  H14X19918   0.890   0.901  15.609  2.8433 -1.6743  2.1370
  164DOPC  H14Y19919   1.057   0.934  15.609  0.1439  0.4618  0.3263
  164DOPC  C31519920   0.982   0.950  15.409  0.0771 -0.2338  1.0028
  164DOPC  H15X19921   1.015   0.847  15.382 -0.9214 -0.2567 -0.2466
  164DOPC  H15Y19922   1.066   1.015  15.377  1.0079 -1.8947 -0.0592
  164DOPC  C31619923   0.856   0.971  15.321  0.1510 -0.5300  0.3765
  164DOPC  H16X19924   0.785   0.889  15.346 -0.5238 -0.4263 -1.0808
  164DOPC  H16Y19925   0.804   1.067  15.339 -0.1845 -0.8218  0.9911
  164DOPC  C31719926   0.889   0.962  15.169  0.4736  0.0566  0.5064
  164DOPC  H17X19927   0.962   1.038  15.135  0.0273 -0.6663 -2.2637
  164DOPC  H17Y19928   0.922   0.858  15.146 -0.7404 -0.4460  0.9030
  164DOPC  C31819929   0.765   0.986  15.082 -0.4627 -0.4235  0.1336
  164DOPC  H18X19930   0.805   0.965  14.980 -0.7436  0.8208 -0.2521
  164DOPC  H18Y19931   0.697   0.903  15.107  0.2185 -1.6335 -1.7848
  164DOPC  H18Z19932   0.723   1.089  15.088 -1.4473 -0.8361  0.4435
  165DOPC     N19933   5.303   1.547  16.676  0.0801 -0.4831 -0.2839
  165DOPC   C1219934   5.430   1.568  16.594  0.2844 -0.0655  0.7546
  165DOPC  H12A19935   5.466   1.472  16.558  0.2869  0.0549  0.4336
  165DOPC  H12B19936   5.509   1.620  16.645  0.4736 -0.1775  0.5832
  165DOPC   C1319937   5.199   1.467  16.598 -0.1906  0.2306  0.1218
  165DOPC  H13A19938   5.188   1.513  16.502  0.2567  0.9602  0.4113
  165DOPC  H13B19939   5.242   1.369  16.583 -0.9930 -0.2279  0.7786
  165DOPC  H13C19940   5.105   1.451  16.649 -0.1874  1.7561  0.6524
  165DOPC   C1419941   5.245   1.680  16.716 -0.2596  0.8659  0.2751
  165DOPC  H14A19942   5.250   1.740  16.627 -0.3376 -0.3930 -0.5967
  165DOPC  H14B19943   5.147   1.654  16.754  0.5238 -1.2263  0.9729
  165DOPC  H14C19944   5.306   1.733  16.788 -0.3917  0.3700  0.7536
  165DOPC   C1519945   5.341   1.467  16.806 -0.2579 -0.7050 -0.6007
  165DOPC  H15A19946   5.253   1.477  16.867 -1.1562  1.1237 -2.0918
  165DOPC  H15B19947   5.436   1.499  16.847  1.1988 -2.7645 -2.1750
  165DOPC  H15C19948   5.359   1.364  16.780  1.5901 -0.6811  0.3729
  165DOPC   C1119949   5.410   1.652  16.464  0.2100  0.5069 -0.1255
  165DOPC  H11A19950   5.366   1.746  16.503  1.7222  0.4570  1.8145
  165DOPC  H11B19951   5.505   1.674  16.412  0.4005 -1.0103 -0.4714
  165DOPC     P19952   5.366   1.475  16.287  0.5565 -0.4210 -0.1281
  165DOPC   O1319953   5.257   1.386  16.252  0.5851  0.1392  0.3863
  165DOPC   O1419954   5.488   1.420  16.343  0.6576 -0.4144 -0.1049
  165DOPC   O1219955   5.312   1.585  16.381 -0.1489 -0.6015 -0.3703
  165DOPC   O1119956   5.413   1.560  16.166 -0.0585  0.9974  0.2917
  165DOPC    C119957   5.331   1.653  16.094 -0.4187  0.2824  0.3468
  165DOPC    HA19958   5.380   1.700  16.006  0.9011  0.5615  1.1997
  165DOPC    HB19959   5.315   1.738  16.162  3.7661 -0.9517  3.2777
  165DOPC    C219960   5.202   1.606  16.037  0.1414  0.3618  0.1851
  165DOPC    HS19961   5.170   1.522  16.103  0.9165  1.0611  1.4767
  165DOPC   O2119962   5.226   1.557  15.904 -0.0385 -0.1065 -0.1956
  165DOPC   C2119963   5.133   1.484  15.847 -0.5774 -1.1299  0.2930
  165DOPC   O2219964   5.028   1.443  15.893 -0.1959 -0.3978  0.1977
  165DOPC   C2219965   5.170   1.466  15.697 -0.2983  0.2095  0.1896
  165DOPC   H2R19966   5.209   1.363  15.688 -2.6605 -0.7265  0.1054
  165DOPC   H2S19967   5.255   1.531  15.666  0.5221 -1.2422 -0.7376
  165DOPC    C319968   5.094   1.717  16.043 -0.9290  0.3027  0.1191
  165DOPC    HX19969   5.088   1.746  16.151  0.0756 -1.8851  0.8037
  165DOPC    HY19970   4.994   1.684  16.008 -0.5574 -1.2503  0.4758
  165DOPC   O3119971   5.141   1.828  15.973  0.2734 -0.3167 -0.4007
  165DOPC   C3119972   5.065   1.934  15.981 -0.4282 -0.4034  0.9526
  165DOPC   O3219973   4.956   1.943  16.036  0.4226 -0.4645  0.4530
  165DOPC   C3219974   5.145   2.049  15.913 -0.0509 -0.1262  0.6285
  165DOPC   H2X19975   5.136   2.134  15.984  1.3870 -0.7416  1.5950
  165DOPC   H2Y19976   5.253   2.026  15.916  0.1169  0.6999  2.1384
  165DOPC   C2319977   5.050   1.488  15.606 -0.0534  0.4726  0.0949
  165DOPC   H3R19978   4.959   1.435  15.642 -0.2673  1.5190  1.1495
  165DOPC   H3S19979   5.058   1.446  15.504 -1.3757  0.7182 -0.1220
  165DOPC   C2419980   5.038   1.642  15.580  0.6034  0.2386 -0.9682
  165DOPC   H4R19981   5.134   1.688  15.547  1.1007  0.8446  1.1556
  165DOPC   H4S19982   5.014   1.693  15.676 -0.9001  1.8876 -2.1544
  165DOPC   C2519983   4.931   1.686  15.479 -0.5719 -0.0439  0.3217
  165DOPC   H5R19984   4.947   1.644  15.378  0.4186  0.0585  0.4282
  165DOPC   H5S19985   4.928   1.797  15.475 -0.1432  0.0257  1.6001
  165DOPC   C2619986   4.783   1.646  15.538 -0.3639 -0.9093  0.1037
  165DOPC   H6R19987   4.765   1.707  15.630  0.2135 -0.5938  0.0150
  165DOPC   H6S19988   4.787   1.543  15.579 -0.1450 -0.3508  1.5750
  165DOPC   C2719989   4.666   1.660  15.443  0.0237 -0.7273 -0.0483
  165DOPC   H7R19990   4.680   1.755  15.387 -1.4124 -1.2260 -1.3214
  165DOPC   H7S19991   4.569   1.676  15.496 -0.2515 -0.3311 -0.6528
  165DOPC   C2819992   4.633   1.543  15.352 -0.1936 -0.2570  0.1858
  165DOPC   H8R19993   4.613   1.458  15.421 -1.9832  0.0916  0.1462
  165DOPC   H8S19994   4.720   1.522  15.286 -0.4239  0.2887 -0.3043
  165DOPC   C2919995   4.513   1.584  15.266 -0.1171  1.0987 -0.0033
  165DOPC   H9R19996   4.441   1.646  15.321 -0.0659 -0.9785  2.6304
  165DOPC  C21019997   4.492   1.545  15.137  0.1638 -0.9292 -0.0503
  165DOPC  H10R19998   4.405   1.583  15.082 -1.7394 -0.8129  2.8378
  165DOPC  C21119999   4.566   1.432  15.069 -0.0451 -0.4341  0.1192
  165DOPC  H11R20000   4.565   1.345  15.137  1.1822  2.0001  3.5170
  165DOPC  H11S20001   4.663   1.467  15.027 -1.1711  1.6500 -0.9228
  165DOPC  C21220002   4.497   1.389  14.934  0.4091  0.0197 -0.4596
  165DOPC  H12R20003   4.504   1.476  14.866  1.8232  0.5344  0.2956
  165DOPC  H12S20004   4.388   1.379  14.952  0.8438 -0.5292  2.5016
  165DOPC  C21320005   4.563   1.263  14.885  0.5029  0.4819 -0.4624
  165DOPC  H13R20006   4.540   1.169  14.940  1.8652  1.1438  1.2869
  165DOPC  H13S20007   4.673   1.264  14.873  0.8325 -1.4561  1.7960
  165DOPC  C21420008   4.509   1.244  14.739 -0.8005 -0.5028 -0.2148
  165DOPC  H14R20009   4.554   1.327  14.681 -0.2618  1.2934  2.5906
  165DOPC  H14S20010   4.400   1.264  14.747 -1.0120 -1.4133 -0.6107
  165DOPC  C21520011   4.538   1.104  14.664  0.5626  0.1320 -0.1547
  165DOPC  H15R20012   4.483   1.031  14.728 -0.3391  0.7935 -0.1578
  165DOPC  H15S20013   4.637   1.058  14.645 -1.1257 -2.6910 -3.1850
  165DOPC  C21620014   4.469   1.104  14.525 -0.0697  0.1862 -0.0746
  165DOPC  H16R20015   4.544   1.153  14.459  1.6232 -2.8113 -0.5643
  165DOPC  H16S20016   4.370   1.154  14.532  0.3296  1.5760 -2.9762
  165DOPC  C21720017   4.435   0.961  14.468  0.7559 -0.1437 -0.4045
  165DOPC  H17R20018   4.361   0.914  14.537  1.2353  0.5487  0.6094
  165DOPC  H17S20019   4.534   0.910  14.467  0.3428 -0.9611 -0.4474
  165DOPC  C21820020   4.384   0.946  14.329 -0.1747  0.0022  0.2768
  165DOPC  H18R20021   4.402   0.845  14.287  0.2064  0.2324 -0.1194
  165DOPC  H18S20022   4.428   1.025  14.264  0.0128  1.1371  1.7320
  165DOPC  H18T20023   4.274   0.963  14.318  0.2169  0.7935 -4.0721
  165DOPC   C3320024   5.106   2.102  15.769  0.5777  0.1513 -0.1626
  165DOPC   H3X20025   5.163   2.197  15.767  1.0087 -0.0508  1.5460
  165DOPC   H3Y20026   5.000   2.130  15.747  0.2195 -2.6483 -2.7986
  165DOPC   C3420027   5.163   2.004  15.668  0.2851  0.3087 -0.5724
  165DOPC   H4X20028   5.111   1.908  15.688  2.4344 -1.1378 -1.4773
  165DOPC   H4Y20029   5.273   1.991  15.675  0.8133  2.2142 -3.5199
  165DOPC   C3520030   5.138   2.035  15.522 -0.3635  0.3206  0.1084
  165DOPC   H5X20031   5.029   2.051  15.512 -0.1684  0.3363 -2.4948
  165DOPC   H5Y20032   5.158   1.945  15.461  0.3839 -0.6810  1.7680
  165DOPC   C3620033   5.223   2.155  15.472 -0.2757  0.2500 -0.0829
  165DOPC   H6X20034   5.185   2.246  15.523 -2.1676  0.7077 -2.1419
  165DOPC   H6Y20035   5.331   2.141  15.494 -0.2587  1.0425  0.3954
  165DOPC   C3720036   5.195   2.173  15.325  0.1980  0.1362  0.6067
  165DOPC   H7X20037   5.213   2.283  15.320  3.9044 -0.3803 -0.7179
  165DOPC   H7Y20038   5.088   2.148  15.313  0.5518 -1.4187  0.5883
  165DOPC   C3820039   5.282   2.097  15.224 -0.0147 -0.3309 -0.5574
  165DOPC   H8X20040   5.275   1.987  15.234 -1.7388 -0.1271  1.0396
  165DOPC   H8Y20041   5.387   2.129  15.238 -0.8855  2.2277  0.8878
  165DOPC   C3920042   5.252   2.134  15.081 -0.4190  0.3953  0.2012
  165DOPC   H9X20043   5.223   2.239  15.070  2.4433  1.1712 -0.6982
  165DOPC  C31020044   5.265   2.051  14.983 -0.2967  0.5149  0.2132
  165DOPC  H10X20045   5.251   2.093  14.882  0.7362  1.0872  0.2871
  165DOPC  C31120046   5.310   1.912  14.979  0.2549  0.3636  0.0454
  165DOPC  H11X20047   5.353   1.886  15.077 -1.0366  4.4609  1.9252
  165DOPC  H11Y20048   5.405   1.905  14.922  2.1929  0.8681  3.0109
  165DOPC  C31220049   5.195   1.820  14.951  0.4810 -0.5926  0.0328
  165DOPC  H12X20050   5.118   1.860  14.882  0.4992  0.2950  0.5144
  165DOPC  H12Y20051   5.138   1.790  15.041  1.4742 -0.7943  0.6065
  165DOPC  C31320052   5.230   1.683  14.898  0.4881 -0.4346  0.7727
  165DOPC  H13X20053   5.302   1.697  14.814 -0.6612  0.4147 -0.0967
  165DOPC  H13Y20054   5.290   1.640  14.981  2.4764  0.5405 -0.0779
  165DOPC  C31420055   5.109   1.595  14.865  0.1707  0.4359  0.4321
  165DOPC  H14X20056   5.027   1.605  14.939 -1.7326 -1.5885 -1.2567
  165DOPC  H14Y20057   5.057   1.618  14.770 -0.0219 -2.9018 -0.3920
  165DOPC  C31520058   5.151   1.449  14.846  0.4108  0.5200 -0.2606
  165DOPC  H15X20059   5.224   1.421  14.924  1.4247  1.7094 -0.7621
  165DOPC  H15Y20060   5.208   1.428  14.753  1.5792  1.6337  0.1852
  165DOPC  C31620061   5.030   1.352  14.840 -0.0291 -0.3025  0.4615
  165DOPC  H16X20062   4.969   1.355  14.932 -0.7813 -0.4151 -0.0222
  165DOPC  H16Y20063   4.969   1.383  14.752 -1.3816 -1.2464  1.0280
  165DOPC  C31720064   5.071   1.211  14.806 -0.1054 -0.6234 -0.2576
  165DOPC  H17X20065   5.159   1.204  14.738 -0.0041 -1.2679 -0.0739
  165DOPC  H17Y20066   5.089   1.159  14.902 -1.0644  0.9691  0.8152
  165DOPC  C31820067   4.957   1.137  14.725 -0.6661 -0.0219 -0.3239
  165DOPC  H18X20068   4.972   1.027  14.718  3.5666  0.3148  0.9535
  165DOPC  H18Y20069   4.862   1.155  14.781 -1.1724  1.1867 -1.5053
  165DOPC  H18Z20070   4.943   1.189  14.628 -1.9517  0.7699  0.2580
  166DOPC     N20071   6.713   3.406  16.793  0.0067 -0.1140  0.6698
  166DOPC   C1220072   6.863   3.399  16.834 -0.6868  0.2639  0.3859
  166DOPC  H12A20073   6.898   3.298  16.818 -1.1956 -0.3220  2.6875
  166DOPC  H12B20074   6.871   3.416  16.940 -1.8125 -0.7416  0.6639
  166DOPC   C1320075   6.701   3.358  16.653  0.1713  0.1016 -0.0570
  166DOPC  H13A20076   6.599   3.359  16.618  0.2295 -2.3586 -0.4394
  166DOPC  H13B20077   6.763   3.411  16.582  0.2555  0.9862  0.6560
  166DOPC  H13C20078   6.740   3.258  16.651  0.0856  0.0770 -1.5359
  166DOPC   C1420079   6.667   3.545  16.802 -0.2439 -0.2260  0.0966
  166DOPC  H14A20080   6.564   3.548  16.770 -0.0361 -0.7404 -0.6587
  166DOPC  H14B20081   6.697   3.583  16.899  0.3923  0.3208 -0.3017
  166DOPC  H14C20082   6.727   3.604  16.734  0.5725 -1.3527 -0.1883
  166DOPC   C1520083   6.635   3.329  16.889 -0.5346  0.6798 -0.5388
  166DOPC  H15A20084   6.532   3.322  16.859 -0.5726  0.7027 -0.4091
  166DOPC  H15B20085   6.634   3.381  16.984 -2.6403  0.0255 -0.1663
  166DOPC  H15C20086   6.667   3.227  16.903 -0.1012  0.6073 -1.9260
  166DOPC   C1120087   6.960   3.495  16.762 -0.2782 -0.7804 -0.3507
  166DOPC  H11A20088   7.065   3.471  16.789  1.7268  2.1155 -4.5107
  166DOPC  H11B20089   6.949   3.470  16.655 -3.1929 -0.7044 -0.1439
  166DOPC     P20090   6.988   3.736  16.690  0.1504 -0.1501 -0.0052
  166DOPC   O1320091   7.100   3.671  16.617 -0.1423  0.1490  0.8100
  166DOPC   O1420092   7.021   3.859  16.772 -0.4611 -0.0802  0.7385
  166DOPC   O1220093   6.929   3.634  16.790  0.1807  0.0145 -0.0423
  166DOPC   O1120094   6.874   3.766  16.581 -0.3517 -0.9242 -0.1529
  166DOPC    C120095   6.841   3.674  16.472 -0.8246 -0.5965 -0.4342
  166DOPC    HA20096   6.731   3.666  16.464 -1.2301  1.7823  1.3922
  166DOPC    HB20097   6.904   3.583  16.477 -0.4558 -0.3514 -0.5167
  166DOPC    C220098   6.881   3.726  16.329  0.0015 -0.3433  0.2210
  166DOPC    HS20099   6.860   3.835  16.328 -3.0394 -0.8490  0.4254
  166DOPC   O2120100   6.814   3.642  16.231  0.1796  0.2065 -0.0109
  166DOPC   C2120101   6.692   3.686  16.206 -0.1141 -0.7814  0.3098
  166DOPC   O2220102   6.635   3.782  16.258 -0.0336 -0.1384  0.0588
  166DOPC   C2220103   6.642   3.601  16.089 -0.2126 -0.5502  0.8372
  166DOPC   H2R20104   6.633   3.503  16.141  2.5052 -1.0926  0.4657
  166DOPC   H2S20105   6.724   3.599  16.014 -0.3149 -2.2358  0.7270
  166DOPC    C320106   7.033   3.717  16.296  0.1789 -0.3604 -0.3032
  166DOPC    HX20107   7.061   3.610  16.290 -0.1306 -0.4447 -0.2299
  166DOPC    HY20108   7.082   3.765  16.384  0.1153  0.7016 -0.8357
  166DOPC   O3120109   7.062   3.776  16.168  0.5114  0.0452  0.1877
  166DOPC   C3120110   7.085   3.908  16.189 -0.4092 -0.3828 -0.3626
  166DOPC   O3220111   7.102   3.956  16.299  0.2166  0.0221  0.0501
  166DOPC   C3220112   7.090   3.987  16.063  0.1822 -1.0639  1.1419
  166DOPC   H2X20113   7.091   3.928  15.969 -0.2577 -1.5421  1.4355
  166DOPC   H2Y20114   7.002   4.054  16.067  1.4539  0.7152  0.4692
  166DOPC   C2320115   6.507   3.637  16.032  0.1567 -0.3030  0.0236
  166DOPC   H3R20116   6.434   3.640  16.116  0.5264  1.1492  0.3145
  166DOPC   H3S20117   6.484   3.561  15.954 -1.3812 -0.1589  0.2946
  166DOPC   C2420118   6.497   3.769  15.963 -0.0438 -0.5497 -0.0483
  166DOPC   H4R20119   6.497   3.849  16.040  0.0302 -0.2133 -0.3941
  166DOPC   H4S20120   6.395   3.772  15.917  0.1414 -1.8395 -0.5736
  166DOPC   C2520121   6.607   3.780  15.854  0.2196 -0.4210 -0.0212
  166DOPC   H5R20122   6.576   3.714  15.770 -2.0769 -0.5224  0.8346
  166DOPC   H5S20123   6.706   3.736  15.878  1.4598  0.5684 -2.9055
  166DOPC   C2620124   6.638   3.924  15.813 -0.2275  0.5348 -0.1852
  166DOPC   H6R20125   6.679   3.975  15.903  0.8519  0.6634 -0.7330
  166DOPC   H6S20126   6.546   3.984  15.799 -0.0819  0.3402 -2.2009
  166DOPC   C2720127   6.747   3.931  15.701  1.6219 -0.8107 -0.0714
  166DOPC   H7R20128   6.700   3.909  15.603  1.3920 -0.9533  0.0692
  166DOPC   H7S20129   6.826   3.862  15.735 -0.3641 -3.2266 -0.0490
  166DOPC   C2820130   6.796   4.073  15.685 -0.1610 -0.7420 -0.0327
  166DOPC   H8R20131   6.717   4.141  15.647  0.7141  0.3208 -0.0005
  166DOPC   H8S20132   6.869   4.067  15.602 -0.7683 -1.1630 -0.5424
  166DOPC   C2920133   6.868   4.146  15.796  0.4199 -0.1149  0.2073
  166DOPC   H9R20134   6.935   4.076  15.848 -2.3778 -1.9567  1.6076
  166DOPC  C21020135   6.842   4.273  15.851 -0.0323  0.4879  0.1941
  166DOPC  H10R20136   6.906   4.318  15.928  1.1624 -0.3091 -0.3027
  166DOPC  C21120137   6.736   4.369  15.799  0.9793  0.5545  0.9644
  166DOPC  H11R20138   6.655   4.381  15.874  1.2480 -1.1372  1.5510
  166DOPC  H11S20139   6.671   4.312  15.729  1.7825 -2.0886  2.2626
  166DOPC  C21220140   6.779   4.510  15.753 -0.2011 -0.3664 -0.2615
  166DOPC  H12R20141   6.847   4.563  15.822 -0.0861  0.6583 -1.1360
  166DOPC  H12S20142   6.690   4.576  15.752  0.0983  0.0446 -0.2457
  166DOPC  C21320143   6.838   4.505  15.607  0.2388 -0.2469 -0.3873
  166DOPC  H13R20144   6.765   4.465  15.534 -0.5497 -0.9974  0.7670
  166DOPC  H13S20145   6.924   4.435  15.610  1.2757  1.0028  1.0726
  166DOPC  C21420146   6.881   4.643  15.561 -0.2095 -0.2517  0.8499
  166DOPC  H14R20147   6.923   4.696  15.649 -0.7993 -1.9813  2.2335
  166DOPC  H14S20148   6.791   4.690  15.515 -0.2657 -0.4131  0.7967
  166DOPC  C21520149   6.991   4.639  15.451  0.1272  0.2597 -0.1545
  166DOPC  H15R20150   6.951   4.580  15.366 -1.5764  0.1968  0.6436
  166DOPC  H15S20151   7.084   4.594  15.493 -0.2976  0.3335  0.9017
  166DOPC  C21620152   7.018   4.784  15.403  0.6443 -0.1616  0.4403
  166DOPC  H16R20153   7.023   4.841  15.499  1.1149 -1.6724  1.3377
  166DOPC  H16S20154   6.937   4.833  15.344 -0.2339 -0.3908  1.4247
  166DOPC  C21720155   7.146   4.812  15.325 -0.2084 -0.1216 -0.3911
  166DOPC  H17R20156   7.238   4.783  15.380 -0.7516  0.7012  0.9811
  166DOPC  H17S20157   7.146   4.922  15.309 -2.1103 -0.3637 -2.7558
  166DOPC  C21820158   7.143   4.742  15.190  0.0220 -0.7292  0.5374
  166DOPC  H18R20159   7.240   4.761  15.138 -0.6764 -1.1955 -0.9930
  166DOPC  H18S20160   7.058   4.766  15.123  0.8287  1.4950  0.2275
  166DOPC  H18T20161   7.142   4.634  15.215  5.6298 -0.3923  3.9621
  166DOPC   C3320162   7.217   4.082  16.053 -0.3000  0.4969  0.0791
  166DOPC   H3X20163   7.307   4.019  16.045 -1.1237 -0.9278  1.5043
  166DOPC   H3Y20164   7.230   4.151  16.140 -1.0186 -1.1528  1.5535
  166DOPC   C3420165   7.207   4.166  15.927 -0.3012 -0.3683  0.1230
  166DOPC   H4X20166   7.295   4.233  15.939  0.4068 -1.0323 -1.1155
  166DOPC   H4Y20167   7.120   4.236  15.931 -0.5325 -0.6893  0.6748
  166DOPC   C3520168   7.217   4.093  15.790  0.3452  0.0667  0.5834
  166DOPC   H5X20169   7.142   4.014  15.770 -1.1894  1.5688  0.0907
  166DOPC   H5Y20170   7.316   4.045  15.784  0.4451  0.2772  0.5376
  166DOPC   C3620171   7.213   4.200  15.683 -0.3265 -0.6025 -0.0035
  166DOPC   H6X20172   7.108   4.209  15.650 -0.7793 -1.7286  1.0824
  166DOPC   H6Y20173   7.249   4.295  15.728 -0.7324 -1.0531  1.2990
  166DOPC   C3720174   7.286   4.156  15.556  0.2838 -0.1743 -0.2499
  166DOPC   H7X20175   7.395   4.138  15.571  0.3134  0.5372  0.4759
  166DOPC   H7Y20176   7.225   4.073  15.514  0.0299  0.3563 -0.9545
  166DOPC   C3820177   7.282   4.271  15.447  0.1459 -0.2992  0.3353
  166DOPC   H8X20178   7.345   4.237  15.363  0.0998  1.1026 -0.2982
  166DOPC   H8Y20179   7.324   4.368  15.481 -2.5842  1.0083  0.3230
  166DOPC   C3920180   7.148   4.305  15.395  0.6121 -0.5320 -0.3839
  166DOPC   H9X20181   7.089   4.376  15.456  1.1938 -0.3769 -0.0012
  166DOPC  C31020182   7.102   4.289  15.275  0.0067  0.0998 -0.2724
  166DOPC  H10X20183   6.996   4.317  15.262 -0.1831 -0.7703 -0.7043
  166DOPC  C31120184   7.165   4.216  15.164  1.2018 -0.4735  0.2013
  166DOPC  H11X20185   7.085   4.151  15.124  0.9339 -1.5789  2.3651
  166DOPC  H11Y20186   7.250   4.148  15.188  0.2767 -2.2315 -1.1992
  166DOPC  C31220187   7.213   4.304  15.051 -0.2999 -0.0329 -0.5719
  166DOPC  H12X20188   7.291   4.377  15.080 -1.9090  0.9468  1.5446
  166DOPC  H12Y20189   7.132   4.375  15.021 -1.2074 -0.9566 -0.3563
  166DOPC  C31320190   7.260   4.222  14.924 -0.5799  0.4573  0.3869
  166DOPC  H13X20191   7.349   4.170  14.965 -0.5971  0.9805  1.1127
  166DOPC  H13Y20192   7.175   4.156  14.895  0.0173 -0.7236  1.2590
  166DOPC  C31420193   7.303   4.315  14.803 -0.6298 -0.5882 -0.6934
  166DOPC  H14X20194   7.226   4.395  14.807 -0.7591 -0.7900  1.5363
  166DOPC  H14Y20195   7.390   4.381  14.825 -0.4159 -1.6001  1.7374
  166DOPC  C31520196   7.314   4.256  14.668  0.1643 -0.0429  0.5538
  166DOPC  H15X20197   7.288   4.327  14.587  0.8140 -0.4206 -0.0068
  166DOPC  H15Y20198   7.235   4.178  14.673 -1.1585  1.2936  1.1639
  166DOPC  C31620199   7.452   4.192  14.636  0.1865  0.0238 -0.2570
  166DOPC  H16X20200   7.475   4.131  14.726 -0.8336 -2.6833 -1.6994
  166DOPC  H16Y20201   7.440   4.133  14.542 -1.4608 -0.4159  0.1910
  166DOPC  C31720202   7.561   4.306  14.607  0.6565  0.3696 -0.1565
  166DOPC  H17X20203   7.525   4.378  14.531 -0.6220  0.7034  0.7273
  166DOPC  H17Y20204   7.567   4.367  14.700 -0.5800  0.2352  0.0394
  166DOPC  C31820205   7.707   4.258  14.584 -0.1333 -0.3978 -0.1375
  166DOPC  H18X20206   7.770   4.347  14.562  2.3306 -1.4446  2.1834
  166DOPC  H18Y20207   7.753   4.207  14.671 -1.2532 -0.4857  0.4180
  166DOPC  H18Z20208   7.714   4.192  14.495  3.3104  0.9472 -1.0186
  167DOPC     N20209   6.431   2.243  16.059  0.6755  0.1246 -0.3984
  167DOPC   C1220210   6.389   2.386  16.041  0.0606 -0.1681  0.4518
  167DOPC  H12A20211   6.282   2.387  16.026  0.2435 -0.9699 -1.0883
  167DOPC  H12B20212   6.439   2.424  15.954 -0.0670 -1.9253 -0.4416
  167DOPC   C1320213   6.580   2.246  16.089 -0.3157  0.0616 -0.2631
  167DOPC  H13A20214   6.613   2.143  16.091  0.2219  0.2237 -0.6969
  167DOPC  H13B20215   6.638   2.302  16.018  0.0288  0.6347  0.4567
  167DOPC  H13C20216   6.593   2.292  16.186 -2.0562  0.5110 -0.2185
  167DOPC   C1420217   6.411   2.171  15.928 -0.4509  0.0788  0.1482
  167DOPC  H14A20218   6.445   2.069  15.934 -0.4497  0.1211  0.9446
  167DOPC  H14B20219   6.306   2.173  15.903 -0.2189  1.0732 -0.8646
  167DOPC  H14C20220   6.466   2.221  15.849 -0.4009  1.3032  0.9325
  167DOPC   C1520221   6.358   2.171  16.166 -0.5358 -0.2905 -0.0669
  167DOPC  H15A20222   6.251   2.178  16.151 -0.5852  0.2492  0.4941
  167DOPC  H15B20223   6.393   2.206  16.262 -0.2820  2.6199 -1.1191
  167DOPC  H15C20224   6.375   2.065  16.171 -0.8128 -0.4597 -2.1080
  167DOPC   C1120225   6.412   2.479  16.162 -0.4769  0.1211 -0.0108
  167DOPC  H11A20226   6.517   2.467  16.195 -0.4460 -1.1497 -0.5309
  167DOPC  H11B20227   6.408   2.583  16.121  0.8903  0.0233 -0.4553
  167DOPC     P20228   6.170   2.494  16.245  0.4138 -0.0240 -0.0281
  167DOPC   O1320229   6.098   2.463  16.367  0.3707  0.0361  0.3232
  167DOPC   O1420230   6.121   2.413  16.134  0.2590 -0.1599  0.4138
  167DOPC   O1220231   6.317   2.455  16.262  0.2842 -0.3566 -0.3530
  167DOPC   O1120232   6.161   2.645  16.213  0.2061  0.1004 -0.0803
  167DOPC    C120233   6.038   2.715  16.203 -0.3440  0.0530  0.1959
  167DOPC    HA20234   6.058   2.824  16.200 -1.4573  0.2921  0.9451
  167DOPC    HB20235   5.977   2.698  16.294 -1.9600  0.5606 -0.7547
  167DOPC    C220236   5.949   2.681  16.074  0.8152 -0.5902  0.1986
  167DOPC    HS20237   5.896   2.588  16.106  0.2581 -0.6765 -0.9144
  167DOPC   O2120238   6.033   2.662  15.953  0.4150  0.5151 -0.5089
  167DOPC   C2120239   5.979   2.574  15.869  0.2538  0.0540  0.3335
  167DOPC   O2220240   5.873   2.511  15.883 -0.3418 -0.8963  0.2108
  167DOPC   C2220241   6.070   2.555  15.749  0.2836 -0.3373  0.5046
  167DOPC   H2R20242   6.149   2.481  15.776  0.2211 -0.1910  1.1023
  167DOPC   H2S20243   6.125   2.648  15.726  2.2327 -0.7072  3.1340
  167DOPC    C320244   5.848   2.790  16.044 -0.2729 -0.9784  0.0549
  167DOPC    HX20245   5.903   2.881  16.015 -0.7422 -0.5997  0.3382
  167DOPC    HY20246   5.807   2.812  16.145  1.2646 -0.7910  0.6710
  167DOPC   O3120247   5.751   2.757  15.938 -0.0562 -0.4191  0.0662
  167DOPC   C3120248   5.637   2.693  15.981  0.5322 -1.0789  0.3633
  167DOPC   O3220249   5.618   2.646  16.091  0.3266  0.2183 -0.0574
  167DOPC   C3220250   5.539   2.680  15.863  0.5289 -0.4531  0.3273
  167DOPC   H2X20251   5.508   2.783  15.834 -0.6049 -0.8683  0.0077
  167DOPC   H2Y20252   5.602   2.638  15.782  1.5367  0.6547  0.5045
  167DOPC   C2320253   5.986   2.517  15.619 -0.3216 -0.3935  0.0455
  167DOPC   H3R20254   5.889   2.571  15.616 -0.3494 -0.4847 -0.8912
  167DOPC   H3S20255   5.970   2.407  15.626 -0.5026 -0.2878  1.9850
  167DOPC   C2420256   6.059   2.555  15.487 -0.0991  0.1621 -0.2925
  167DOPC   H4R20257   6.157   2.502  15.488 -2.0074 -4.0163 -3.6596
  167DOPC   H4S20258   6.079   2.663  15.471  0.8267 -0.0850 -0.9370
  167DOPC   C2520259   5.988   2.501  15.366 -0.1961  0.4279  0.9787
  167DOPC   H5R20260   5.898   2.562  15.345 -0.4190 -0.0050  0.6687
  167DOPC   H5S20261   5.949   2.398  15.371  1.0395 -0.3194 -2.0679
  167DOPC   C2620262   6.087   2.511  15.252 -0.0471  0.0113 -0.2338
  167DOPC   H6R20263   6.160   2.429  15.266 -0.4608 -0.3015  0.1258
  167DOPC   H6S20264   6.124   2.615  15.239 -1.1256  0.8773  2.8415
  167DOPC   C2720265   6.022   2.472  15.117  0.6975  0.6106  0.4003
  167DOPC   H7R20266   5.942   2.545  15.094  0.4187 -0.6549 -3.2046
  167DOPC   H7S20267   5.962   2.379  15.131  0.0109  1.1343  1.0657
  167DOPC   C2820268   6.112   2.431  15.001  0.2093 -0.5797  0.2340
  167DOPC   H8R20269   6.133   2.326  15.030 -0.8229 -0.9484 -0.2893
  167DOPC   H8S20270   6.202   2.496  15.001  0.2992 -0.6905 -0.7825
  167DOPC   C2920271   6.042   2.439  14.871  0.2388 -0.1086 -0.0348
  167DOPC   H9R20272   5.991   2.535  14.853  0.0506  0.1504  1.7787
  167DOPC  C21020273   6.026   2.344  14.770  0.0858 -0.1235 -0.6870
  167DOPC  H10R20274   5.968   2.376  14.682 -1.3847  0.8017  0.5624
  167DOPC  C21120275   6.095   2.217  14.760 -0.2696  0.5126 -0.2228
  167DOPC  H11R20276   6.116   2.176  14.861 -1.2930 -0.0326 -0.2119
  167DOPC  H11S20277   6.193   2.216  14.707 -0.7832  1.7364 -1.2284
  167DOPC  C21220278   6.009   2.115  14.686  0.5644  0.0039 -0.2697
  167DOPC  H12R20279   6.036   2.013  14.720  0.9481  0.4831  0.9065
  167DOPC  H12S20280   5.902   2.126  14.713  1.2995  1.5992  2.3387
  167DOPC  C21320281   6.017   2.116  14.531  0.2155  0.2634 -0.0301
  167DOPC  H13R20282   6.121   2.088  14.506  0.1808 -0.1626  0.2879
  167DOPC  H13S20283   5.997   2.222  14.505  2.2042  1.6595  3.4702
  167DOPC  C21420284   5.919   2.018  14.458  0.2662  0.1140  0.4847
  167DOPC  H14R20285   5.815   2.025  14.495  0.3538  1.1845  0.5538
  167DOPC  H14S20286   5.948   1.910  14.465  1.6551  0.1357 -2.8594
  167DOPC  C21520287   5.911   2.055  14.305 -0.7954 -0.0130 -0.0064
  167DOPC  H15R20288   6.018   2.049  14.277 -0.0393  0.4153  2.5300
  167DOPC  H15S20289   5.883   2.161  14.288 -0.9637 -0.3094 -1.6955
  167DOPC  C21620290   5.829   1.958  14.221 -0.4136  0.6134  0.2656
  167DOPC  H16R20291   5.859   1.855  14.251  1.6078  1.0718 -0.0205
  167DOPC  H16S20292   5.838   1.968  14.110 -0.4663  1.6209  0.3412
  167DOPC  C21720293   5.678   1.963  14.249 -0.2482 -0.0623 -0.7079
  167DOPC  H17R20294   5.624   2.058  14.227  0.5243  0.2500 -1.2940
  167DOPC  H17S20295   5.664   1.954  14.359 -0.2432  1.2918 -0.5724
  167DOPC  C21820296   5.611   1.847  14.180 -0.1072  0.5551 -0.1464
  167DOPC  H18R20297   5.502   1.848  14.200 -0.3607  3.2508 -1.2736
  167DOPC  H18S20298   5.650   1.748  14.212  0.4731  0.3789 -1.3202
  167DOPC  H18T20299   5.627   1.853  14.070 -1.3013 -1.8710 -0.5290
  167DOPC   C3320300   5.412   2.605  15.915 -0.2888 -0.1638  0.5131
  167DOPC   H3X20301   5.351   2.685  15.962 -1.2609  0.2864 -1.4016
  167DOPC   H3Y20302   5.434   2.513  15.972  0.8913 -1.3991 -1.7959
  167DOPC   C3420303   5.334   2.552  15.791  0.3647 -0.0426 -0.6670
  167DOPC   H4X20304   5.401   2.473  15.750  0.3872 -0.5919  0.3925
  167DOPC   H4Y20305   5.327   2.635  15.718 -1.3020 -0.5335 -1.1173
  167DOPC   C3520306   5.197   2.497  15.828 -0.0741 -0.4590  0.9081
  167DOPC   H5X20307   5.151   2.556  15.910 -0.7751 -0.3084  0.4131
  167DOPC   H5Y20308   5.200   2.390  15.858 -0.7766 -0.3352  1.4383
  167DOPC   C3620309   5.100   2.500  15.712  0.2177  0.1991  0.1544
  167DOPC   H6X20310   5.108   2.604  15.673 -0.5391  0.9357  1.8996
  167DOPC   H6Y20311   5.145   2.439  15.630 -0.0317  2.5093 -1.7891
  167DOPC   C3720312   4.965   2.452  15.756  0.2613 -0.1249  0.0956
  167DOPC   H7X20313   4.981   2.361  15.817 -2.6732 -0.2029  0.8599
  167DOPC   H7Y20314   4.919   2.522  15.828  0.5088  1.8566 -1.5488
  167DOPC   C3820315   4.869   2.428  15.637 -0.2350  0.0820  0.0282
  167DOPC   H8X20316   4.776   2.379  15.673 -1.8048  1.2482 -2.1942
  167DOPC   H8Y20317   4.915   2.342  15.585  2.0201  1.0584  0.2879
  167DOPC   C3920318   4.845   2.555  15.556  0.1969 -0.2507 -0.1788
  167DOPC   H9X20319   4.831   2.650  15.609 -1.4462  0.4372 -1.7323
  167DOPC  C31020320   4.837   2.556  15.422 -0.3650 -0.4340  0.0135
  167DOPC  H10X20321   4.819   2.655  15.378  1.3329 -0.4612 -0.8374
  167DOPC  C31120322   4.864   2.441  15.333  0.0876 -0.9187 -0.4726
  167DOPC  H11X20323   4.762   2.399  15.318 -0.3566 -0.0767  0.1120
  167DOPC  H11Y20324   4.939   2.369  15.373  0.9962 -0.9476 -2.1406
  167DOPC  C31220325   4.909   2.481  15.189  0.0845 -0.2261 -0.8387
  167DOPC  H12X20326   5.006   2.533  15.199  1.4157 -2.5863 -0.8350
  167DOPC  H12Y20327   4.831   2.547  15.145  1.2319  0.6608 -1.5974
  167DOPC  C31320328   4.949   2.363  15.105  0.0920 -0.1075  1.0923
  167DOPC  H13X20329   4.953   2.400  15.001  2.7021 -0.9288  0.8083
  167DOPC  H13Y20330   5.056   2.339  15.127  1.4792  2.9436 -1.5363
  167DOPC  C31420331   4.848   2.248  15.102 -0.4737 -0.1832  0.1688
  167DOPC  H14X20332   4.856   2.201  15.202 -3.3360  0.6043  0.8457
  167DOPC  H14Y20333   4.748   2.293  15.085 -0.2277 -0.2790 -1.6923
  167DOPC  C31520334   4.882   2.132  15.007 -0.2799 -1.1091  0.1762
  167DOPC  H15X20335   4.983   2.093  15.031  0.2085  0.4225  0.7593
  167DOPC  H15Y20336   4.883   2.183  14.909  1.5276  0.9791  1.1924
  167DOPC  C31620337   4.780   2.014  15.013  0.0037 -0.4089 -0.8564
  167DOPC  H16X20338   4.676   2.051  15.028 -0.4743 -0.0653 -4.2384
  167DOPC  H16Y20339   4.791   1.955  14.920 -0.2677  0.4549 -1.4536
  167DOPC  C31720340   4.822   1.917  15.134  0.2352 -0.7775  0.1281
  167DOPC  H17X20341   4.932   1.921  15.120  0.0275 -1.1531 -1.8220
  167DOPC  H17Y20342   4.782   1.952  15.232 -1.8242 -2.2972 -0.0949
  167DOPC  C31820343   4.772   1.774  15.119 -0.1225  0.2296  0.0433
  167DOPC  H18X20344   4.671   1.765  15.074  0.0247  3.6819 -1.2698
  167DOPC  H18Y20345   4.843   1.721  15.051 -1.4431 -1.3184 -0.1910
  167DOPC  H18Z20346   4.782   1.720  15.215  0.3698  0.5421  0.1726
  168DOPC     N20347   1.490   1.581  16.409 -0.7937 -0.6375 -0.0748
  168DOPC   C1220348   1.558   1.600  16.271  0.6607 -0.3046 -0.3009
  168DOPC  H12A20349   1.486   1.557  16.203 -1.7904  0.9797  1.3426
  168DOPC  H12B20350   1.644   1.535  16.263  0.6995 -0.1401 -1.3724
  168DOPC   C1320351   1.364   1.656  16.397  1.4091 -0.1632  0.1789
  168DOPC  H13A20352   1.321   1.628  16.302  1.3665 -1.3174  0.5210
  168DOPC  H13B20353   1.296   1.644  16.481 -0.3604 -0.3621 -1.2137
  168DOPC  H13C20354   1.387   1.761  16.397 -0.6139  0.3514  1.8947
  168DOPC   C1420355   1.573   1.634  16.527 -0.2727  0.0112  0.6080
  168DOPC  H14A20356   1.591   1.736  16.498 -0.9155 -0.0290  0.0473
  168DOPC  H14B20357   1.520   1.643  16.621 -2.2004  0.9322 -0.5109
  168DOPC  H14C20358   1.660   1.574  16.549  1.1688  1.0490 -1.8907
  168DOPC   C1520359   1.460   1.440  16.432 -0.2145 -0.1031 -0.4584
  168DOPC  H15A20360   1.389   1.399  16.362 -0.2663 -1.6179  0.4334
  168DOPC  H15B20361   1.414   1.441  16.530  1.2438 -1.1170  0.2815
  168DOPC  H15C20362   1.551   1.380  16.433 -0.6805 -0.8226 -0.3424
  168DOPC   C1120363   1.588   1.745  16.225 -0.3069 -0.4787 -0.2832
  168DOPC  H11A20364   1.619   1.741  16.118  2.3979  0.0318  0.4129
  168DOPC  H11B20365   1.494   1.803  16.232  0.0681  0.1084  0.0039
  168DOPC     P20366   1.843   1.781  16.267 -0.2104  0.1972  0.4412
  168DOPC   O1320367   1.870   1.643  16.215 -0.1296 -0.3354  0.1759
  168DOPC   O1420368   1.923   1.825  16.385  0.3878  0.3290  0.3985
  168DOPC   O1220369   1.686   1.799  16.304 -0.2850 -0.2541 -0.3084
  168DOPC   O1120370   1.882   1.877  16.148 -0.2875 -0.1654  1.0554
  168DOPC    C120371   1.872   2.016  16.152 -0.1575  0.3360 -0.8053
  168DOPC    HA20372   1.969   2.069  16.139 -0.6285  2.3943  2.6565
  168DOPC    HB20373   1.837   2.054  16.251  4.1778  1.4576  0.5068
  168DOPC    C220374   1.769   2.072  16.042  0.2242 -0.4181  0.9359
  168DOPC    HS20375   1.666   2.038  16.065 -0.4504 -0.9504 -2.3537
  168DOPC   O2120376   1.799   2.025  15.907  0.4332  0.1547  0.0848
  168DOPC   C2120377   1.725   1.929  15.856 -0.5733 -0.2064 -0.0982
  168DOPC   O2220378   1.635   1.866  15.905 -0.2280  0.1053 -0.2686
  168DOPC   C2220379   1.785   1.900  15.710  0.2956 -0.4617 -0.5635
  168DOPC   H2R20380   1.847   1.808  15.715 -0.1722 -0.8409 -1.5522
  168DOPC   H2S20381   1.859   1.978  15.684  0.4529 -0.1660  0.6871
  168DOPC    C320382   1.765   2.231  16.060  0.2142  0.1723  0.0566
  168DOPC    HX20383   1.868   2.272  16.065  0.9280 -1.3396 -1.2435
  168DOPC    HY20384   1.715   2.252  16.157 -0.3455  1.0068 -0.4054
  168DOPC   O3120385   1.694   2.295  15.953 -0.0289  0.2631  0.1326
  168DOPC   C3120386   1.560   2.286  15.963 -0.5411  0.4697 -0.1697
  168DOPC   O3220387   1.499   2.231  16.058 -0.2161 -0.2210  0.3439
  168DOPC   C3220388   1.487   2.344  15.844  0.6427 -0.1498 -0.5233
  168DOPC   H2X20389   1.385   2.301  15.856 -0.0594  1.1510 -1.5298
  168DOPC   H2Y20390   1.488   2.456  15.845 -1.3736 -0.0987 -0.1243
  168DOPC   C2320391   1.678   1.884  15.598  0.0569 -0.0768  0.0578
  168DOPC   H3R20392   1.623   1.979  15.585  1.5673  1.1302  1.8789
  168DOPC   H3S20393   1.602   1.811  15.632  1.0035 -1.2293 -0.2167
  168DOPC   C2420394   1.745   1.834  15.462 -0.1919  0.4022  0.7472
  168DOPC   H4R20395   1.759   1.725  15.477  0.6459  0.6921  2.2262
  168DOPC   H4S20396   1.845   1.877  15.437 -0.6630 -0.6198 -3.7996
  168DOPC   C2520397   1.647   1.844  15.352 -0.1154 -0.8064  0.4143
  168DOPC   H5R20398   1.621   1.951  15.337  1.2644 -0.5040  0.0263
  168DOPC   H5S20399   1.549   1.799  15.380 -0.1447 -1.8265 -1.1910
  168DOPC   C2620400   1.690   1.779  15.221  0.1758 -0.4036  0.4073
  168DOPC   H6R20401   1.676   1.669  15.228 -3.3930 -0.1930 -1.1248
  168DOPC   H6S20402   1.796   1.807  15.202  0.4684  0.7141  3.1529
  168DOPC   C2720403   1.603   1.833  15.107 -0.3358  0.3120  0.2262
  168DOPC   H7R20404   1.603   1.944  15.102  2.4834  0.3542 -0.9722
  168DOPC   H7S20405   1.495   1.807  15.107  0.1760 -2.1118 -0.4651
  168DOPC   C2820406   1.663   1.787  14.966  0.3713 -0.5446  0.1263
  168DOPC   H8R20407   1.650   1.677  14.954 -1.4462 -0.4241  0.7574
  168DOPC   H8S20408   1.769   1.810  14.991  0.1581  1.7126 -0.8057
  168DOPC   C2920409   1.635   1.864  14.839  0.0802  0.5549 -0.5565
  168DOPC   H9R20410   1.720   1.927  14.811  0.3959  1.4265  2.0771
  168DOPC  C21020411   1.535   1.847  14.751 -0.3076 -0.1042 -0.1425
  168DOPC  H10R20412   1.532   1.917  14.666  0.7401  1.4820  1.0557
  168DOPC  C21120413   1.418   1.756  14.784 -0.1896 -0.3303 -0.3817
  168DOPC  H11R20414   1.327   1.812  14.814  0.4367 -1.1720  3.7249
  168DOPC  H11S20415   1.434   1.701  14.879  0.1799  2.0098  0.9985
  168DOPC  C21220416   1.378   1.653  14.678 -0.1295 -0.1599  0.4108
  168DOPC  H12R20417   1.467   1.599  14.639  1.4991 -0.4815  4.1400
  168DOPC  H12S20418   1.331   1.714  14.598 -1.3576 -1.9516 -0.2975
  168DOPC  C21320419   1.278   1.555  14.740 -0.4297  0.3902  0.5625
  168DOPC  H13R20420   1.204   1.620  14.793 -0.6145  1.1636 -0.6048
  168DOPC  H13S20421   1.333   1.491  14.812  1.6378 -2.2630 -3.0665
  168DOPC  C21420422   1.210   1.469  14.633 -0.2521 -0.4558 -0.3967
  168DOPC  H14R20423   1.147   1.406  14.700  0.8684 -0.4660  0.6696
  168DOPC  H14S20424   1.292   1.415  14.582 -1.1385  0.4877 -2.9660
  168DOPC  C21520425   1.126   1.556  14.531  0.2345  0.0767  0.0975
  168DOPC  H15R20426   1.074   1.477  14.472  1.2079  0.5374 -1.4380
  168DOPC  H15S20427   1.181   1.616  14.455 -1.6227 -0.3530 -1.6837
  168DOPC  C21620428   1.016   1.645  14.602 -0.5178  0.3646  0.6621
  168DOPC  H16R20429   1.070   1.733  14.640  0.8400 -0.7212  1.3360
  168DOPC  H16S20430   0.978   1.584  14.687 -3.1863 -0.8511 -1.2455
  168DOPC  C21720431   0.893   1.677  14.507  0.1884 -0.7060  0.1341
  168DOPC  H17R20432   0.827   1.736  14.574  0.6906 -0.0932  0.1000
  168DOPC  H17S20433   0.847   1.584  14.469  0.5010 -0.3077 -1.2749
  168DOPC  C21820434   0.926   1.770  14.387  0.2660 -0.4802  0.1676
  168DOPC  H18R20435   0.834   1.790  14.328  1.6496 -1.0096 -2.2981
  168DOPC  H18S20436   1.003   1.723  14.323  1.8117 -0.1584  1.6992
  168DOPC  H18T20437   0.971   1.861  14.431  0.5906 -1.0590  1.0725
  168DOPC   C3320438   1.536   2.293  15.704 -0.3006  0.0401 -0.8874
  168DOPC   H3X20439   1.559   2.185  15.713  0.4845  0.3774  1.8746
  168DOPC   H3Y20440   1.633   2.342  15.680 -1.6734  3.1853 -0.5186
  168DOPC   C3420441   1.447   2.322  15.586  0.1245 -0.8046  0.2670
  168DOPC   H4X20442   1.422   2.431  15.585  0.1852 -0.7795  0.8440
  168DOPC   H4Y20443   1.354   2.261  15.589 -0.3062 -0.1457  0.6462
  168DOPC   C3520444   1.509   2.284  15.447 -0.1273 -0.0209 -0.3846
  168DOPC   H5X20445   1.529   2.175  15.456 -1.0411 -0.0269  2.8344
  168DOPC   H5Y20446   1.608   2.334  15.446  0.3728 -0.8628  1.2558
  168DOPC   C3620447   1.417   2.316  15.330 -0.6072 -0.0071 -0.0481
  168DOPC   H6X20448   1.317   2.277  15.359 -0.0543 -0.6246  1.0881
  168DOPC   H6Y20449   1.407   2.426  15.316 -1.1302 -0.2132 -1.5338
  168DOPC   C3720450   1.464   2.257  15.196 -0.1656  0.0169 -0.2832
  168DOPC   H7X20451   1.563   2.304  15.177 -0.0014 -0.1413  0.1682
  168DOPC   H7Y20452   1.471   2.148  15.213 -0.8336  0.4505  4.1614
  168DOPC   C3820453   1.363   2.280  15.088  0.0914  0.2829  0.5316
  168DOPC   H8X20454   1.330   2.386  15.090 -1.6683 -0.1305 -1.9115
  168DOPC   H8Y20455   1.266   2.228  15.102  0.4995 -0.6435  0.0011
  168DOPC   C3920456   1.411   2.243  14.947  0.2834 -0.1530 -0.2518
  168DOPC   H9X20457   1.410   2.134  14.932 -0.3062 -0.1122 -0.5295
  168DOPC  C31020458   1.449   2.321  14.839 -0.7732 -0.1751 -0.2720
  168DOPC  H10X20459   1.459   2.285  14.735 -0.9505  3.2497 -1.5944
  168DOPC  C31120460   1.479   2.464  14.861  0.1024 -0.5639 -0.2414
  168DOPC  H11X20461   1.569   2.491  14.802  1.5313  0.9958  2.4502
  168DOPC  H11Y20462   1.500   2.498  14.965  1.3626  1.1757 -1.0031
  168DOPC  C31220463   1.362   2.544  14.791 -0.3367  1.0203 -0.6124
  168DOPC  H12X20464   1.272   2.547  14.857 -1.2347 -1.6024 -1.5950
  168DOPC  H12Y20465   1.326   2.485  14.704  2.4340  0.4708 -1.4920
  168DOPC  C31320466   1.407   2.679  14.735  0.1470  0.1423  0.7476
  168DOPC  H13X20467   1.477   2.664  14.650 -0.4340  2.1564 -0.1426
  168DOPC  H13Y20468   1.316   2.720  14.686  1.4022  0.8447 -1.0998
  168DOPC  C31420469   1.446   2.777  14.848  0.1128  0.3090 -0.7605
  168DOPC  H14X20470   1.495   2.720  14.929 -3.0751 -0.5968  0.7108
  168DOPC  H14Y20471   1.524   2.846  14.809  2.5677 -1.9941 -0.2328
  168DOPC  C31520472   1.330   2.859  14.900  0.4099 -0.2010 -0.0416
  168DOPC  H15X20473   1.380   2.916  14.981  0.0805 -0.5635  0.4272
  168DOPC  H15Y20474   1.251   2.793  14.941 -1.3688  1.7802 -0.1446
  168DOPC  C31620475   1.261   2.965  14.809  0.3463  0.3404  0.0168
  168DOPC  H16X20476   1.337   3.030  14.758  1.0007 -0.2712  0.1988
  168DOPC  H16Y20477   1.190   2.914  14.740  0.0511 -0.3299  0.8089
  168DOPC  C31720478   1.189   3.069  14.900 -0.0386 -1.5634 -0.1815
  168DOPC  H17X20479   1.129   3.015  14.976 -0.2865 -0.2558  0.5819
  168DOPC  H17Y20480   1.274   3.113  14.957 -0.4484 -0.6758 -0.2370
  168DOPC  C31820481   1.102   3.172  14.828 -0.0149 -0.2489 -0.0315
  168DOPC  H18X20482   1.036   3.121  14.755  1.7794  0.4224 -2.2409
  168DOPC  H18Y20483   1.046   3.232  14.902  1.1700  1.3018 -0.3358
  168DOPC  H18Z20484   1.158   3.249  14.770 -1.5895  1.2568  0.3799
  169DOPC     N20485   6.345   2.781  16.519  0.4889  0.2681 -0.6001
  169DOPC   C1220486   6.255   2.866  16.434  0.0476  0.7068 -0.6332
  169DOPC  H12A20487   6.171   2.885  16.499  0.5540 -0.9347  0.5647
  169DOPC  H12B20488   6.204   2.801  16.364  0.4504  0.0267 -0.3058
  169DOPC   C1320489   6.457   2.716  16.437  0.5393  0.5516 -0.9345
  169DOPC  H13A20490   6.486   2.781  16.355  3.9445 -2.3129 -2.2515
  169DOPC  H13B20491   6.536   2.685  16.504 -0.1378  1.3158  0.2549
  169DOPC  H13C20492   6.425   2.630  16.379 -0.2901 -0.1056  0.4589
  169DOPC   C1420493   6.262   2.679  16.594 -0.0946 -0.2037 -0.0880
  169DOPC  H14A20494   6.311   2.646  16.684  0.2594 -2.2688 -0.9929
  169DOPC  H14B20495   6.169   2.728  16.622 -1.1059 -1.4405 -1.1942
  169DOPC  H14C20496   6.252   2.592  16.532  1.2333  0.8876 -1.9286
  169DOPC   C1520497   6.409   2.867  16.628  0.6394 -0.2451 -0.2851
  169DOPC  H15A20498   6.474   2.812  16.694 -0.4578 -1.3097 -0.0485
  169DOPC  H15B20499   6.336   2.914  16.692  0.5553 -1.7375  0.7815
  169DOPC  H15C20500   6.470   2.944  16.584  0.0062  1.9019  2.3262
  169DOPC   C1120501   6.305   2.997  16.367  0.6661  0.5176 -0.0971
  169DOPC  H11A20502   6.223   3.043  16.308  0.1252 -0.0756  0.1787
  169DOPC  H11B20503   6.336   3.068  16.447  1.0156  2.0117 -1.5025
  169DOPC     P20504   6.557   3.026  16.307  0.0149  0.5300 -0.0287
  169DOPC   O1320505   6.657   2.948  16.226 -0.3102 -0.5421 -0.4635
  169DOPC   O1420506   6.578   3.033  16.451 -0.2733  0.2470 -0.1658
  169DOPC   O1220507   6.413   2.965  16.278 -0.0085 -0.5283 -0.0261
  169DOPC   O1120508   6.550   3.170  16.248 -0.1335  0.0388 -0.5471
  169DOPC    C120509   6.522   3.213  16.114 -0.0007  0.4969  0.1026
  169DOPC    HA20510   6.493   3.320  16.109 -0.4274  0.4663  1.4938
  169DOPC    HB20511   6.447   3.146  16.067 -0.0233  1.1453 -0.8227
  169DOPC    C220512   6.638   3.197  16.017 -0.5431 -0.1727 -0.2763
  169DOPC    HS20513   6.659   3.089  16.001  3.7566  0.4268  0.2344
  169DOPC   O2120514   6.744   3.275  16.068 -0.3651 -0.5457 -0.0119
  169DOPC   C2120515   6.864   3.220  16.044 -0.2550  0.3521 -1.2715
  169DOPC   O2220516   6.878   3.110  16.000 -0.4440  0.0856 -0.5886
  169DOPC   C2220517   6.967   3.295  16.125 -0.1330  0.5333  0.0418
  169DOPC   H2R20518   7.027   3.228  16.189 -0.9317  0.5997  0.8749
  169DOPC   H2S20519   6.918   3.370  16.191 -0.0768 -0.4120  1.1880
  169DOPC    C320520   6.587   3.254  15.873  0.2717  0.3102  0.3274
  169DOPC    HX20521   6.559   3.360  15.889 -0.2679  0.4536 -1.3689
  169DOPC    HY20522   6.492   3.201  15.850  0.0497  0.7899  0.1263
  169DOPC   O3120523   6.681   3.244  15.769 -0.2780 -0.3416  0.5491
  169DOPC   C3120524   6.706   3.115  15.731  0.0499  0.0855  0.1583
  169DOPC   O3220525   6.647   3.020  15.775 -0.9454 -0.5984 -0.1016
  169DOPC   C3220526   6.805   3.104  15.621 -0.1194 -0.0602  0.3118
  169DOPC   H2X20527   6.842   3.207  15.603 -0.3574  0.0675  0.5559
  169DOPC   H2Y20528   6.890   3.038  15.652 -0.3564 -0.3338  0.3875
  169DOPC   C2320529   7.067   3.358  16.025  0.0196  0.1354  0.5494
  169DOPC   H3R20530   7.094   3.276  15.954  1.2076  0.0410  1.0910
  169DOPC   H3S20531   7.153   3.398  16.082 -0.3553  0.6587  0.7564
  169DOPC   C2420532   7.007   3.477  15.959  0.3484  0.2966 -0.8964
  169DOPC   H4R20533   7.037   3.563  16.023  1.4179 -1.9656  1.8641
  169DOPC   H4S20534   6.897   3.463  15.968  0.3651  1.5674  4.0281
  169DOPC   C2520535   7.046   3.502  15.821  0.7153 -0.2547  0.2967
  169DOPC   H5R20536   7.019   3.409  15.768 -0.4333 -0.7977  1.7744
  169DOPC   H5S20537   7.157   3.512  15.814  0.6905  0.3902  0.7813
  169DOPC   C2620538   6.973   3.627  15.774 -0.6643 -0.4901 -0.7353
  169DOPC   H6R20539   7.021   3.704  15.838  2.2292 -0.0590 -3.2034
  169DOPC   H6S20540   6.870   3.638  15.813  0.1185 -3.9843  3.0126
  169DOPC   C2720541   7.005   3.657  15.627 -0.1808  0.5333 -0.6782
  169DOPC   H7R20542   7.114   3.636  15.628 -0.4241 -0.8932 -1.3163
  169DOPC   H7S20543   6.997   3.766  15.606  2.3065  1.0948  0.9022
  169DOPC   C2820544   6.929   3.572  15.522 -0.4301  0.0973 -0.1807
  169DOPC   H8R20545   6.942   3.469  15.561  0.3795  0.4788  0.6044
  169DOPC   H8S20546   6.973   3.556  15.421 -0.4412  0.1332 -0.1915
  169DOPC   C2920547   6.789   3.614  15.528  0.0010 -0.2877  0.2177
  169DOPC   H9R20548   6.739   3.567  15.614  0.9444 -2.4326 -0.3296
  169DOPC  C21020549   6.718   3.673  15.433 -0.8843 -0.3786  0.5269
  169DOPC  H10R20550   6.609   3.691  15.439 -1.2218 -0.6493 -2.9254
  169DOPC  C21120551   6.777   3.724  15.299  0.2449  0.0337  0.6882
  169DOPC  H11R20552   6.734   3.665  15.215  2.4207  0.0033 -0.4748
  169DOPC  H11S20553   6.882   3.691  15.288 -0.2344 -1.0557 -0.9737
  169DOPC  C21220554   6.757   3.870  15.271  0.0984 -0.5854 -0.4154
  169DOPC  H12R20555   6.779   3.938  15.356 -0.0780 -1.7828  0.6175
  169DOPC  H12S20556   6.655   3.881  15.230 -1.2087 -1.8791  2.2205
  169DOPC  C21320557   6.867   3.926  15.171 -0.1805 -0.1536  0.3114
  169DOPC  H13R20558   6.965   3.884  15.200 -0.4388 -0.1725  1.1731
  169DOPC  H13S20559   6.857   4.036  15.159 -1.5874 -0.3640 -0.7969
  169DOPC  C21420560   6.831   3.880  15.027 -0.4164 -0.4115  0.3447
  169DOPC  H14R20561   6.727   3.910  15.005  0.2449  2.9120  1.1664
  169DOPC  H14S20562   6.834   3.770  15.016  2.9762 -0.2597 -1.6705
  169DOPC  C21520563   6.931   3.934  14.921  1.1620 -0.5542  0.0686
  169DOPC  H15R20564   7.033   3.892  14.935  1.2692 -0.3096  0.0348
  169DOPC  H15S20565   6.948   4.044  14.916  0.1668 -0.3291  1.2573
  169DOPC  C21620566   6.892   3.873  14.787 -0.1566 -0.3272  0.3391
  169DOPC  H16R20567   6.866   3.769  14.817  2.2097 -0.6480  1.5624
  169DOPC  H16S20568   6.982   3.867  14.722  0.3138 -1.3944  1.0459
  169DOPC  C21720569   6.773   3.936  14.706  0.0044  0.6662 -0.2296
  169DOPC  H17R20570   6.799   3.935  14.598  2.7591  2.2969  0.3270
  169DOPC  H17S20571   6.761   4.044  14.729 -0.8388  0.9299 -1.7926
  169DOPC  C21820572   6.638   3.859  14.734 -0.2872  0.0862  0.4875
  169DOPC  H18R20573   6.645   3.757  14.689  1.2390  0.7191 -0.8398
  169DOPC  H18S20574   6.555   3.909  14.680 -0.5523 -1.3049 -0.4555
  169DOPC  H18T20575   6.613   3.850  14.841 -1.4515 -1.3781  0.1293
  169DOPC   C3320576   6.731   3.034  15.495  0.0501  0.0701 -0.0862
  169DOPC   H3X20577   6.660   2.956  15.529  0.3923 -1.3313 -2.4161
  169DOPC   H3Y20578   6.813   2.994  15.431 -0.4134 -0.8445 -0.1203
  169DOPC   C3420579   6.652   3.129  15.410 -0.1001 -0.6180  0.2645
  169DOPC   H4X20580   6.590   3.199  15.472  0.4611  0.0872  0.0457
  169DOPC   H4Y20581   6.587   3.069  15.344 -0.3141 -0.8146  0.6474
  169DOPC   C3520582   6.730   3.209  15.304 -0.3880 -0.1637 -0.4889
  169DOPC   H5X20583   6.784   3.138  15.238 -0.2108  0.1658 -0.6972
  169DOPC   H5Y20584   6.814   3.257  15.358 -0.6232 -0.7461  0.4153
  169DOPC   C3620585   6.644   3.301  15.227 -0.3130 -0.1341 -0.0209
  169DOPC   H6X20586   6.565   3.238  15.181  1.0422 -0.0980 -2.5847
  169DOPC   H6Y20587   6.583   3.355  15.303 -2.0507 -2.8006  0.6040
  169DOPC   C3720588   6.715   3.391  15.116  0.6174  0.4159  0.4634
  169DOPC   H7X20589   6.798   3.446  15.166  0.4873  0.3271  0.7741
  169DOPC   H7Y20590   6.751   3.318  15.041 -2.6048 -0.2760 -0.5243
  169DOPC   C3820591   6.618   3.480  15.044 -0.6161  0.1502  0.3625
  169DOPC   H8X20592   6.681   3.562  15.003 -0.2690 -0.9624 -1.4393
  169DOPC   H8Y20593   6.552   3.529  15.118  1.6276  1.1116  1.8493
  169DOPC   C3920594   6.549   3.412  14.923 -0.1991  0.7965 -0.4588
  169DOPC   H9X20595   6.451   3.362  14.937  0.1061 -0.0765 -1.3852
  169DOPC  C31020596   6.604   3.397  14.802  0.5043 -0.4377 -0.7938
  169DOPC  H10X20597   6.548   3.342  14.724 -2.2337  1.4823 -0.3365
  169DOPC  C31120598   6.745   3.438  14.766 -0.4313  0.1245  0.4698
  169DOPC  H11X20599   6.825   3.363  14.785  0.3312 -0.2094 -3.2467
  169DOPC  H11Y20600   6.769   3.541  14.802 -2.6624  1.4397 -1.5033
  169DOPC  C31220601   6.752   3.447  14.612 -0.1727  0.1857 -0.0999
  169DOPC  H12X20602   6.694   3.539  14.590  1.8276  1.9683  1.6299
  169DOPC  H12Y20603   6.716   3.353  14.565 -1.9691  0.4525  0.6802
  169DOPC  C31320604   6.891   3.475  14.552  0.0537  0.1781  0.5512
  169DOPC  H13X20605   6.935   3.561  14.607  2.1173  0.5470 -1.5287
  169DOPC  H13Y20606   6.969   3.400  14.577  0.4772  1.3522  3.0267
  169DOPC  C31420607   6.887   3.511  14.405  0.2782  0.0713  0.3624
  169DOPC  H14X20608   6.837   3.433  14.343 -2.1076  2.0500 -0.3853
  169DOPC  H14Y20609   6.827   3.604  14.394 -0.8223 -0.7781 -1.3002
  169DOPC  C31520610   7.022   3.549  14.353  0.0136 -0.0032  0.4103
  169DOPC  H15X20611   7.027   3.561  14.242 -2.2580  2.8478  0.4976
  169DOPC  H15Y20612   7.098   3.475  14.384  0.0056  0.1429  0.7767
  169DOPC  C31620613   7.070   3.683  14.402  0.0256  0.0425 -0.7162
  169DOPC  H16X20614   6.990   3.759  14.387  0.5496  0.6926 -0.2862
  169DOPC  H16Y20615   7.087   3.682  14.512  1.5768  3.7935 -0.7560
  169DOPC  C31720616   7.192   3.727  14.330  0.1319 -0.5753 -0.0124
  169DOPC  H17X20617   7.262   3.641  14.317 -0.5753 -1.3250  0.9740
  169DOPC  H17Y20618   7.158   3.756  14.229 -0.2733  3.1724  1.0624
  169DOPC  C31820619   7.268   3.850  14.371 -0.3114 -0.2454  0.0850
  169DOPC  H18X20620   7.356   3.880  14.310  0.4644  1.6410  2.0076
  169DOPC  H18Y20621   7.212   3.944  14.389  0.8401  0.1936  1.6118
  169DOPC  H18Z20622   7.316   3.838  14.471  2.2467 -2.8805 -1.3128
  170DOPC     N20623   6.594   1.174  16.214 -0.2721  0.4208 -0.6487
  170DOPC   C1220624   6.702   1.285  16.191  0.1540  0.5306  0.2228
  170DOPC  H12A20625   6.729   1.334  16.283  3.1751 -0.4784 -0.0198
  170DOPC  H12B20626   6.649   1.360  16.135  0.4114  0.1798 -0.4972
  170DOPC   C1320627   6.647   1.069  16.302 -0.0091  0.1029  0.6436
  170DOPC  H13A20628   6.685   1.119  16.390 -2.0932  1.0172  1.0919
  170DOPC  H13B20629   6.578   0.986  16.317 -0.6875  0.8833  2.1020
  170DOPC  H13C20630   6.728   1.018  16.252 -1.3468 -1.2796 -0.2337
  170DOPC   C1420631   6.554   1.107  16.086 -0.3691 -0.0236  0.2164
  170DOPC  H14A20632   6.647   1.083  16.037  1.1134  2.7797  1.4333
  170DOPC  H14B20633   6.497   1.016  16.098  0.1285 -0.3345  0.2402
  170DOPC  H14C20634   6.501   1.170  16.017 -2.4780  1.2225  2.7978
  170DOPC   C1520635   6.473   1.219  16.289 -0.3161 -0.1118  1.1606
  170DOPC  H15A20636   6.484   1.245  16.393  0.2037 -0.4925  1.2076
  170DOPC  H15B20637   6.394   1.145  16.288 -3.8315  3.3360  1.6882
  170DOPC  H15C20638   6.430   1.307  16.244  0.3995 -0.5772 -0.5138
  170DOPC   C1120639   6.833   1.242  16.121  0.2867  0.4902 -0.1211
  170DOPC  H11A20640   6.809   1.184  16.030 -0.5860 -0.5734  0.7564
  170DOPC  H11B20641   6.887   1.336  16.096 -0.4224  1.2889  1.1962
  170DOPC     P20642   7.000   1.031  16.177  0.1003  0.3552  0.1143
  170DOPC   O1320643   6.904   0.939  16.106  0.2529  0.1307  0.4100
  170DOPC   O1420644   7.061   0.993  16.309 -0.1728 -0.1375  0.1584
  170DOPC   O1220645   6.919   1.165  16.205  0.0788  0.3080 -0.2442
  170DOPC   O1120646   7.112   1.084  16.080 -0.0833 -0.1031 -0.4070
  170DOPC    C120647   7.193   1.201  16.095  0.2699 -0.2174  0.0290
  170DOPC    HA20648   7.269   1.189  16.175  1.1637  1.3248 -0.5634
  170DOPC    HB20649   7.137   1.294  16.115  1.6521  1.0864 -1.8300
  170DOPC    C220650   7.277   1.215  15.966 -0.3836  0.1776 -0.8159
  170DOPC    HS20651   7.308   1.322  15.965  0.2479 -0.0023 -1.7090
  170DOPC   O2120652   7.208   1.174  15.848 -0.3065 -0.5165 -0.6237
  170DOPC   C2120653   7.089   1.221  15.823  0.2523  0.4236 -0.6187
  170DOPC   O2220654   7.046   1.329  15.858 -0.4543 -0.4028  0.2805
  170DOPC   C2220655   7.015   1.110  15.758  0.3950  0.2387  0.0283
  170DOPC   H2R20656   6.980   1.048  15.843  1.6648 -3.4898 -1.9424
  170DOPC   H2S20657   7.081   1.046  15.695 -1.3528  0.3525 -2.0486
  170DOPC    C320658   7.413   1.141  15.972 -0.4733  0.2035 -0.5306
  170DOPC    HX20659   7.391   1.039  16.010 -1.6023  1.0462  1.2039
  170DOPC    HY20660   7.463   1.191  16.058 -2.9094  1.6817  0.1215
  170DOPC   O3120661   7.477   1.138  15.845 -0.0273 -0.3052 -0.1977
  170DOPC   C3120662   7.536   1.250  15.806 -0.7836 -0.6588 -0.4909
  170DOPC   O3220663   7.549   1.355  15.871 -0.4810  0.2307 -0.6409
  170DOPC   C3220664   7.602   1.220  15.667 -0.1190  0.8520 -1.0528
  170DOPC   H2X20665   7.681   1.143  15.681  0.5860  1.5470 -1.1375
  170DOPC   H2Y20666   7.515   1.172  15.618 -0.8109 -0.7573  1.5794
  170DOPC   C2320667   6.881   1.158  15.680 -0.5043 -0.5158 -0.0942
  170DOPC   H3R20668   6.808   1.197  15.754 -1.5337 -2.0456 -0.2438
  170DOPC   H3S20669   6.838   1.060  15.651  0.0544 -1.2368  1.4085
  170DOPC   C2420670   6.897   1.257  15.570  0.2775 -0.0382  0.4124
  170DOPC   H4R20671   6.988   1.230  15.512  1.4141  2.6421  0.7874
  170DOPC   H4S20672   6.913   1.359  15.611 -1.2163  0.7496 -0.8797
  170DOPC   C2520673   6.774   1.264  15.483  1.7568 -0.2422  0.6985
  170DOPC   H5R20674   6.687   1.299  15.542 -0.0879 -0.2078 -1.8778
  170DOPC   H5S20675   6.749   1.167  15.435 -0.0682  0.4686  0.1346
  170DOPC   C2620676   6.797   1.374  15.371 -0.2787 -0.2569  0.1077
  170DOPC   H6R20677   6.880   1.340  15.306  0.5855 -1.0179  1.5434
  170DOPC   H6S20678   6.822   1.470  15.422 -0.2594 -0.3957  0.3624
  170DOPC   C2720679   6.681   1.403  15.270  0.3941 -0.3484 -0.3962
  170DOPC   H7R20680   6.596   1.440  15.331  1.1676  0.8795 -0.0463
  170DOPC   H7S20681   6.641   1.312  15.218 -1.0428  0.4379 -0.7301
  170DOPC   C2820682   6.715   1.514  15.166  0.0099  0.4279 -0.1155
  170DOPC   H8R20683   6.810   1.491  15.112  1.3719  1.3149  1.8069
  170DOPC   H8S20684   6.741   1.601  15.229 -0.1309 -0.2262  0.8575
  170DOPC   C2920685   6.602   1.541  15.064  0.2008 -0.0681  0.1679
  170DOPC   H9R20686   6.503   1.560  15.108 -0.2590 -2.5807  0.3278
  170DOPC  C21020687   6.607   1.549  14.925  0.7639  0.7272 -0.3378
  170DOPC  H10R20688   6.521   1.551  14.857  0.3039 -0.6601  0.1615
  170DOPC  C21120689   6.730   1.540  14.855 -0.3418  0.1480  0.1265
  170DOPC  H11R20690   6.770   1.437  14.869  1.3796  0.8349  0.5231
  170DOPC  H11S20691   6.802   1.614  14.895  0.5107  0.6978 -2.2306
  170DOPC  C21220692   6.717   1.583  14.708  0.3499 -0.1397  0.2130
  170DOPC  H12R20693   6.815   1.586  14.655 -0.8132 -0.1183 -2.0276
  170DOPC  H12S20694   6.672   1.684  14.702  1.2415  0.2892  0.4540
  170DOPC  C21320695   6.629   1.481  14.634  0.3260 -0.3288  0.1134
  170DOPC  H13R20696   6.525   1.519  14.644  0.5603  1.2546 -2.5181
  170DOPC  H13S20697   6.653   1.380  14.674 -0.7017 -0.9544 -0.7798
  170DOPC  C21420698   6.647   1.449  14.486 -0.3401 -0.3532 -0.0795
  170DOPC  H14R20699   6.671   1.534  14.419  0.2389 -0.0799  0.4624
  170DOPC  H14S20700   6.551   1.407  14.450  0.6249 -1.9172 -0.9386
  170DOPC  C21520701   6.763   1.356  14.462 -0.0921 -0.5007 -0.7887
  170DOPC  H15R20702   6.736   1.256  14.504  0.4870 -0.7051 -0.8972
  170DOPC  H15S20703   6.852   1.404  14.508 -1.8555  0.9707  1.3358
  170DOPC  C21620704   6.807   1.344  14.314  0.0244 -0.3481  0.0965
  170DOPC  H16R20705   6.815   1.438  14.256 -0.3831  0.8503  1.8923
  170DOPC  H16S20706   6.743   1.266  14.267  0.6008 -0.5113 -0.4170
  170DOPC  C21720707   6.946   1.280  14.298  0.1290 -0.6125  0.6042
  170DOPC  H17R20708   7.033   1.336  14.339  0.5792  0.1163 -1.2522
  170DOPC  H17S20709   6.972   1.263  14.192  0.2848  0.2548  0.4965
  170DOPC  C21820710   6.951   1.143  14.361 -0.9245  0.7965  0.1510
  170DOPC  H18R20711   6.951   1.146  14.472  1.1747  2.2892  0.1656
  170DOPC  H18S20712   7.040   1.084  14.334 -0.4608  1.3997  0.3355
  170DOPC  H18T20713   6.869   1.080  14.319  0.2468  0.8813 -2.4573
  170DOPC   C3320714   7.647   1.348  15.601  0.0939  0.0574  0.3909
  170DOPC   H3X20715   7.728   1.392  15.664  2.1415 -2.9662  0.0909
  170DOPC   H3Y20716   7.555   1.406  15.584  0.2222 -0.0309 -0.6731
  170DOPC   C3420717   7.700   1.334  15.457  0.7393 -0.0689 -0.5819
  170DOPC   H4X20718   7.625   1.297  15.384 -1.0724 -1.5491  1.8716
  170DOPC   H4Y20719   7.780   1.256  15.457 -0.0832 -0.9649  1.1381
  170DOPC   C3520720   7.744   1.466  15.387  0.2413  0.9704  0.1033
  170DOPC   H5X20721   7.825   1.524  15.437 -0.7410  1.5127  1.1081
  170DOPC   H5Y20722   7.663   1.541  15.399  0.5227  1.3002 -0.0243
  170DOPC   C3620723   7.787   1.456  15.236  0.3570  0.4775 -0.0533
  170DOPC   H6X20724   7.825   1.557  15.212  0.6679  0.3024 -0.3001
  170DOPC   H6Y20725   7.872   1.385  15.230  0.3420  0.2050  2.1639
  170DOPC   C3720726   7.673   1.419  15.135  0.0831  0.7020  0.2399
  170DOPC   H7X20727   7.618   1.323  15.146  1.8279 -0.5952 -1.5457
  170DOPC   H7Y20728   7.595   1.495  15.155 -2.3824 -1.4486 -0.6724
  170DOPC   C3820729   7.722   1.430  14.991  0.7142  0.3343 -0.1277
  170DOPC   H8X20730   7.648   1.373  14.930 -0.7896  3.1111 -1.0880
  170DOPC   H8Y20731   7.811   1.364  14.980 -0.4071 -2.0341  3.3194
  170DOPC   C3920732   7.755   1.567  14.935  0.2015  0.0673  0.7689
  170DOPC   H9X20733   7.682   1.645  14.961 -0.7697 -1.1795  1.9166
  170DOPC  C31020734   7.865   1.608  14.871  0.8759 -0.0482  0.3566
  170DOPC  H10X20735   7.875   1.707  14.825 -1.9557 -0.0158 -0.3708
  170DOPC  C31120736   7.973   1.514  14.824  0.1900 -0.3671 -0.3501
  170DOPC  H11X20737   7.973   1.414  14.873  0.7001  0.3622  1.2311
  170DOPC  H11Y20738   8.071   1.554  14.858 -0.2485  0.4468 -0.0153
  170DOPC  C31220739   7.988   1.508  14.672  0.1192  0.3335 -0.2865
  170DOPC  H12X20740   7.988   1.613  14.634 -0.2615  0.0677 -1.0381
  170DOPC  H12Y20741   7.897   1.458  14.633 -1.4040  1.8018  1.2217
  170DOPC  C31320742   8.100   1.417  14.618  0.6770  0.3735  0.1153
  170DOPC  H13X20743   8.196   1.452  14.662  0.8945  0.4738 -0.4225
  170DOPC  H13Y20744   8.084   1.316  14.660  0.3433 -0.8028 -2.6203
  170DOPC  C31420745   8.111   1.427  14.469  0.1339 -0.7452  0.1053
  170DOPC  H14X20746   8.129   1.535  14.451 -3.4378  0.1616  1.2081
  170DOPC  H14Y20747   8.206   1.383  14.429  1.2709  0.3086  1.5269
  170DOPC  C31520748   7.983   1.394  14.389 -0.3114  0.0416 -0.1015
  170DOPC  H15X20749   7.895   1.454  14.419  0.9572  2.1615 -0.4035
  170DOPC  H15Y20750   7.975   1.284  14.400  0.3589 -0.3213 -2.6207
  170DOPC  C31620751   8.008   1.429  14.239  0.5704 -0.2700 -0.5052
  170DOPC  H16X20752   8.002   1.536  14.209 -0.0445 -0.1898 -0.1002
  170DOPC  H16Y20753   8.101   1.380  14.201 -0.3524 -0.6625 -2.3651
  170DOPC  C31720754   7.895   1.378  14.158  0.6448  0.7170  0.4657
  170DOPC  H17X20755   7.941   1.377  14.057  0.3836  1.1918  0.3383
  170DOPC  H17Y20756   7.884   1.275  14.197  0.2393  0.4874 -0.2601
  170DOPC  C31820757   7.762   1.454  14.166  0.0473  0.3218  0.2647
  170DOPC  H18X20758   7.685   1.402  14.105  0.0799  0.0286  0.4736
  170DOPC  H18Y20759   7.729   1.467  14.272 -0.2562 -0.2679  0.2446
  170DOPC  H18Z20760   7.783   1.558  14.131 -0.3179  0.2121 -0.2936
  171DOPC     N20761   2.846   4.311  11.770  0.1547  0.9226  0.5017
  171DOPC   C1220762   2.938   4.223  11.850  0.3368 -0.4571  0.1076
  171DOPC  H12A20763   3.005   4.163  11.790  0.1371  0.1217 -0.7120
  171DOPC  H12B20764   2.872   4.144  11.883 -0.7334  0.0289 -0.8015
  171DOPC   C1320765   2.782   4.228  11.660  0.5513 -1.0121 -0.6416
  171DOPC  H13A20766   2.854   4.175  11.600  1.5636  2.1021 -2.4319
  171DOPC  H13B20767   2.725   4.151  11.710 -1.7545  0.7439 -0.3547
  171DOPC  H13C20768   2.724   4.289  11.592  3.1819  0.8142 -1.3791
  171DOPC   C1420769   2.919   4.425  11.715 -0.2866  0.0643 -0.1630
  171DOPC  H14A20770   3.005   4.392  11.659 -0.3875  0.7842 -0.7586
  171DOPC  H14B20771   2.869   4.486  11.641  0.4905  1.1938  0.2177
  171DOPC  H14C20772   2.947   4.493  11.793 -1.2473  1.5019 -1.0190
  171DOPC   C1520773   2.733   4.354  11.863 -0.0308 -0.4769  0.2470
  171DOPC  H15A20774   2.678   4.273  11.909 -0.9839  0.6380  1.1370
  171DOPC  H15B20775   2.669   4.425  11.812  2.6857  1.1991 -1.0727
  171DOPC  H15C20776   2.782   4.408  11.942  1.2769 -1.2849  0.0236
  171DOPC   C1120777   3.021   4.290  11.967  0.0783  0.7760  0.0749
  171DOPC  H11A20778   3.072   4.214  12.029  1.1225 -0.1096 -1.7799
  171DOPC  H11B20779   3.107   4.350  11.932  0.5582  0.4597  0.7169
  171DOPC     P20780   2.867   4.308  12.180  0.0518 -0.2413 -0.2263
  171DOPC   O1320781   2.807   4.179  12.143 -0.4835  0.1455  0.3912
  171DOPC   O1420782   2.775   4.405  12.239  0.1435 -0.4110 -0.3486
  171DOPC   O1220783   2.936   4.369  12.048  0.0471  0.0688 -0.1751
  171DOPC   O1120784   2.987   4.297  12.285 -0.1690  0.5132 -0.2801
  171DOPC    C120785   3.066   4.415  12.312 -0.2032  0.4612  0.0069
  171DOPC    HA20786   3.043   4.507  12.255 -1.9029 -0.8042 -1.4583
  171DOPC    HB20787   3.174   4.389  12.304  0.1879  0.7655  3.0746
  171DOPC    C220788   3.052   4.458  12.459 -0.4657 -0.0261  0.9620
  171DOPC    HS20789   3.129   4.534  12.482 -1.5609  0.5112  3.2713
  171DOPC   O2120790   3.067   4.340  12.542  0.7039  0.1865 -0.3725
  171DOPC   C2120791   3.184   4.299  12.566 -0.8578 -0.0346 -0.5768
  171DOPC   O2220792   3.284   4.334  12.506  0.1841 -0.6382  0.1473
  171DOPC   C2220793   3.173   4.210  12.685  0.7025 -0.5335  0.1230
  171DOPC   H2R20794   3.180   4.103  12.656 -3.3730 -1.5749  2.2492
  171DOPC   H2S20795   3.068   4.206  12.720  1.5452 -0.3396  2.8374
  171DOPC    C320796   2.922   4.525  12.491 -0.1411 -0.5787  0.4995
  171DOPC    HX20797   2.843   4.448  12.471 -0.4656  0.4225 -2.6273
  171DOPC    HY20798   2.902   4.615  12.429 -1.8318 -1.5282 -0.4447
  171DOPC   O3120799   2.921   4.559  12.626  0.2750 -0.2490  0.4148
  171DOPC   C3120800   2.796   4.582  12.672 -0.1593  0.1564  0.5948
  171DOPC   O3220801   2.691   4.576  12.610  0.6351 -0.0451  0.2836
  171DOPC   C3220802   2.801   4.616  12.821 -0.7784  0.1419  0.8125
  171DOPC   H2X20803   2.905   4.626  12.856  0.0134  0.8261 -1.5140
  171DOPC   H2Y20804   2.758   4.719  12.818 -1.9787 -0.2648 -3.3456
  171DOPC   C2320805   3.285   4.238  12.791 -0.0166  0.5688 -0.5458
  171DOPC   H3R20806   3.383   4.232  12.740 -0.5477  2.3427 -1.8771
  171DOPC   H3S20807   3.290   4.154  12.863  0.6355  2.0813  1.2548
  171DOPC   C2420808   3.270   4.370  12.870  0.0022  0.2871  0.3557
  171DOPC   H4R20809   3.268   4.460  12.805  1.8304  1.8116  2.2228
  171DOPC   H4S20810   3.361   4.373  12.934 -1.4618 -1.8542  2.7380
  171DOPC   C2520811   3.145   4.371  12.962 -0.2770  0.1450  0.4242
  171DOPC   H5R20812   3.090   4.274  12.964  0.3862 -0.2429  2.4463
  171DOPC   H5S20813   3.085   4.459  12.933  0.1541  0.0044 -1.0046
  171DOPC   C2620814   3.189   4.383  13.114 -0.5520  0.4997  0.2300
  171DOPC   H6R20815   3.247   4.475  13.132  0.2446 -0.4138  2.7847
  171DOPC   H6S20816   3.255   4.297  13.135  0.8642  1.2277 -1.0899
  171DOPC   C2720817   3.074   4.364  13.207 -0.1677  0.3631  0.1935
  171DOPC   H7R20818   3.015   4.271  13.193  1.0190 -0.4158  0.2406
  171DOPC   H7S20819   3.001   4.446  13.194  0.4388  0.8988  0.1514
  171DOPC   C2820820   3.108   4.376  13.358  0.1069 -0.2303  0.3603
  171DOPC   H8R20821   3.010   4.395  13.408 -0.3184 -1.8028  0.1736
  171DOPC   H8S20822   3.188   4.453  13.359  1.0285 -1.1706  0.7308
  171DOPC   C2920823   3.168   4.248  13.418  0.7660 -0.0690  0.1316
  171DOPC   H9R20824   3.212   4.177  13.346  1.1096 -0.8804  1.1292
  171DOPC  C21020825   3.198   4.236  13.545  0.4702  0.5529 -0.3500
  171DOPC  H10R20826   3.243   4.141  13.576 -1.6268 -0.2319  0.4577
  171DOPC  C21120827   3.160   4.336  13.654  0.2233  0.5519 -0.1650
  171DOPC  H11R20828   3.089   4.281  13.720  0.7627 -0.6123 -0.5244
  171DOPC  H11S20829   3.121   4.431  13.613 -3.3555 -1.2389 -1.3448
  171DOPC  C21220830   3.277   4.376  13.745 -0.2744  0.5317 -0.6518
  171DOPC  H12R20831   3.347   4.428  13.677 -1.1673 -0.4319 -2.3796
  171DOPC  H12S20832   3.332   4.283  13.772  2.2204  1.7920 -1.1932
  171DOPC  C21320833   3.240   4.455  13.871 -0.2039 -0.2509 -0.5180
  171DOPC  H13R20834   3.164   4.400  13.931  0.6359 -0.1574  0.6794
  171DOPC  H13S20835   3.191   4.544  13.827  0.1991  1.3791  2.0845
  171DOPC  C21420836   3.355   4.510  13.961 -0.1593 -0.3396 -0.0941
  171DOPC  H14R20837   3.299   4.544  14.051 -2.0390  1.3727 -1.7805
  171DOPC  H14S20838   3.389   4.604  13.912  0.3158 -0.6577 -0.3784
  171DOPC  C21520839   3.459   4.411  13.995  0.0189  0.2513  0.5040
  171DOPC  H15R20840   3.498   4.366  13.901 -0.3822 -0.4858  0.6816
  171DOPC  H15S20841   3.418   4.323  14.049  2.6556  0.1367  2.5400
  171DOPC  C21620842   3.581   4.452  14.081 -0.2382  0.1045  0.7955
  171DOPC  H16R20843   3.606   4.559  14.069  3.0718 -0.7954 -2.1599
  171DOPC  H16S20844   3.673   4.394  14.060 -0.1532  0.7843 -0.8401
  171DOPC  C21720845   3.557   4.440  14.230 -0.5825 -0.1691 -0.4613
  171DOPC  H17R20846   3.506   4.342  14.244 -0.6898 -0.0470  0.0403
  171DOPC  H17S20847   3.488   4.520  14.264  0.9901  1.1538 -0.2883
  171DOPC  C21820848   3.688   4.442  14.307 -0.2926 -0.5206  0.0687
  171DOPC  H18R20849   3.667   4.477  14.410  0.8635 -3.6279  1.5097
  171DOPC  H18S20850   3.761   4.510  14.258  0.3381 -0.1332  1.5029
  171DOPC  H18T20851   3.725   4.337  14.315 -0.9331 -0.8634 -1.1894
  171DOPC   C3320852   2.737   4.506  12.908 -0.5508 -0.5466 -0.2359
  171DOPC   H3X20853   2.802   4.415  12.908  0.5865  0.2422 -0.1203
  171DOPC   H3Y20854   2.640   4.481  12.860 -0.5097  0.0137 -0.6135
  171DOPC   C3420855   2.724   4.549  13.056 -0.0885 -0.2984  0.0387
  171DOPC   H4X20856   2.680   4.651  13.058  0.5164 -0.0410  0.3617
  171DOPC   H4Y20857   2.821   4.557  13.110 -0.7649  1.9173  1.0376
  171DOPC   C3520858   2.639   4.452  13.135  0.2790 -0.2897  0.1779
  171DOPC   H5X20859   2.697   4.360  13.157 -2.2425 -2.0312  0.0794
  171DOPC   H5Y20860   2.548   4.417  13.081 -0.5553 -1.8814  2.4595
  171DOPC   C3620861   2.599   4.522  13.265  0.6850 -0.0534  0.1798
  171DOPC   H6X20862   2.584   4.443  13.342  4.2184  1.3130  2.5100
  171DOPC   H6Y20863   2.683   4.573  13.317 -0.9819  1.0226  1.9514
  171DOPC   C3720864   2.477   4.619  13.249 -0.3363 -0.4889 -0.1351
  171DOPC   H7X20865   2.516   4.697  13.180 -3.6234  0.3823 -1.1951
  171DOPC   H7Y20866   2.382   4.586  13.201 -1.1532  0.3574  0.8461
  171DOPC   C3820867   2.441   4.688  13.382  0.8446  0.0000  0.1056
  171DOPC   H8X20868   2.533   4.702  13.442  0.2423 -2.1681  1.6870
  171DOPC   H8Y20869   2.390   4.606  13.438 -1.2567  1.4156  0.3695
  171DOPC   C3920870   2.351   4.811  13.390  0.6653 -0.1437 -0.2867
  171DOPC   H9X20871   2.388   4.905  13.345 -0.3527  1.0756  1.3162
  171DOPC  C31020872   2.238   4.821  13.469 -0.3900 -0.2161  0.1619
  171DOPC  H10X20873   2.188   4.918  13.485  0.6173 -0.0865  3.0841
  171DOPC  C31120874   2.169   4.719  13.555  0.5558  0.4714  0.3834
  171DOPC  H11X20875   2.181   4.736  13.664 -0.6315 -3.8517  1.4131
  171DOPC  H11Y20876   2.214   4.620  13.531 -0.5819 -0.1693  0.7996
  171DOPC  C31220877   2.023   4.698  13.517  0.2795  0.3179 -0.0115
  171DOPC  H12X20878   1.972   4.796  13.514  1.9376  1.3170  1.8313
  171DOPC  H12Y20879   1.964   4.630  13.583 -0.3047  0.1971 -0.6502
  171DOPC  C31320880   2.011   4.632  13.380  0.2056  0.1641  0.2005
  171DOPC  H13X20881   2.036   4.711  13.306 -1.3417  1.2080  0.7298
  171DOPC  H13Y20882   2.071   4.539  13.385 -1.4086 -1.0406 -1.6610
  171DOPC  C31420883   1.864   4.591  13.347  0.3348 -0.2897  0.3419
  171DOPC  H14X20884   1.844   4.507  13.417  0.8806 -0.5770  0.1563
  171DOPC  H14Y20885   1.788   4.662  13.387 -0.6887 -1.4361  0.4780
  171DOPC  C31520886   1.827   4.559  13.200 -0.5181 -0.2619 -0.1368
  171DOPC  H15X20887   1.723   4.521  13.212 -0.9826  1.1685  0.6274
  171DOPC  H15Y20888   1.893   4.476  13.166 -0.5507 -0.6301  0.6760
  171DOPC  C31620889   1.834   4.670  13.098 -0.0236  0.3786 -0.0451
  171DOPC  H16X20890   1.803   4.774  13.125 -0.5913 -0.1777  1.5594
  171DOPC  H16Y20891   1.944   4.681  13.086  0.0737  0.5003  0.8849
  171DOPC  C31720892   1.766   4.628  12.969  0.1518 -0.3658 -0.0369
  171DOPC  H17X20893   1.790   4.522  12.948  2.6232 -0.2941  2.0268
  171DOPC  H17Y20894   1.655   4.636  12.971 -0.0181 -2.1875 -0.0389
  171DOPC  C31820895   1.829   4.707  12.852 -0.6222 -0.3862  0.3830
  171DOPC  H18X20896   1.939   4.694  12.843 -0.8779 -2.1793 -0.4546
  171DOPC  H18Y20897   1.792   4.669  12.755 -1.4268  0.2444  0.4336
  171DOPC  H18Z20898   1.802   4.815  12.848  2.3828  0.4462 -0.4473
  172DOPC     N20899   2.489   5.977  12.164  0.2188 -0.0784  0.3135
  172DOPC   C1220900   2.448   5.956  12.303  0.3603  0.2609 -0.6763
  172DOPC  H12A20901   2.389   5.865  12.308  0.3965  0.2907  2.0162
  172DOPC  H12B20902   2.388   6.036  12.345 -1.0056 -0.9005 -0.3353
  172DOPC   C1320903   2.363   6.008  12.094  0.1233  0.7783 -0.0880
  172DOPC  H13A20904   2.306   6.073  12.159  0.6844  1.4308 -0.2430
  172DOPC  H13B20905   2.375   6.053  11.997  0.5729 -1.3412 -1.0601
  172DOPC  H13C20906   2.308   5.916  12.084  0.7854  0.2473  0.9321
  172DOPC   C1420907   2.549   5.863  12.094 -0.4761 -0.0039 -0.7221
  172DOPC  H14A20908   2.645   5.830  12.131 -1.4076  0.9525  2.9251
  172DOPC  H14B20909   2.483   5.779  12.087 -1.1689  0.4497  0.1417
  172DOPC  H14C20910   2.569   5.884  11.990  1.0293 -1.1595 -0.7072
  172DOPC   C1520911   2.569   6.100  12.153 -0.0054  0.1919 -0.8272
  172DOPC  H15A20912   2.661   6.101  12.210  0.8902 -3.5463 -1.9446
  172DOPC  H15B20913   2.502   6.176  12.192 -1.5191  0.2629 -3.3469
  172DOPC  H15C20914   2.606   6.115  12.053  0.7576  1.1151 -0.4282
  172DOPC   C1120915   2.566   5.933  12.405  0.0498  0.1599 -0.5390
  172DOPC  H11A20916   2.548   5.884  12.504  1.9848  1.0072  0.2823
  172DOPC  H11B20917   2.645   5.872  12.357  1.3042  0.2607  1.2910
  172DOPC     P20918   2.579   6.161  12.533  0.2296 -0.4150 -0.0240
  172DOPC   O1320919   2.444   6.204  12.486  0.0041 -0.1852  0.3773
  172DOPC   O1420920   2.676   6.267  12.549 -0.7015 -0.1262  0.1189
  172DOPC   O1220921   2.632   6.059  12.430  0.1053  0.0344  0.3857
  172DOPC   O1120922   2.572   6.079  12.664  0.7733 -0.3299 -0.6615
  172DOPC    C120923   2.672   6.100  12.761 -0.9541 -0.2427  0.1148
  172DOPC    HA20924   2.621   6.082  12.859 -1.0758 -2.5512 -0.3057
  172DOPC    HB20925   2.715   6.202  12.768  0.5635 -0.8954  0.5489
  172DOPC    C220926   2.789   5.998  12.742 -0.3933  1.0494  0.6874
  172DOPC    HS20927   2.839   6.020  12.645 -2.9983 -0.8302 -1.2571
  172DOPC   O2120928   2.734   5.866  12.729  0.1542 -0.5851  0.2864
  172DOPC   C2120929   2.818   5.777  12.673 -0.0519  0.0852 -1.0137
  172DOPC   O2220930   2.931   5.799  12.644 -0.2325 -0.1271  0.3292
  172DOPC   C2220931   2.742   5.644  12.657 -0.0448  0.5869  0.0554
  172DOPC   H2R20932   2.684   5.637  12.563  0.6550 -2.2797 -0.2565
  172DOPC   H2S20933   2.654   5.645  12.724 -0.6099 -0.8929 -0.6237
  172DOPC    C320934   2.885   6.003  12.862  0.3746  0.0718 -0.0190
  172DOPC    HX20935   2.935   6.102  12.866 -0.5422  0.6130 -1.2387
  172DOPC    HY20936   2.966   5.927  12.850  0.5504 -0.0352  1.5822
  172DOPC   O3120937   2.807   5.977  12.979 -0.4121 -0.4478  0.0827
  172DOPC   C3120938   2.857   6.019  13.093 -0.2032  0.0551  0.5038
  172DOPC   O3220939   2.968   6.068  13.110  0.0940 -0.3849 -0.4905
  172DOPC   C3220940   2.764   5.956  13.197 -0.3114  0.3726 -0.0007
  172DOPC   H2X20941   2.666   6.007  13.206 -0.2108  1.3611 -3.1938
  172DOPC   H2Y20942   2.742   5.851  13.170 -0.1460 -0.7130  3.5962
  172DOPC   C2320943   2.830   5.519  12.677 -0.3573 -0.4106 -0.3345
  172DOPC   H3R20944   2.929   5.532  12.629 -0.5146  0.8511 -0.3779
  172DOPC   H3S20945   2.779   5.433  12.630  0.1618 -0.4817 -0.7677
  172DOPC   C2420946   2.840   5.485  12.823 -0.3384 -0.6069 -0.7585
  172DOPC   H4R20947   2.913   5.402  12.833  1.1553  0.6817 -0.4551
  172DOPC   H4S20948   2.738   5.454  12.853 -0.1007  0.4658  1.3011
  172DOPC   C2520949   2.904   5.592  12.912 -0.0876 -0.0285 -0.3097
  172DOPC   H5R20950   2.843   5.683  12.932  1.0621  0.7476 -0.2220
  172DOPC   H5S20951   3.001   5.628  12.871 -0.0321  1.2573  0.8430
  172DOPC   C2620952   2.943   5.539  13.052  0.1482  0.1696 -0.8197
  172DOPC   H6R20953   3.025   5.598  13.098 -0.6958  0.1804  0.7731
  172DOPC   H6S20954   2.988   5.439  13.034  0.0231  0.1132 -0.8273
  172DOPC   C2720955   2.817   5.526  13.146 -0.2664  0.2639 -0.1571
  172DOPC   H7R20956   2.749   5.462  13.087  0.5550 -0.3820 -0.4280
  172DOPC   H7S20957   2.757   5.616  13.171  0.1150  0.5057 -0.0986
  172DOPC   C2820958   2.855   5.443  13.273 -0.4020  0.1450 -0.0838
  172DOPC   H8R20959   2.910   5.351  13.242 -0.0105 -0.0816  1.2370
  172DOPC   H8S20960   2.755   5.427  13.316 -0.7507 -1.8276 -1.4667
  172DOPC   C2920961   2.949   5.510  13.371  0.1139 -0.1364  0.6647
  172DOPC   H9R20962   3.032   5.565  13.325  0.4837 -2.1407 -1.2466
  172DOPC  C21020963   2.926   5.505  13.504  0.0566 -0.0124  0.6259
  172DOPC  H10R20964   2.998   5.561  13.564 -0.1709 -0.9437  1.8231
  172DOPC  C21120965   2.819   5.430  13.572 -0.6077 -0.1103 -0.4812
  172DOPC  H11R20966   2.794   5.334  13.522  1.9459 -1.3467  0.4460
  172DOPC  H11S20967   2.730   5.495  13.560 -1.0160 -0.3547  1.0448
  172DOPC  C21220968   2.849   5.396  13.711  0.0672  0.6830 -0.2496
  172DOPC  H12R20969   2.857   5.486  13.775  1.3719 -1.3774  2.7109
  172DOPC  H12S20970   2.950   5.350  13.724 -0.4720  0.0656  2.1419
  172DOPC  C21320971   2.748   5.306  13.794  0.6719  0.7256 -0.1684
  172DOPC  H13R20972   2.749   5.206  13.745 -0.9308 -0.8036  2.6575
  172DOPC  H13S20973   2.645   5.348  13.796  1.0831  1.7641  1.6849
  172DOPC  C21420974   2.807   5.274  13.929 -0.2077  0.2555 -0.4603
  172DOPC  H14R20975   2.823   5.372  13.978 -0.9086 -0.5211  1.4352
  172DOPC  H14S20976   2.899   5.210  13.927 -0.2895 -0.1047  2.5773
  172DOPC  C21520977   2.711   5.193  14.024  0.4310 -0.0731 -0.8631
  172DOPC  H15R20978   2.767   5.160  14.114 -0.4215 -1.5223 -0.8312
  172DOPC  H15S20979   2.671   5.112  13.959  0.6238 -1.4448  0.6650
  172DOPC  C21620980   2.601   5.286  14.075  0.6785 -0.2304 -0.4468
  172DOPC  H16R20981   2.551   5.329  13.986  1.5458 -0.0763 -0.8716
  172DOPC  H16S20982   2.634   5.372  14.137  0.1336 -2.7274  3.7221
  172DOPC  C21720983   2.479   5.219  14.143  0.4851  0.4990  0.1449
  172DOPC  H17R20984   2.462   5.127  14.082 -0.9337  1.0733 -0.3541
  172DOPC  H17S20985   2.384   5.275  14.135 -1.1752 -2.3640 -2.8367
  172DOPC  C21820986   2.511   5.166  14.283 -0.3063  0.2137 -0.5421
  172DOPC  H18R20987   2.436   5.096  14.326  2.1874 -2.4896 -0.2372
  172DOPC  H18S20988   2.524   5.251  14.353  1.1478 -1.0399  0.8044
  172DOPC  H18T20989   2.602   5.102  14.290 -0.8183 -0.3233  2.6123
  172DOPC   C3320990   2.826   5.932  13.339  0.2567  0.4925  0.0750
  172DOPC   H3X20991   2.866   6.030  13.370 -0.0415  0.3571  0.8995
  172DOPC   H3Y20992   2.909   5.858  13.344  0.5218  0.8821  1.6704
  172DOPC   C3420993   2.725   5.870  13.438  0.4345  0.1975 -1.0169
  172DOPC   H4X20994   2.696   5.769  13.401 -0.5705  0.6054 -1.3916
  172DOPC   H4Y20995   2.641   5.942  13.432  2.7141  2.9505 -2.4786
  172DOPC   C3520996   2.782   5.848  13.573 -0.6521  0.8113 -0.6533
  172DOPC   H5X20997   2.819   5.943  13.618  0.0299  0.3294 -0.1770
  172DOPC   H5Y20998   2.873   5.786  13.567 -0.1992  1.0288  2.2315
  172DOPC   C3620999   2.679   5.790  13.672  0.5355 -0.4439 -0.3584
  172DOPC   H6X21000   2.581   5.839  13.654  0.3924 -0.2132  0.9558
  172DOPC   H6Y21001   2.664   5.680  13.668 -0.0155 -0.3456 -1.2252
  172DOPC   C3721002   2.711   5.827  13.824  0.1377 -0.3861  0.0306
  172DOPC   H7X21003   2.804   5.772  13.848  0.5995  0.9152  1.3700
  172DOPC   H7Y21004   2.725   5.937  13.834  0.4695 -0.3853 -0.4097
  172DOPC   C3821005   2.600   5.773  13.921  0.6895  1.0040 -0.2892
  172DOPC   H8X21006   2.594   5.664  13.901  0.7180  0.8216  0.6727
  172DOPC   H8Y21007   2.498   5.812  13.897  0.2466  1.3918  1.9831
  172DOPC   C3921008   2.623   5.808  14.068 -0.5649 -0.9004  0.1475
  172DOPC   H9X21009   2.728   5.802  14.102 -0.5407 -0.4799  0.1515
  172DOPC  C31021010   2.532   5.859  14.147 -0.7028  0.1924 -0.1398
  172DOPC  H10X21011   2.561   5.877  14.252  1.4160 -0.5436 -0.5489
  172DOPC  C31121012   2.387   5.868  14.111 -0.0962 -0.7787  0.8599
  172DOPC  H11X21013   2.317   5.833  14.191 -2.7595 -1.3419 -1.5436
  172DOPC  H11Y21014   2.361   5.793  14.033 -0.2881 -1.3739  1.4846
  172DOPC  C31221015   2.336   6.008  14.093 -0.5107  0.0835  0.3912
  172DOPC  H12X21016   2.393   6.056  14.010  0.8874 -1.1365  0.6013
  172DOPC  H12Y21017   2.360   6.069  14.182  1.2828  0.1739 -0.1250
  172DOPC  C31321018   2.189   6.021  14.063 -0.2459  0.3935  0.2003
  172DOPC  H13X21019   2.118   5.991  14.143  0.4524 -3.2656 -0.3598
  172DOPC  H13Y21020   2.162   6.127  14.045  0.8804  0.9367  1.5231
  172DOPC  C31421021   2.149   5.959  13.933 -0.5307  0.2234  0.2879
  172DOPC  H14X21022   2.202   6.002  13.845 -0.3996  0.3629  0.4335
  172DOPC  H14Y21023   2.181   5.853  13.931  4.2676  1.4218 -2.5796
  172DOPC  C31521024   2.001   5.989  13.901  0.0750  0.1614 -0.6961
  172DOPC  H15X21025   1.972   6.095  13.918 -1.5450 -0.7556  3.4225
  172DOPC  H15Y21026   1.937   5.946  13.981 -0.9507  4.1778  0.8995
  172DOPC  C31621027   1.961   5.929  13.769  0.2058 -0.9109  0.0788
  172DOPC  H16X21028   2.004   5.827  13.774 -0.0054 -0.9970  0.1540
  172DOPC  H16Y21029   1.850   5.916  13.767 -0.0731  1.0636  0.2283
  172DOPC  C31721030   2.007   6.009  13.648 -0.3315 -0.9997  0.4732
  172DOPC  H17X21031   1.985   6.114  13.675 -1.1052 -1.2653  0.9018
  172DOPC  H17Y21032   2.116   5.990  13.643 -0.0448  0.8388 -1.7268
  172DOPC  C31821033   1.939   5.983  13.512 -0.2426  0.1396  0.4788
  172DOPC  H18X21034   1.964   5.886  13.465 -1.7117 -0.1351  0.2058
  172DOPC  H18Y21035   1.829   5.995  13.507 -0.1707  1.2937  1.2728
  172DOPC  H18Z21036   1.977   6.059  13.441 -0.9176 -0.4378 -0.5196
  173DOPC     N21037   1.676   4.902  11.977  0.4293 -0.4200  0.1795
  173DOPC   C1221038   1.664   4.870  12.127 -0.7191  0.2764 -1.1376
  173DOPC  H12A21039   1.691   4.951  12.193 -0.7373 -0.0859 -0.6790
  173DOPC  H12B21040   1.741   4.795  12.141 -1.1947 -0.3203 -1.6882
  173DOPC   C1321041   1.624   4.788  11.899 -0.0690  0.4927  0.9438
  173DOPC  H13A21042   1.524   4.767  11.933  0.6670  0.1155  3.0387
  173DOPC  H13B21043   1.623   4.823  11.797  0.4278  0.2889  0.8626
  173DOPC  H13C21044   1.691   4.703  11.905 -0.7682 -0.2255 -0.9798
  173DOPC   C1421045   1.810   4.943  11.939  0.3948 -0.2118 -0.1446
  173DOPC  H14A21046   1.845   5.031  11.991 -0.6048  1.5769 -2.3152
  173DOPC  H14B21047   1.879   4.860  11.943 -1.8990 -2.2446 -0.5102
  173DOPC  H14C21048   1.823   4.966  11.834  2.1517 -0.0832  0.0722
  173DOPC   C1521049   1.590   5.021  11.956 -0.0905 -0.8547  1.3922
  173DOPC  H15A21050   1.637   5.116  11.978  0.2688 -0.5397 -0.5668
  173DOPC  H15B21051   1.491   5.004  11.996 -0.3679 -0.1142  1.0506
  173DOPC  H15C21052   1.589   5.027  11.848  1.1150  0.5343  1.4267
  173DOPC   C1121053   1.528   4.815  12.179  0.5214 -0.4484 -0.9775
  173DOPC  H11A21054   1.514   4.718  12.127 -0.2142 -1.4970  1.0576
  173DOPC  H11B21055   1.550   4.789  12.284 -0.2631  3.0477  0.1955
  173DOPC     P21056   1.369   5.011  12.264 -0.4307 -0.0817  0.2490
  173DOPC   O1321057   1.224   5.024  12.255 -0.3723  0.0037  0.6204
  173DOPC   O1421058   1.450   5.135  12.263 -0.1117 -0.5791  0.2921
  173DOPC   O1221059   1.429   4.915  12.160 -0.6782  0.4276 -0.4526
  173DOPC   O1121060   1.416   4.938  12.392  0.0629 -0.1530 -0.4653
  173DOPC    C121061   1.348   4.848  12.474 -0.2792  0.0627  0.0160
  173DOPC    HA21062   1.411   4.756  12.477 -0.4759 -0.0544  0.6993
  173DOPC    HB21063   1.252   4.815  12.430 -0.4248  1.7971 -1.0625
  173DOPC    C221064   1.329   4.897  12.620 -0.5801  0.4157  0.0088
  173DOPC    HS21065   1.244   4.839  12.662 -1.0665  1.0892 -0.0111
  173DOPC   O2121066   1.302   5.034  12.631  0.3637 -0.4456 -0.0314
  173DOPC   C2121067   1.178   5.076  12.612 -0.2105 -0.9078  0.1980
  173DOPC   O2221068   1.084   5.011  12.564 -0.0102  0.1112 -0.1530
  173DOPC   C2221069   1.174   5.225  12.646  1.0518 -1.1269 -0.3926
  173DOPC   H2R21070   1.178   5.270  12.545  0.1822 -0.3031 -0.0696
  173DOPC   H2S21071   1.266   5.266  12.692  0.1684 -0.9651  1.2987
  173DOPC    C321072   1.458   4.869  12.706  0.4108 -0.3417  0.4976
  173DOPC    HX21073   1.516   4.964  12.700 -2.2160  1.3397 -0.1032
  173DOPC    HY21074   1.522   4.793  12.657  1.3948  1.3718 -1.0312
  173DOPC   O3121075   1.419   4.837  12.839 -0.1691 -0.0667 -0.5696
  173DOPC   C3121076   1.371   4.719  12.866 -0.1167  0.1883  0.5932
  173DOPC   O3221077   1.360   4.625  12.790 -0.7599 -0.1493  0.6240
  173DOPC   C3221078   1.337   4.708  13.019 -0.1930 -1.4908  0.3336
  173DOPC   H2X21079   1.435   4.722  13.067 -0.4278  0.7013  0.2894
  173DOPC   H2Y21080   1.273   4.795  13.044  1.2927 -0.0490 -0.6738
  173DOPC   C2321081   1.042   5.278  12.704 -0.3783  0.0093 -0.1178
  173DOPC   H3R21082   0.954   5.223  12.667 -0.1753 -0.4184  0.0251
  173DOPC   H3S21083   1.023   5.383  12.673 -1.1683 -0.0608  0.1219
  173DOPC   C2421084   1.055   5.269  12.855  0.2231  0.2110 -0.4080
  173DOPC   H4R21085   0.967   5.317  12.901 -0.9198 -0.9008 -1.3539
  173DOPC   H4S21086   1.146   5.325  12.884 -0.1042  0.1074  0.8776
  173DOPC   C2521087   1.070   5.124  12.914 -0.5782 -0.1882 -0.5524
  173DOPC   H5R21088   1.170   5.084  12.885 -0.0766  1.8100 -1.7274
  173DOPC   H5S21089   1.009   5.053  12.854  0.1001 -1.4233  0.1788
  173DOPC   C2621090   1.055   5.100  13.067 -0.3387  0.1338 -0.2392
  173DOPC   H6R21091   1.129   5.154  13.130  1.1086 -1.9661 -0.0519
  173DOPC   H6S21092   1.074   4.992  13.077 -0.7054 -0.0790 -1.6135
  173DOPC   C2721093   0.914   5.111  13.116 -0.1997  0.1075  0.1351
  173DOPC   H7R21094   0.843   5.066  13.043 -0.7488  0.0130  0.7200
  173DOPC   H7S21095   0.893   5.220  13.117 -2.0921 -0.2185  1.3109
  173DOPC   C2821096   0.883   5.042  13.247  0.3447  0.5680 -0.2376
  173DOPC   H8R21097   0.955   5.096  13.313  0.8534  1.1474 -1.2537
  173DOPC   H8S21098   0.909   4.934  13.247  1.1566  0.7401  0.9340
  173DOPC   C2921099   0.741   5.073  13.286  0.3605 -0.4470 -0.4925
  173DOPC   H9R21100   0.705   5.159  13.229 -0.6239 -0.0055  0.7491
  173DOPC  C21021101   0.657   5.002  13.371  0.1160  0.7709 -0.0417
  173DOPC  H10R21102   0.556   5.042  13.387  0.7996  1.2684  4.0471
  173DOPC  C21121103   0.708   4.888  13.461  0.7170 -0.6163  0.0700
  173DOPC  H11R21104   0.806   4.856  13.419  1.1067 -0.7126  1.0244
  173DOPC  H11S21105   0.641   4.799  13.455  0.6891 -0.5851 -0.0788
  173DOPC  C21221106   0.727   4.928  13.607  0.4850  0.9628 -0.0383
  173DOPC  H12R21107   0.706   4.843  13.676  0.0633  0.2480 -1.0327
  173DOPC  H12S21108   0.648   4.990  13.654 -1.9698 -0.4076 -2.1215
  173DOPC  C21321109   0.862   4.996  13.644 -0.1515  0.2862 -0.6494
  173DOPC  H13R21110   0.878   5.088  13.584  0.4081  0.0324 -0.8986
  173DOPC  H13S21111   0.944   4.925  13.621  0.2329 -0.0056  1.4092
  173DOPC  C21421112   0.884   5.040  13.795 -0.3544  0.0148  0.2056
  173DOPC  H14R21113   0.985   5.086  13.800 -0.5116  0.2749  1.8035
  173DOPC  H14S21114   0.872   4.949  13.858 -0.8393  0.4219  0.7141
  173DOPC  C21521115   0.781   5.144  13.853 -0.1397  0.6542  0.2087
  173DOPC  H15R21116   0.687   5.089  13.876  0.8292 -0.7014  1.1031
  173DOPC  H15S21117   0.769   5.218  13.771 -1.4468  0.8316  0.5414
  173DOPC  C21621118   0.826   5.207  13.982  0.4749  0.2491  0.1099
  173DOPC  H16R21119   0.934   5.236  13.985  0.3265  0.9022 -0.5173
  173DOPC  H16S21120   0.822   5.131  14.063  0.0152 -2.5098 -2.3492
  173DOPC  C21721121   0.749   5.325  14.027  0.6745 -0.6027 -0.2718
  173DOPC  H17R21122   0.641   5.306  14.048  0.8172 -0.1367  0.9492
  173DOPC  H17S21123   0.750   5.406  13.951 -0.8393 -0.1730  0.1175
  173DOPC  C21821124   0.818   5.370  14.149 -0.7201 -0.4173  0.3628
  173DOPC  H18R21125   0.835   5.289  14.223 -0.9119 -1.1278 -0.3608
  173DOPC  H18S21126   0.745   5.440  14.196 -0.6266 -1.2530  1.8318
  173DOPC  H18T21127   0.914   5.420  14.125  0.3158 -1.3925  2.1763
  173DOPC   C3321128   1.292   4.578  13.088  0.5286  0.0676  0.0915
  173DOPC   H3X21129   1.216   4.539  13.016  2.1622  0.5555 -1.9994
  173DOPC   H3Y21130   1.250   4.602  13.188 -0.0598 -0.2632 -0.0707
  173DOPC   C3421131   1.406   4.471  13.102 -0.3563 -0.0652 -0.1262
  173DOPC   H4X21132   1.489   4.510  13.165 -1.1816  0.9004  0.4018
  173DOPC   H4Y21133   1.451   4.434  13.008 -0.6551 -1.5555  0.2885
  173DOPC   C3521134   1.369   4.343  13.175  0.2141  0.2470 -0.1192
  173DOPC   H5X21135   1.453   4.272  13.175  0.2310  0.2575 -0.8979
  173DOPC   H5Y21136   1.284   4.293  13.123  0.7677 -3.1817  1.9880
  173DOPC   C3621137   1.324   4.364  13.320 -0.7251 -0.1932 -0.5117
  173DOPC   H6X21138   1.401   4.416  13.381 -1.0966 -1.4156  1.0565
  173DOPC   H6Y21139   1.242   4.440  13.317  0.6901  1.5732  1.6785
  173DOPC   C3721140   1.295   4.232  13.391 -0.1330 -0.0708 -0.1697
  173DOPC   H7X21141   1.198   4.190  13.357 -0.5019  2.1155 -2.0367
  173DOPC   H7Y21142   1.377   4.159  13.374  1.3760  1.6847 -0.7708
  173DOPC   C3821143   1.285   4.248  13.549  0.3959 -0.0708  0.1240
  173DOPC   H8X21144   1.376   4.295  13.593 -0.0809  0.2377  0.7835
  173DOPC   H8Y21145   1.276   4.145  13.591  0.6325 -1.6503 -3.3516
  173DOPC   C3921146   1.158   4.330  13.578 -0.0556  0.5936  0.0347
  173DOPC   H9X21147   1.063   4.279  13.553  0.8534 -0.9449 -0.3654
  173DOPC  C31021148   1.155   4.456  13.625  0.5591  0.1926  0.1236
  173DOPC  H10X21149   1.060   4.503  13.652  0.2134 -1.0127  1.1188
  173DOPC  C31121150   1.280   4.540  13.646  0.1576 -0.1029 -0.2955
  173DOPC  H11X21151   1.255   4.637  13.599 -2.6750 -1.2781 -1.3917
  173DOPC  H11Y21152   1.364   4.507  13.580  1.8347 -1.3574  2.2781
  173DOPC  C31221153   1.326   4.566  13.785  0.0549  0.0746 -0.4557
  173DOPC  H12X21154   1.417   4.629  13.780 -0.3568  0.5806 -2.1443
  173DOPC  H12Y21155   1.341   4.466  13.831 -1.4071  1.0492  2.4444
  173DOPC  C31321156   1.233   4.642  13.880  0.1308  0.4334 -0.1939
  173DOPC  H13X21157   1.138   4.584  13.876  1.1341 -1.4947  1.8411
  173DOPC  H13Y21158   1.272   4.646  13.984  2.1616  1.1984 -0.9363
  173DOPC  C31421159   1.207   4.789  13.838 -0.0463 -0.2690 -0.5108
  173DOPC  H14X21160   1.171   4.792  13.733 -0.4234 -0.9965 -0.4139
  173DOPC  H14Y21161   1.120   4.816  13.902 -1.4058 -2.0844 -1.4828
  173DOPC  C31521162   1.329   4.875  13.855 -0.1246  0.3419 -0.0483
  173DOPC  H15X21163   1.380   4.874  13.756 -0.4009  0.9466 -0.2007
  173DOPC  H15Y21164   1.399   4.840  13.934 -4.4598 -0.8720  3.7136
  173DOPC  C31621165   1.286   5.023  13.884 -0.1559  0.5604 -0.0414
  173DOPC  H16X21166   1.227   5.068  13.802 -0.5998  0.9593  0.4918
  173DOPC  H16Y21167   1.225   5.021  13.977  1.1096  0.5912  0.8182
  173DOPC  C31721168   1.408   5.117  13.906 -0.5810  0.0980  0.5231
  173DOPC  H17X21169   1.470   5.075  13.988  1.8128  1.7711 -0.2985
  173DOPC  H17Y21170   1.463   5.115  13.809  0.5609  0.4857  1.1391
  173DOPC  C31821171   1.367   5.256  13.935  1.4811  0.0780 -0.1132
  173DOPC  H18X21172   1.299   5.303  13.861  1.5575  0.7152  0.2133
  173DOPC  H18Y21173   1.326   5.271  14.037  2.9524  0.4908  0.4529
  173DOPC  H18Z21174   1.457   5.320  13.946  2.0368 -0.8456  0.9119
  174DOPC     N21175   4.895   2.610  11.644  0.6316 -0.0301  0.7685
  174DOPC   C1221176   4.924   2.625  11.794 -0.3391  0.2168  0.4290
  174DOPC  H12A21177   4.837   2.642  11.855 -0.9707  1.5134 -0.7789
  174DOPC  H12B21178   4.984   2.711  11.817  0.2619 -0.5213  1.7378
  174DOPC   C1321179   4.795   2.504  11.619  0.5860 -0.8131  0.2597
  174DOPC  H13A21180   4.784   2.493  11.512  0.0727  0.2071  0.2026
  174DOPC  H13B21181   4.828   2.407  11.654 -0.4893 -0.4028  2.6279
  174DOPC  H13C21182   4.697   2.527  11.659  1.4844  1.7751  1.1621
  174DOPC   C1421183   5.022   2.589  11.559  0.3179  0.2154  0.2631
  174DOPC  H14A21184   5.071   2.685  11.550  0.7053 -0.1647 -2.9065
  174DOPC  H14B21185   5.085   2.514  11.605 -0.0768  0.5460  1.3603
  174DOPC  H14C21186   4.993   2.553  11.461 -2.3009  0.7634  0.7638
  174DOPC   C1521187   4.826   2.739  11.592  0.1279 -0.2328  0.0632
  174DOPC  H15A21188   4.896   2.821  11.603  0.8374 -0.9583  1.3274
  174DOPC  H15B21189   4.742   2.763  11.655  1.2140  0.6062  1.2740
  174DOPC  H15C21190   4.796   2.713  11.492  1.2435 -0.0581 -0.3331
  174DOPC   C1121191   4.997   2.499  11.856 -0.2456 -0.2609  0.3507
  174DOPC  H11A21192   4.976   2.514  11.964  0.2854  2.4345  0.1399
  174DOPC  H11B21193   4.940   2.414  11.812 -0.1454  0.1280 -0.5521
  174DOPC     P21194   5.248   2.586  11.909  0.3826  0.0515  0.3084
  174DOPC   O1321195   5.176   2.692  11.980  0.1862 -0.6670 -0.3405
  174DOPC   O1421196   5.351   2.620  11.816 -0.7651 -0.3827 -0.2168
  174DOPC   O1221197   5.139   2.500  11.835  0.4500 -0.4242 -0.6077
  174DOPC   O1121198   5.308   2.490  12.019  0.5456 -0.1867 -0.3101
  174DOPC    C121199   5.236   2.391  12.082  0.3169  0.1656 -0.2069
  174DOPC    HA21200   5.317   2.336  12.135 -1.0561 -1.0494  0.6927
  174DOPC    HB21201   5.189   2.326  12.006 -1.2303  0.6892  0.2549
  174DOPC    C221202   5.135   2.448  12.185 -0.0834  0.0125  0.2459
  174DOPC    HS21203   5.051   2.500  12.134 -1.0891 -1.2967  0.5141
  174DOPC   O2121204   5.207   2.527  12.278 -0.1262 -0.0266  0.0812
  174DOPC   C2121205   5.152   2.630  12.331 -0.3776 -0.4038  0.2185
  174DOPC   O2221206   5.035   2.664  12.324 -0.5431 -0.2389  0.0581
  174DOPC   C2221207   5.253   2.697  12.423  0.1858 -0.0620 -0.7125
  174DOPC   H2R21208   5.329   2.738  12.353  1.4709 -0.1537  0.5832
  174DOPC   H2S21209   5.304   2.622  12.488 -1.9823 -0.2633  0.8603
  174DOPC    C321210   5.053   2.336  12.263  0.0457  0.8831  0.4349
  174DOPC    HX21211   5.115   2.257  12.310  0.5224  1.3220  0.5515
  174DOPC    HY21212   4.989   2.300  12.180  2.2257 -0.2108 -0.8682
  174DOPC   O3121213   4.957   2.390  12.356  0.2947  0.8915 -0.0048
  174DOPC   C3121214   4.952   2.341  12.480  0.5682  0.2940  0.3881
  174DOPC   O3221215   5.016   2.245  12.524 -0.2937  0.1979  0.3449
  174DOPC   C3221216   4.878   2.432  12.573  0.6785 -0.6074 -0.4322
  174DOPC   H2X21217   4.931   2.530  12.573 -2.7448  1.4549  1.1789
  174DOPC   H2Y21218   4.781   2.449  12.522  0.4544 -0.0267  0.1664
  174DOPC   C2321219   5.191   2.816  12.498  0.0361  0.4291  0.4058
  174DOPC   H3R21220   5.123   2.876  12.434  0.1623  0.7330  0.5550
  174DOPC   H3S21221   5.275   2.886  12.516 -0.4175  1.7375 -2.1089
  174DOPC   C2421222   5.119   2.792  12.633  0.4961  0.1099  0.5123
  174DOPC   H4R21223   5.012   2.762  12.636 -0.5327  3.3657  0.2343
  174DOPC   H4S21224   5.129   2.886  12.691  0.4330 -1.1354  2.6348
  174DOPC   C2521225   5.189   2.689  12.714  0.0727  0.3185 -0.2802
  174DOPC   H5R21226   5.300   2.694  12.706  0.1925 -0.8751  0.3712
  174DOPC   H5S21227   5.173   2.599  12.651  1.4305 -1.7640  2.1433
  174DOPC   C2621228   5.135   2.661  12.852 -1.0613 -0.2874  0.8999
  174DOPC   H6R21229   5.207   2.583  12.885 -0.7795  0.1309  1.2901
  174DOPC   H6S21230   5.033   2.618  12.847 -0.6219 -1.5579  2.2625
  174DOPC   C2721231   5.127   2.786  12.948  0.2071 -0.3110  0.3853
  174DOPC   H7R21232   5.066   2.861  12.893  2.3498  0.2200 -1.4314
  174DOPC   H7S21233   5.231   2.827  12.948  0.3359 -0.6284  1.2410
  174DOPC   C2821234   5.094   2.773  13.093  0.2179  0.2196 -0.2114
  174DOPC   H8R21235   5.119   2.861  13.155 -0.6332  0.7151 -0.5480
  174DOPC   H8S21236   5.170   2.710  13.143  0.2353 -0.2381 -0.8025
  174DOPC   C2921237   4.949   2.717  13.116 -0.0355  0.5814 -0.2211
  174DOPC   H9R21238   4.917   2.639  13.045  0.0804  1.3568 -1.1465
  174DOPC  C21021239   4.857   2.762  13.198  0.4318  0.4731 -0.2685
  174DOPC  H10R21240   4.759   2.714  13.190  1.2431 -1.2022 -0.5512
  174DOPC  C21121241   4.866   2.869  13.301  0.1614 -0.1462  0.1545
  174DOPC  H11R21242   4.762   2.896  13.331 -0.0523  0.5381 -1.1255
  174DOPC  H11S21243   4.910   2.959  13.252  3.3119 -0.4112  2.2712
  174DOPC  C21221244   4.953   2.843  13.423 -0.3543  0.0047 -0.7155
  174DOPC  H12R21245   5.054   2.806  13.397  0.4473  0.8969  0.9262
  174DOPC  H12S21246   4.901   2.772  13.491  1.3012 -3.5383 -2.8772
  174DOPC  C21321247   4.970   2.972  13.509 -1.0981  0.3335  0.2045
  174DOPC  H13R21248   4.869   3.012  13.533 -1.3345  0.6577 -1.2598
  174DOPC  H13S21249   5.028   3.047  13.451  0.1772 -1.1131 -0.4736
  174DOPC  C21421250   5.048   2.967  13.645  0.3589 -0.5253 -0.3150
  174DOPC  H14R21251   5.157   2.953  13.630  0.5262 -0.1238  0.5112
  174DOPC  H14S21252   5.014   2.868  13.682 -3.3291  0.1909 -1.3915
  174DOPC  C21521253   4.987   3.067  13.747 -0.3882 -0.1910  0.2782
  174DOPC  H15R21254   4.880   3.096  13.740  0.4456  2.8462 -1.8833
  174DOPC  H15S21255   5.040   3.164  13.740 -2.5656  0.9450 -2.3083
  174DOPC  C21621256   5.010   3.019  13.896  0.3400  1.0864 -0.1383
  174DOPC  H16R21257   5.022   3.109  13.961  1.9383 -1.6298  3.7018
  174DOPC  H16S21258   5.104   2.963  13.911  0.2805  1.3903  1.6014
  174DOPC  C21721259   4.885   2.935  13.949 -0.0617 -0.7528 -0.3890
  174DOPC  H17R21260   4.869   2.841  13.893 -2.1410 -1.0728  0.6390
  174DOPC  H17S21261   4.800   3.003  13.928  0.9392  0.4356 -0.7180
  174DOPC  C21821262   4.896   2.917  14.099 -0.5523  0.0787  0.0907
  174DOPC  H18R21263   4.919   3.017  14.141 -1.6600  0.8510 -1.0638
  174DOPC  H18S21264   4.982   2.850  14.119  1.1869  1.6802 -1.7238
  174DOPC  H18T21265   4.797   2.889  14.143 -1.5493  2.3552 -0.5246
  174DOPC   C3321266   4.867   2.365  12.705  0.1860  0.2998 -0.8404
  174DOPC   H3X21267   4.965   2.369  12.758  0.2694  1.0766 -1.0327
  174DOPC   H3Y21268   4.821   2.264  12.703  0.8602 -0.0192 -0.6951
  174DOPC   C3421269   4.775   2.449  12.806  0.0874  0.8064  0.1079
  174DOPC   H4X21270   4.671   2.453  12.766  0.1496  0.9668 -0.0384
  174DOPC   H4Y21271   4.815   2.549  12.832 -2.2302  1.5578  1.0228
  174DOPC   C3521272   4.765   2.367  12.935  0.3874  0.0294 -0.2012
  174DOPC   H5X21273   4.869   2.349  12.970  1.2119  0.4809 -2.2298
  174DOPC   H5Y21274   4.713   2.272  12.911  0.6501  0.5591 -3.3384
  174DOPC   C3621275   4.679   2.454  13.040  0.0882 -0.0036  0.8862
  174DOPC   H6X21276   4.720   2.557  13.041  2.1348 -0.7458 -0.6927
  174DOPC   H6Y21277   4.571   2.458  13.015  0.1296 -1.1470  0.4978
  174DOPC   C3721278   4.656   2.411  13.187 -0.2691  0.7394  0.3786
  174DOPC   H7X21279   4.753   2.435  13.235 -0.3230 -0.0692  0.9296
  174DOPC   H7Y21280   4.574   2.469  13.234 -2.3789 -0.6415 -1.3777
  174DOPC   C3821281   4.617   2.263  13.207 -0.3287 -0.1442  0.4254
  174DOPC   H8X21282   4.693   2.190  13.172  1.7761  1.2314  1.8405
  174DOPC   H8Y21283   4.534   2.248  13.134  0.9385 -0.8363 -0.9297
  174DOPC   C3921284   4.564   2.258  13.353 -0.3930  0.2198 -0.2288
  174DOPC   H9X21285   4.475   2.321  13.369  0.0397  1.4046 -2.1295
  174DOPC  C31021286   4.611   2.186  13.451  0.6884  0.0554  0.2800
  174DOPC  H10X21287   4.563   2.186  13.550 -0.6893  1.2821 -0.3399
  174DOPC  C31121288   4.717   2.084  13.426 -0.7020  0.1815  0.0602
  174DOPC  H11X21289   4.803   2.117  13.365 -1.6917  2.0189 -0.4328
  174DOPC  H11Y21290   4.661   2.000  13.381 -1.0890  0.5238 -0.1081
  174DOPC  C31221291   4.767   2.035  13.564  0.1969 -0.3794 -0.0572
  174DOPC  H12X21292   4.689   1.965  13.602  1.4708 -1.6084  0.3966
  174DOPC  H12Y21293   4.775   2.119  13.636 -1.1464 -0.4036  0.1518
  174DOPC  C31321294   4.896   1.950  13.565 -0.3137  0.4718  0.2899
  174DOPC  H13X21295   4.862   1.856  13.517 -3.1509 -0.3089  3.4342
  174DOPC  H13Y21296   4.992   1.988  13.523 -0.0272 -1.9362 -1.4695
  174DOPC  C31421297   4.939   1.891  13.710  0.1201 -0.1711  0.6505
  174DOPC  H14X21298   4.975   1.975  13.772 -3.6949  1.9794  0.2816
  174DOPC  H14Y21299   4.843   1.851  13.751 -0.4460  0.3955 -0.1036
  174DOPC  C31521300   5.047   1.787  13.680  0.0572  0.5973 -0.4960
  174DOPC  H15X21301   5.123   1.825  13.609  0.2658  1.6889  0.2833
  174DOPC  H15Y21302   5.000   1.694  13.643 -0.3795  0.3972  0.5306
  174DOPC  C31621303   5.123   1.758  13.808  0.1282 -0.6016  0.0154
  174DOPC  H16X21304   5.048   1.744  13.889  1.6638  0.3575  1.6625
  174DOPC  H16Y21305   5.187   1.668  13.791  1.2515 -0.0149  0.9664
  174DOPC  C31721306   5.218   1.868  13.847 -0.0725 -0.2762 -0.6373
  174DOPC  H17X21307   5.304   1.881  13.779  0.0949  0.0495 -0.3671
  174DOPC  H17Y21308   5.166   1.966  13.852 -0.9493 -0.6744 -1.5661
  174DOPC  C31821309   5.276   1.849  13.992  0.3239  0.2806 -0.5195
  174DOPC  H18X21310   5.305   1.743  14.003  1.0120  0.5045 -0.1275
  174DOPC  H18Y21311   5.370   1.906  14.009 -0.7300  1.1804  3.1081
  174DOPC  H18Z21312   5.204   1.883  14.069  2.1436 -0.3516  1.5769
  175DOPC     N21313   2.453   6.589  12.515  0.1534 -0.4646 -0.4012
  175DOPC   C1221314   2.576   6.535  12.582  0.2998 -0.0523 -0.2356
  175DOPC  H12A21315   2.595   6.437  12.540  1.1407 -0.6335  1.4286
  175DOPC  H12B21316   2.559   6.517  12.687 -1.0379  0.5123 -0.3325
  175DOPC   C1321317   2.345   6.491  12.533  0.2663  0.7373  0.0720
  175DOPC  H13A21318   2.369   6.399  12.481 -0.7215  0.8791 -0.6762
  175DOPC  H13B21319   2.346   6.468  12.639  1.3034  0.8592  0.0914
  175DOPC  H13C21320   2.251   6.534  12.501 -0.0401  0.4211  0.5380
  175DOPC   C1421321   2.467   6.612  12.371 -0.1874  0.9119  0.4761
  175DOPC  H14A21322   2.394   6.682  12.333 -0.5596  1.1885  1.6655
  175DOPC  H14B21323   2.563   6.654  12.345 -0.9335  1.7010 -1.1635
  175DOPC  H14C21324   2.467   6.521  12.312 -0.2865  2.3128 -1.8056
  175DOPC   C1521325   2.411   6.726  12.575 -0.7645  0.7683  0.1955
  175DOPC  H15A21326   2.494   6.793  12.563 -1.3855  1.6929  0.9101
  175DOPC  H15B21327   2.393   6.721  12.681  1.3678  1.6735  0.6430
  175DOPC  H15C21328   2.328   6.772  12.522 -1.2480  0.8288  0.9868
  175DOPC   C1121329   2.709   6.619  12.567 -0.1976  0.9030  0.7670
  175DOPC  H11A21330   2.680   6.719  12.605  0.2384  1.7326 -0.9780
  175DOPC  H11B21331   2.785   6.562  12.625  3.0187  1.8530 -2.2506
  175DOPC     P21332   2.853   6.724  12.380 -0.0027  0.4669 -0.2631
  175DOPC   O1321333   2.784   6.856  12.366  0.3604  0.3141  0.1011
  175DOPC   O1421334   2.914   6.677  12.248  0.5364  0.4218  0.0488
  175DOPC   O1221335   2.749   6.615  12.433  0.2793 -0.6616  0.3118
  175DOPC   O1121336   2.970   6.725  12.476 -0.0086 -0.5829 -0.2322
  175DOPC    C121337   2.955   6.822  12.586 -0.5878 -0.1269 -0.7550
  175DOPC    HA21338   3.018   6.787  12.671 -0.3790 -2.4487 -1.7951
  175DOPC    HB21339   2.859   6.818  12.642 -1.5444  0.3192 -2.3211
  175DOPC    C221340   3.005   6.963  12.554 -1.0784  0.1818  0.1510
  175DOPC    HS21341   2.947   6.988  12.463 -1.1288 -1.3205 -0.2598
  175DOPC   O2121342   3.148   6.965  12.522  0.0148  0.2543 -0.3008
  175DOPC   C2121343   3.197   7.078  12.470  0.6815  0.3671 -0.1401
  175DOPC   O2221344   3.134   7.179  12.453  0.9626 -0.0123  0.3961
  175DOPC   C2221345   3.349   7.056  12.452  0.4795 -0.1881  0.4374
  175DOPC   H2R21346   3.365   7.065  12.342  0.5905 -2.0858  0.2607
  175DOPC   H2S21347   3.374   6.953  12.487 -0.5461 -0.4209  0.5221
  175DOPC    C321348   2.973   7.050  12.672 -0.5152 -0.1778 -0.0244
  175DOPC    HX21349   2.862   7.050  12.662 -0.5128  0.7373 -0.1972
  175DOPC    HY21350   3.016   7.150  12.650  1.5354 -1.1546 -0.6299
  175DOPC   O3121351   3.021   6.996  12.795 -0.1467 -0.1228  0.1058
  175DOPC   C3121352   3.107   7.066  12.870 -0.1274  0.0139 -0.8853
  175DOPC   O3221353   3.155   7.171  12.839  0.8349  0.4736 -0.2908
  175DOPC   C3221354   3.163   6.972  12.984  0.0359 -0.3819  0.7246
  175DOPC   H2X21355   3.093   6.894  13.022  0.9028 -0.8904  1.3172
  175DOPC   H2Y21356   3.245   6.922  12.928 -0.1276 -0.3032  0.4125
  175DOPC   C2321357   3.431   7.174  12.515 -0.2673  0.0749 -0.0660
  175DOPC   H3R21358   3.384   7.274  12.502 -1.0116 -0.1277  0.9168
  175DOPC   H3S21359   3.532   7.163  12.471 -0.3980 -4.7429  0.3090
  175DOPC   C2421360   3.443   7.152  12.672  1.3270  0.7093  0.1318
  175DOPC   H4R21361   3.475   7.047  12.691  0.4412  0.4908  0.4266
  175DOPC   H4S21362   3.342   7.167  12.714  1.2159 -1.4217  0.7257
  175DOPC   C2521363   3.549   7.240  12.737 -0.1053  0.2322 -0.5554
  175DOPC   H5R21364   3.508   7.343  12.725  0.8346  0.8556  1.1804
  175DOPC   H5S21365   3.646   7.227  12.684  1.0993 -1.7545  1.9465
  175DOPC   C2621366   3.591   7.208  12.883  0.4667  0.4820 -0.5560
  175DOPC   H6R21367   3.662   7.122  12.884  0.0729  0.1565 -0.3838
  175DOPC   H6S21368   3.507   7.178  12.948  1.4112 -1.0067  0.0438
  175DOPC   C2721369   3.665   7.328  12.947  0.8198 -0.0734 -0.0722
  175DOPC   H7R21370   3.602   7.418  12.929  2.0682  1.2545  1.8708
  175DOPC   H7S21371   3.758   7.343  12.889  0.2535 -0.6319 -1.1743
  175DOPC   C2821372   3.693   7.311  13.098  0.1682 -0.1436 -0.0393
  175DOPC   H8R21373   3.766   7.390  13.126  2.5991 -2.3665  0.3176
  175DOPC   H8S21374   3.755   7.220  13.114  0.6762  0.0909 -0.6698
  175DOPC   C2921375   3.573   7.302  13.189 -0.3324 -0.2266 -0.3439
  175DOPC   H9R21376   3.493   7.375  13.174  0.5585  0.9396  0.4292
  175DOPC  C21021377   3.555   7.216  13.295  0.1258 -0.9556  0.0206
  175DOPC  H10R21378   3.464   7.235  13.354  0.4889 -2.5245  1.1472
  175DOPC  C21121379   3.636   7.093  13.326 -0.8792  0.0567  0.8442
  175DOPC  H11R21380   3.745   7.112  13.317 -0.7742  0.0997  2.1280
  175DOPC  H11S21381   3.599   7.024  13.246  2.0021  1.2331 -1.7109
  175DOPC  C21221382   3.615   7.011  13.459  0.5069  0.2664  0.0058
  175DOPC  H12R21383   3.687   6.926  13.456  0.1999  0.0261 -1.1698
  175DOPC  H12S21384   3.517   6.958  13.464  0.0911  1.1414  2.6087
  175DOPC  C21321385   3.649   7.078  13.590  0.2892  0.2846  0.0401
  175DOPC  H13R21386   3.599   7.177  13.587 -0.4992 -0.0133  1.9558
  175DOPC  H13S21387   3.758   7.101  13.585  0.1713  0.6691 -0.8746
  175DOPC  C21421388   3.609   7.000  13.715  0.6175  0.6819 -0.0041
  175DOPC  H14R21389   3.631   6.892  13.697  0.2281 -0.1300  3.5810
  175DOPC  H14S21390   3.500   7.016  13.727  0.5430  2.4322 -2.3434
  175DOPC  C21521391   3.690   7.037  13.839  0.6758  0.3998 -0.1059
  175DOPC  H15R21392   3.799   7.033  13.815  0.7674 -1.5364  0.4265
  175DOPC  H15S21393   3.673   6.969  13.926  2.8334  2.1639  1.8446
  175DOPC  C21621394   3.653   7.171  13.904 -0.6156  0.3922  0.0325
  175DOPC  H16R21395   3.656   7.246  13.822 -1.5700  0.1840 -0.2035
  175DOPC  H16S21396   3.717   7.191  13.992 -0.9895  0.1810  0.3584
  175DOPC  C21721397   3.514   7.183  13.956  0.6336 -0.0363  0.3088
  175DOPC  H17R21398   3.495   7.099  14.027  1.3803 -0.7272 -0.2853
  175DOPC  H17S21399   3.442   7.182  13.872  0.7202  2.1238  0.1540
  175DOPC  C21821400   3.488   7.318  14.029  1.0355 -0.2715  0.6908
  175DOPC  H18R21401   3.509   7.401  13.957  1.6194 -1.3452 -0.4175
  175DOPC  H18S21402   3.555   7.321  14.117  1.1577 -0.6740  0.6107
  175DOPC  H18T21403   3.387   7.332  14.072  0.9129 -2.5198  1.2005
  175DOPC   C3321404   3.220   7.053  13.103 -0.3086  0.4970 -0.3959
  175DOPC   H3X21405   3.243   7.157  13.069  2.2357  0.5195  1.1834
  175DOPC   H3Y21406   3.319   7.009  13.129 -0.3146 -1.3498 -3.0880
  175DOPC   C3421407   3.122   7.060  13.228  0.3160  0.0480  0.5500
  175DOPC   H4X21408   3.096   6.954  13.251  1.2612 -0.6333 -1.2978
  175DOPC   H4Y21409   3.024   7.106  13.205  0.1955 -0.2002  0.5568
  175DOPC   C3521410   3.196   7.110  13.355  0.3387 -0.0416  0.0327
  175DOPC   H5X21411   3.251   7.200  13.318  0.2739  0.7719  1.8254
  175DOPC   H5Y21412   3.262   7.031  13.395  0.1969 -0.2932 -0.2301
  175DOPC   C3621413   3.100   7.150  13.465  0.4687  0.2926  0.4315
  175DOPC   H6X21414   3.026   7.217  13.416  0.4173  0.7542  1.1174
  175DOPC   H6Y21415   3.045   7.057  13.488 -1.8411  1.3414 -0.5843
  175DOPC   C3721416   3.178   7.209  13.585 -0.0915  0.2722  0.2322
  175DOPC   H7X21417   3.238   7.128  13.633 -0.3911  0.7884  1.5141
  175DOPC   H7Y21418   3.256   7.285  13.565 -1.7542  1.7451 -0.9038
  175DOPC   C3821419   3.082   7.265  13.692 -0.1405 -0.4262 -0.2662
  175DOPC   H8X21420   3.000   7.321  13.642 -2.4160 -2.5549  0.9156
  175DOPC   H8Y21421   3.133   7.329  13.767 -1.8223  0.7974 -0.0989
  175DOPC   C3921422   3.007   7.156  13.753  0.6094  0.3211 -0.5060
  175DOPC   H9X21423   3.025   7.057  13.710  1.9610  0.3676 -0.0895
  175DOPC  C31021424   2.935   7.167  13.865  0.5419 -0.7051 -0.3097
  175DOPC  H10X21425   2.870   7.084  13.895 -0.3411 -0.5603 -1.7696
  175DOPC  C31121426   2.910   7.281  13.956 -0.1104 -0.5980 -0.0757
  175DOPC  H11X21427   2.802   7.305  13.971  0.4873  1.3630  1.6232
  175DOPC  H11Y21428   2.936   7.384  13.923  1.6593 -0.3214  1.9337
  175DOPC  C31221429   2.964   7.249  14.098 -0.1928 -0.4589  0.3555
  175DOPC  H12X21430   3.062   7.198  14.103 -0.8245 -1.9056 -1.0083
  175DOPC  H12Y21431   2.900   7.181  14.159 -0.8371  1.6144  2.1022
  175DOPC  C31321432   2.975   7.382  14.178 -0.1052 -0.7336 -0.3352
  175DOPC  H13X21433   3.034   7.458  14.124  0.0316  1.0975  2.2145
  175DOPC  H13Y21434   2.876   7.428  14.198  1.9304  3.0951  2.2473
  175DOPC  C31421435   3.039   7.353  14.318  0.2082  0.4396  0.2862
  175DOPC  H14X21436   3.008   7.451  14.359 -1.2564  0.5347 -0.9595
  175DOPC  H14Y21437   2.992   7.265  14.366  1.9776  0.9569  3.2297
  175DOPC  C31521438   3.189   7.336  14.317  0.4900 -0.6336  0.2423
  175DOPC  H15X21439   3.239   7.434  14.304 -1.7308  0.6529  0.9875
  175DOPC  H15Y21440   3.222   7.262  14.240 -1.4351 -0.9296 -0.3649
  175DOPC  C31621441   3.233   7.280  14.454 -0.4871 -0.0982 -0.4762
  175DOPC  H16X21442   3.213   7.351  14.536 -0.9983  1.4788 -1.9245
  175DOPC  H16Y21443   3.179   7.187  14.481  0.1581  0.0823  1.5775
  175DOPC  C31721444   3.382   7.239  14.453 -0.0207 -0.2616 -0.0386
  175DOPC  H17X21445   3.400   7.159  14.378  0.7652  1.6525 -2.0052
  175DOPC  H17Y21446   3.443   7.323  14.413  0.7924 -1.3392 -1.1249
  175DOPC  C31821447   3.444   7.192  14.585  0.4974 -0.2482 -0.3007
  175DOPC  H18X21448   3.430   7.263  14.669 -3.7948 -1.0311 -0.1351
  175DOPC  H18Y21449   3.415   7.087  14.603  2.2768 -0.7253 -0.0779
  175DOPC  H18Z21450   3.554   7.192  14.566  0.3364 -2.7696 -1.5729
  176DOPC     N21451   3.721   2.210  12.004  0.4177  0.3469  0.0677
  176DOPC   C1221452   3.759   2.344  12.075  0.0358 -0.0231  0.6656
  176DOPC  H12A21453   3.792   2.405  11.993  1.7492 -4.6623 -2.5488
  176DOPC  H12B21454   3.851   2.323  12.128  2.6078  2.2221 -2.5270
  176DOPC   C1321455   3.735   2.095  12.102  0.1640  1.0221  0.2873
  176DOPC  H13A21456   3.712   1.996  12.066 -2.1010  0.7923  2.1598
  176DOPC  H13B21457   3.831   2.102  12.150  1.0916  0.2650 -1.3581
  176DOPC  H13C21458   3.663   2.111  12.181 -1.0821 -1.5062 -0.2326
  176DOPC   C1421459   3.821   2.184  11.893  0.0194  0.3095  0.1598
  176DOPC  H14A21460   3.925   2.198  11.920  0.6609  3.5613 -3.3049
  176DOPC  H14B21461   3.810   2.086  11.850  2.2182 -1.3010  2.9474
  176DOPC  H14C21462   3.815   2.263  11.820 -1.4554 -0.4309 -0.5761
  176DOPC   C1521463   3.583   2.210  11.946 -0.2608 -0.5640 -0.1844
  176DOPC  H15A21464   3.576   2.290  11.873  0.5086 -0.3241  0.0009
  176DOPC  H15B21465   3.509   2.232  12.022 -1.0703  0.9467 -1.3341
  176DOPC  H15C21466   3.566   2.111  11.907  1.8322 -1.0626  0.0800
  176DOPC   C1121467   3.643   2.394  12.158 -0.4135 -0.8956  0.0035
  176DOPC  H11A21468   3.662   2.499  12.191  0.3938 -0.3031 -2.1705
  176DOPC  H11B21469   3.544   2.395  12.108 -0.5800  1.2121  0.2880
  176DOPC     P21470   3.531   2.309  12.375 -0.0318 -0.1639 -0.0765
  176DOPC   O1321471   3.569   2.215  12.483  0.8717 -0.4442 -0.5722
  176DOPC   O1421472   3.404   2.288  12.302  0.0453 -0.1614 -0.5628
  176DOPC   O1221473   3.648   2.308  12.276 -0.1223 -0.6404 -0.0988
  176DOPC   O1121474   3.535   2.454  12.431  0.6651 -0.1923  0.3621
  176DOPC    C121475   3.642   2.504  12.517 -0.2562 -0.0488 -0.7348
  176DOPC    HA21476   3.678   2.602  12.478  0.1979 -0.5156 -1.5154
  176DOPC    HB21477   3.733   2.440  12.515  0.8189  1.4006 -0.3027
  176DOPC    C221478   3.589   2.532  12.656 -0.5703 -0.1603  0.2961
  176DOPC    HS21479   3.672   2.580  12.711 -0.9423  3.1947 -1.7805
  176DOPC   O2121480   3.528   2.412  12.714 -0.1220  0.4625 -0.3484
  176DOPC   C2121481   3.620   2.335  12.778 -0.2868 -0.0184 -0.1782
  176DOPC   O2221482   3.738   2.366  12.789  0.1931  0.2263  0.2930
  176DOPC   C2221483   3.547   2.206  12.826  0.1284  0.2278 -0.1919
  176DOPC   H2R21484   3.579   2.121  12.763  0.2530 -0.6804  1.0398
  176DOPC   H2S21485   3.438   2.228  12.825 -0.5740 -2.8083 -1.4650
  176DOPC    C321486   3.478   2.644  12.650  0.4088  0.1152 -0.2444
  176DOPC    HX21487   3.387   2.610  12.596  0.4156  0.7844 -0.6775
  176DOPC    HY21488   3.514   2.728  12.588  2.0407  0.5683  1.2487
  176DOPC   O3121489   3.450   2.695  12.783  0.0925  0.5764 -0.6300
  176DOPC   C3121490   3.330   2.661  12.830 -0.3229  0.2041  0.1446
  176DOPC   O3221491   3.253   2.582  12.778 -0.0836 -0.0622 -0.0429
  176DOPC   C3221492   3.301   2.738  12.958 -1.0570  0.3958 -0.2066
  176DOPC   H2X21493   3.361   2.831  12.957 -1.9536  1.2966  4.6879
  176DOPC   H2Y21494   3.196   2.772  12.947 -1.6143 -0.7887  1.1418
  176DOPC   C2321495   3.577   2.167  12.968  0.4486 -0.5970 -0.4481
  176DOPC   H3R21496   3.503   2.095  13.009  0.1756 -0.7897 -1.2586
  176DOPC   H3S21497   3.567   2.261  13.026 -0.6991 -0.1214 -1.3971
  176DOPC   C2421498   3.718   2.107  13.001  0.4390 -0.3180  0.5989
  176DOPC   H4R21499   3.786   2.191  12.975 -0.1067  0.5735  1.9122
  176DOPC   H4S21500   3.744   2.015  12.943  1.5825 -0.2408  0.9512
  176DOPC   C2521501   3.736   2.080  13.153  0.1907  0.2232 -0.7477
  176DOPC   H5R21502   3.839   2.051  13.184  0.2652 -0.0009 -1.2024
  176DOPC   H5S21503   3.669   1.996  13.180  1.4616 -0.4638  0.3584
  176DOPC   C2621504   3.698   2.200  13.246 -0.4320  0.1525  0.4826
  176DOPC   H6R21505   3.588   2.217  13.240 -0.4436  0.6908  1.9951
  176DOPC   H6S21506   3.749   2.296  13.226  0.7652 -0.5569  0.0268
  176DOPC   C2721507   3.725   2.168  13.389  0.0799 -0.4213 -0.1468
  176DOPC   H7R21508   3.831   2.140  13.408 -0.4402 -1.7877  0.8860
  176DOPC   H7S21509   3.667   2.074  13.395 -1.4543  0.2123 -3.0973
  176DOPC   C2821510   3.678   2.272  13.489 -1.0568  0.2176 -0.2898
  176DOPC   H8R21511   3.569   2.293  13.492 -1.0264  0.2788  1.1427
  176DOPC   H8S21512   3.724   2.369  13.462 -1.1409  0.6675  1.1258
  176DOPC   C2921513   3.705   2.240  13.631  0.1762  0.4081  0.2915
  176DOPC   H9R21514   3.675   2.137  13.657  1.5060 -0.9617 -3.0417
  176DOPC  C21021515   3.752   2.325  13.724 -0.9143  0.9705 -0.4956
  176DOPC  H10R21516   3.784   2.285  13.821  2.2353  0.4645 -1.6292
  176DOPC  C21121517   3.797   2.465  13.702 -0.6796  0.4639  0.1152
  176DOPC  H11R21518   3.716   2.532  13.665 -0.3869  0.2754 -0.9026
  176DOPC  H11S21519   3.877   2.469  13.625 -1.3970  1.1522 -0.6145
  176DOPC  C21221520   3.864   2.526  13.834  0.3150 -0.4106  0.0506
  176DOPC  H12R21521   3.913   2.623  13.810 -0.9328  0.3186  0.3551
  176DOPC  H12S21522   3.946   2.459  13.865 -0.0553  0.5263  3.3871
  176DOPC  C21321523   3.766   2.546  13.944  0.6013  0.0920 -1.0520
  176DOPC  H13R21524   3.714   2.451  13.969  2.6707 -1.3132 -1.8380
  176DOPC  H13S21525   3.685   2.620  13.925 -0.2525 -0.9338 -1.5095
  176DOPC  C21421526   3.835   2.600  14.074 -0.0923 -0.2809 -0.1367
  176DOPC  H14R21527   3.879   2.702  14.061  0.1098 -0.1057  1.6791
  176DOPC  H14S21528   3.918   2.532  14.105 -0.0895 -0.0664  0.3249
  176DOPC  C21521529   3.742   2.625  14.191  0.3074  0.2985 -0.2220
  176DOPC  H15R21530   3.676   2.536  14.203  1.1724 -0.0877  2.2847
  176DOPC  H15S21531   3.671   2.706  14.162  0.5447  0.4625 -0.3459
  176DOPC  C21621532   3.817   2.659  14.319  0.1919 -0.5010  0.2069
  176DOPC  H16R21533   3.877   2.575  14.362 -0.0624  0.9491  3.7899
  176DOPC  H16S21534   3.743   2.682  14.399 -0.3162 -0.8967 -0.1371
  176DOPC  C21721535   3.925   2.776  14.310  0.0259 -0.6716  0.5058
  176DOPC  H17R21536   4.001   2.740  14.237  1.2012  1.3374  0.6452
  176DOPC  H17S21537   3.988   2.794  14.400  0.1754  2.3885 -0.0781
  176DOPC  C21821538   3.881   2.917  14.271 -0.1857  0.5514  0.0341
  176DOPC  H18R21539   3.813   2.975  14.337 -1.3270  0.9054 -1.3900
  176DOPC  H18S21540   3.816   2.901  14.182 -0.4392  0.3087  0.2618
  176DOPC  H18T21541   3.967   2.980  14.240 -0.6493  1.2600  0.1655
  176DOPC   C3321542   3.326   2.653  13.084  0.2978 -0.8490  0.4599
  176DOPC   H3X21543   3.426   2.609  13.065  1.2157  0.5879  1.6829
  176DOPC   H3Y21544   3.253   2.571  13.101  0.4875 -0.8652  1.2475
  176DOPC   C3421545   3.343   2.739  13.211  0.7545 -0.2444 -0.3453
  176DOPC   H4X21546   3.393   2.831  13.174  1.2736 -0.2433  0.3292
  176DOPC   H4Y21547   3.412   2.694  13.286  0.2350  0.9663  0.9119
  176DOPC   C3521548   3.211   2.759  13.277 -0.7591 -0.6212 -0.4291
  176DOPC   H5X21549   3.192   2.665  13.332 -0.7051  0.3513  1.3050
  176DOPC   H5Y21550   3.122   2.777  13.212  0.3906  0.8349 -1.6759
  176DOPC   C3621551   3.211   2.880  13.370  0.0277  0.1168 -0.0621
  176DOPC   H6X21552   3.299   2.865  13.436  0.3146  0.5044 -0.3528
  176DOPC   H6Y21553   3.224   2.972  13.308  0.7278 -0.0616 -0.1914
  176DOPC   C3721554   3.080   2.909  13.435 -0.1731  0.3464  0.0590
  176DOPC   H7X21555   2.996   2.908  13.362  0.1169 -1.5805 -0.3024
  176DOPC   H7Y21556   3.070   2.818  13.498  1.2600 -0.4021 -0.7426
  176DOPC   C3821557   3.076   3.038  13.525 -0.6087 -0.2729  1.0039
  176DOPC   H8X21558   3.104   3.123  13.459 -0.5843 -1.3033 -0.3751
  176DOPC   H8Y21559   3.164   3.015  13.590  2.5403  0.2915 -2.6546
  176DOPC   C3921560   2.943   3.071  13.583 -0.6053 -0.3900 -0.3816
  176DOPC   H9X21561   2.865   3.065  13.505  0.3055 -3.2776 -1.1646
  176DOPC  C31021562   2.919   3.108  13.708 -0.3604 -0.1231 -0.1135
  176DOPC  H10X21563   2.812   3.117  13.732 -1.2531 -2.2492 -2.7495
  176DOPC  C31121564   3.027   3.132  13.816  0.1016  0.5068  0.1456
  176DOPC  H11X21565   3.126   3.083  13.797  0.1043 -0.4560  2.3132
  176DOPC  H11Y21566   2.995   3.088  13.913  1.6303 -0.2791  0.3262
  176DOPC  C31221567   3.048   3.281  13.847  0.1589  0.1106 -0.0234
  176DOPC  H12X21568   2.947   3.312  13.882  1.0865 -0.2073  3.3101
  176DOPC  H12Y21569   3.096   3.330  13.760 -0.0640 -0.1632 -0.3014
  176DOPC  C31321570   3.140   3.314  13.973 -0.2622  0.0698  0.4334
  176DOPC  H13X21571   3.243   3.274  13.959  0.5158  2.2741 -0.6512
  176DOPC  H13Y21572   3.149   3.423  13.993  2.3796 -0.0514  0.2592
  176DOPC  C31421573   3.093   3.240  14.097 -0.4566  0.0311 -0.8218
  176DOPC  H14X21574   3.091   3.131  14.079  1.3694 -0.4424  1.3719
  176DOPC  H14Y21575   3.158   3.253  14.186 -3.7014 -0.9645  1.9286
  176DOPC  C31521576   2.960   3.293  14.150  0.1251  0.0286 -1.1053
  176DOPC  H15X21577   2.887   3.317  14.070 -1.8724 -1.2323  0.2536
  176DOPC  H15Y21578   2.982   3.380  14.216  1.1058 -1.6103  0.8277
  176DOPC  C31621579   2.882   3.194  14.230 -0.3870  0.5493 -0.3284
  176DOPC  H16X21580   2.861   3.106  14.166  1.5918 -0.2894  0.1197
  176DOPC  H16Y21581   2.928   3.154  14.323  0.1169 -1.3082 -1.3404
  176DOPC  C31721582   2.748   3.243  14.292 -0.5705 -0.0227 -0.8558
  176DOPC  H17X21583   2.713   3.326  14.227 -0.2001  0.7877 -0.0385
  176DOPC  H17Y21584   2.677   3.158  14.292 -0.9157  0.2391  0.5228
  176DOPC  C31821585   2.770   3.318  14.428  0.5368  0.1128  0.0880
  176DOPC  H18X21586   2.849   3.395  14.419  0.5773 -0.1626 -2.9652
  176DOPC  H18Y21587   2.675   3.362  14.463 -0.7484 -1.0525 -1.7484
  176DOPC  H18Z21588   2.811   3.247  14.504  0.9126  0.3968  0.1501
  177DOPC     N21589   3.806   5.973  12.072  0.3929 -0.2854 -0.1097
  177DOPC   C1221590   3.791   6.067  12.187  0.0092  0.2676 -0.4143
  177DOPC  H12A21591   3.690   6.105  12.180 -0.3391 -0.7452 -1.1783
  177DOPC  H12B21592   3.840   6.162  12.168 -1.9583  1.1325 -1.5069
  177DOPC   C1321593   3.715   5.859  12.094  0.4143 -0.2759  0.0618
  177DOPC  H13A21594   3.713   5.794  12.008  3.7430  0.1054 -0.4382
  177DOPC  H13B21595   3.750   5.802  12.179 -0.2896 -1.5119 -0.4487
  177DOPC  H13C21596   3.615   5.887  12.122  1.2681  2.4035  0.7102
  177DOPC   C1421597   3.947   5.924  12.063  0.0926  0.1791 -0.5225
  177DOPC  H14A21598   3.960   5.885  11.963  1.4593 -0.6172 -0.0623
  177DOPC  H14B21599   4.021   6.002  12.072 -3.0393  3.4261 -0.6929
  177DOPC  H14C21600   3.964   5.846  12.135  2.6118  0.5529 -0.6252
  177DOPC   C1521601   3.769   6.025  11.942 -0.2260 -0.6874  0.6970
  177DOPC  H15A21602   3.673   6.073  11.931  0.7647  0.9531 -1.6969
  177DOPC  H15B21603   3.783   5.952  11.864  2.2594  1.3566 -0.9259
  177DOPC  H15C21604   3.848   6.091  11.911 -0.1542 -1.3753 -0.6516
  177DOPC   C1121605   3.828   6.019  12.328  0.1509 -0.2299 -0.1766
  177DOPC  H11A21606   3.786   6.094  12.398  0.3092 -0.9122  0.6614
  177DOPC  H11B21607   3.771   5.932  12.366 -0.0225  0.6056  1.5593
  177DOPC     P21608   4.056   6.123  12.379  0.2169 -0.5318  0.5460
  177DOPC   O1321609   3.998   6.248  12.331  0.3309  0.6795 -0.7211
  177DOPC   O1421610   4.201   6.096  12.340 -0.2164 -0.1692 -0.2880
  177DOPC   O1221611   3.966   6.002  12.337  0.0019 -0.7470  0.2884
  177DOPC   O1121612   4.039   6.122  12.532  0.0710 -0.4494 -0.1894
  177DOPC    C121613   4.017   6.026  12.624  0.3812 -0.1100 -0.2232
  177DOPC    HA21614   4.073   5.933  12.603 -1.8825 -1.1637 -2.1209
  177DOPC    HB21615   3.910   5.995  12.616 -0.1602  1.6061 -0.0446
  177DOPC    C221616   4.067   6.085  12.764  0.1235 -0.3731 -0.0042
  177DOPC    HS21617   4.048   6.004  12.838  0.2334 -0.4661 -0.0773
  177DOPC   O2121618   3.990   6.208  12.785  0.3659 -0.1711  0.0635
  177DOPC   C2121619   3.872   6.186  12.821 -0.0769  0.8258 -0.0147
  177DOPC   O2221620   3.811   6.078  12.828 -0.4032  0.8369  0.0986
  177DOPC   C2221621   3.795   6.316  12.848 -0.4806 -0.3023  0.4136
  177DOPC   H2R21622   3.689   6.285  12.839 -0.6519  0.4133 -0.1188
  177DOPC   H2S21623   3.816   6.380  12.760  0.0594 -2.1847 -0.8836
  177DOPC    C321624   4.228   6.100  12.756  0.4164 -0.2891 -0.1272
  177DOPC    HX21625   4.248   6.177  12.678  1.0645 -1.5160 -1.2224
  177DOPC    HY21626   4.260   6.000  12.720  2.7525  1.1263 -2.4151
  177DOPC   O3121627   4.278   6.133  12.886  0.0535 -0.9005 -0.1421
  177DOPC   C3121628   4.288   6.259  12.921  0.4476 -0.5828  0.7727
  177DOPC   O3221629   4.260   6.353  12.847 -0.0929 -0.0582 -0.4069
  177DOPC   C3221630   4.325   6.267  13.067  0.5135  0.1281 -0.0381
  177DOPC   H2X21631   4.412   6.201  13.091 -0.3470 -0.3913  1.8781
  177DOPC   H2Y21632   4.347   6.375  13.087 -0.8738  0.2286  1.1359
  177DOPC   C2321633   3.823   6.376  12.989 -0.4928  0.1968 -0.3189
  177DOPC   H3R21634   3.766   6.471  13.002 -2.2346 -0.8923  0.4310
  177DOPC   H3S21635   3.929   6.406  12.999 -0.3570 -0.4394  0.2307
  177DOPC   C2421636   3.788   6.290  13.113  0.1960  0.4464  0.8654
  177DOPC   H4R21637   3.816   6.185  13.096 -1.5330 -0.0234  0.6585
  177DOPC   H4S21638   3.677   6.280  13.124  0.2652 -0.3147  0.8902
  177DOPC   C2521639   3.836   6.335  13.251 -0.1268 -0.0362 -0.6413
  177DOPC   H5R21640   3.809   6.443  13.256 -1.8161 -0.3785 -1.6055
  177DOPC   H5S21641   3.946   6.321  13.246  0.3064  1.7564  1.9148
  177DOPC   C2621642   3.772   6.256  13.373  0.6603 -0.3741  0.4219
  177DOPC   H6R21643   3.823   6.159  13.391 -0.1782 -1.1340 -1.1229
  177DOPC   H6S21644   3.664   6.236  13.359  1.0755 -1.2635 -1.9930
  177DOPC   C2721645   3.796   6.336  13.504 -0.5782  0.0778  0.4360
  177DOPC   H7R21646   3.765   6.441  13.490  3.7623  1.4859  0.1620
  177DOPC   H7S21647   3.905   6.336  13.525 -0.5752  1.2353  0.4306
  177DOPC   C2821648   3.736   6.272  13.628  0.0269 -0.1580  0.2907
  177DOPC   H8R21649   3.775   6.172  13.655 -0.7313 -1.0438 -1.6889
  177DOPC   H8S21650   3.626   6.263  13.617 -0.2604  1.1310  1.6583
  177DOPC   C2921651   3.767   6.367  13.747 -0.0243  0.2039 -0.3403
  177DOPC   H9R21652   3.850   6.437  13.731 -0.6021  1.1241  0.5417
  177DOPC  C21021653   3.708   6.355  13.867  1.1743  0.4506  0.4806
  177DOPC  H10R21654   3.733   6.420  13.952 -2.8123  2.7727  0.1089
  177DOPC  C21121655   3.614   6.251  13.901 -0.2076 -0.4946 -0.3080
  177DOPC  H11R21656   3.587   6.194  13.810 -2.4136  0.0528 -0.0685
  177DOPC  H11S21657   3.515   6.283  13.941  1.3084  2.1152  1.6279
  177DOPC  C21221658   3.666   6.146  14.005  0.5990 -0.0340 -0.9428
  177DOPC  H12R21659   3.767   6.106  13.984  2.2510  3.2916 -0.0194
  177DOPC  H12S21660   3.583   6.072  13.999  2.0863 -2.0594  1.4123
  177DOPC  C21321661   3.661   6.198  14.151  0.0419  0.6624 -0.5129
  177DOPC  H13R21662   3.715   6.295  14.156  2.1475 -0.5243  2.7468
  177DOPC  H13S21663   3.711   6.129  14.222  1.7829 -1.1924 -3.3483
  177DOPC  C21421664   3.519   6.226  14.200 -0.2733 -0.1625 -0.0507
  177DOPC  H14R21665   3.457   6.135  14.210 -1.6040  0.6541 -0.5762
  177DOPC  H14S21666   3.457   6.277  14.122 -2.4402 -0.0955  1.6207
  177DOPC  C21521667   3.528   6.314  14.324  0.0681 -1.1591 -0.4764
  177DOPC  H15R21668   3.561   6.417  14.300 -1.8090 -0.0809  1.2389
  177DOPC  H15S21669   3.594   6.257  14.393  0.2415 -1.4793 -0.9004
  177DOPC  C21621670   3.395   6.322  14.415  0.1882  0.6067 -0.2881
  177DOPC  H16R21671   3.343   6.224  14.405 -0.8007  1.0457  0.3376
  177DOPC  H16S21672   3.320   6.394  14.375 -0.0642 -1.3288 -3.6882
  177DOPC  C21721673   3.428   6.356  14.557  0.1773  0.1336  0.3473
  177DOPC  H17R21674   3.495   6.445  14.554 -0.7007  0.8209  0.4316
  177DOPC  H17S21675   3.487   6.273  14.602  1.1476  1.1543  1.0294
  177DOPC  C21821676   3.297   6.378  14.640  0.1952  0.4895 -0.2651
  177DOPC  H18R21677   3.224   6.294  14.635  3.8557 -2.9483 -1.7950
  177DOPC  H18S21678   3.244   6.469  14.607 -3.3952 -1.2387  0.3145
  177DOPC  H18T21679   3.322   6.382  14.749  0.6860 -2.1153 -0.2073
  177DOPC   C3321680   4.214   6.234  13.169 -0.0659  0.4792 -0.2686
  177DOPC   H3X21681   4.169   6.142  13.126  0.9605 -0.9324  1.5314
  177DOPC   H3Y21682   4.131   6.308  13.160  0.2068  0.8290  0.0533
  177DOPC   C3421683   4.270   6.229  13.311 -0.1712  0.4990 -0.1370
  177DOPC   H4X21684   4.300   6.332  13.340 -2.8143  0.8338  1.7339
  177DOPC   H4Y21685   4.344   6.147  13.312 -2.5649 -1.7851  0.4631
  177DOPC   C3521686   4.162   6.189  13.413  0.2025  0.1174  0.5009
  177DOPC   H5X21687   4.124   6.089  13.382  0.3464  0.4963 -0.9675
  177DOPC   H5Y21688   4.077   6.260  13.401  0.4817  0.4399  0.4164
  177DOPC   C3621689   4.210   6.181  13.559 -0.3628 -0.5500  0.8505
  177DOPC   H6X21690   4.278   6.094  13.569  1.8650  0.5995 -2.7034
  177DOPC   H6Y21691   4.268   6.273  13.580 -0.8760 -0.2727  1.0871
  177DOPC   C3721692   4.090   6.165  13.651  0.5043 -0.6388  0.5706
  177DOPC   H7X21693   4.034   6.260  13.661  0.7411  0.2263 -4.0122
  177DOPC   H7Y21694   4.015   6.101  13.599  0.2020 -0.9884  1.4208
  177DOPC   C3821695   4.126   6.097  13.779  0.3495 -0.4271 -0.7444
  177DOPC   H8X21696   4.160   5.997  13.746  2.6967  0.0227  0.1425
  177DOPC   H8Y21697   4.031   6.087  13.836 -0.2527  0.6051 -1.5297
  177DOPC   C3921698   4.234   6.159  13.866  0.5931 -0.6935 -0.0634
  177DOPC   H9X21699   4.321   6.092  13.876  1.6831  0.8252  1.2870
  177DOPC  C31021700   4.227   6.265  13.944  0.0618 -0.9574  0.1707
  177DOPC  H10X21701   4.314   6.301  14.001 -0.4903  2.8229 -1.0876
  177DOPC  C31121702   4.112   6.356  13.952 -0.2319  0.2231 -1.1364
  177DOPC  H11X21703   4.024   6.290  13.967  0.7418 -0.9921 -0.5948
  177DOPC  H11Y21704   4.093   6.409  13.856 -1.8986  0.7822 -0.5402
  177DOPC  C31221705   4.114   6.459  14.069  0.2572  0.3994  0.3195
  177DOPC  H12X21706   4.206   6.520  14.061  1.5158 -1.3121  1.2337
  177DOPC  H12Y21707   4.126   6.405  14.165 -0.1995 -0.6370 -0.1843
  177DOPC  C31321708   3.981   6.544  14.079  0.0357  0.1296 -0.4886
  177DOPC  H13X21709   3.978   6.622  14.000  0.5755  2.5288  1.7135
  177DOPC  H13Y21710   3.895   6.475  14.065 -0.4420  0.0283  2.4391
  177DOPC  C31421711   3.973   6.622  14.209  0.1887  0.1133  0.3826
  177DOPC  H14X21712   4.075   6.665  14.221 -0.6795  2.1365  1.0439
  177DOPC  H14Y21713   3.892   6.699  14.203 -1.9535 -2.0844 -0.5459
  177DOPC  C31521714   3.946   6.529  14.332 -0.1595 -0.6227  0.1753
  177DOPC  H15X21715   4.011   6.439  14.344  1.3511  0.6901  2.4951
  177DOPC  H15Y21716   3.840   6.494  14.324 -0.9158  0.9590  2.4253
  177DOPC  C31621717   3.963   6.612  14.457 -0.7923 -0.2421 -1.1424
  177DOPC  H16X21718   4.068   6.636  14.484 -1.0729 -1.0882  0.9659
  177DOPC  H16Y21719   3.903   6.705  14.457 -0.7355 -0.2008 -2.1743
  177DOPC  C31721720   3.917   6.530  14.585 -0.8390 -0.2946 -0.3079
  177DOPC  H17X21721   3.817   6.486  14.561 -0.7973 -0.5550 -0.0155
  177DOPC  H17Y21722   3.978   6.439  14.602 -2.4697 -1.4439 -0.2878
  177DOPC  C31821723   3.929   6.596  14.718 -0.1516 -0.1036 -0.1972
  177DOPC  H18X21724   3.874   6.522  14.780 -0.1086 -0.3475 -0.4453
  177DOPC  H18Y21725   4.038   6.600  14.740  0.2451  1.2066 -2.1296
  177DOPC  H18Z21726   3.892   6.700  14.730  1.4853  0.3779  0.9290
  178DOPC     N21727   3.557   7.635  12.170 -0.5178 -0.3392 -0.4339
  178DOPC   C1221728   3.585   7.644  12.319 -0.2343  0.2319 -0.3785
  178DOPC  H12A21729   3.565   7.747  12.343 -0.5882 -0.0623  0.6144
  178DOPC  H12B21730   3.690   7.634  12.341 -0.2601  1.2412  0.2781
  178DOPC   C1321731   3.663   7.720  12.106  0.3985  0.1169  0.1816
  178DOPC  H13A21732   3.757   7.669  12.106  0.5559  0.2599 -2.4979
  178DOPC  H13B21733   3.627   7.745  12.007 -1.4355  2.9615  1.4260
  178DOPC  H13C21734   3.683   7.812  12.158  3.3941 -1.2082  1.5646
  178DOPC   C1421735   3.425   7.697  12.140 -0.5150  0.2189 -0.0766
  178DOPC  H14A21736   3.347   7.642  12.191 -0.2936 -0.7142 -0.7025
  178DOPC  H14B21737   3.420   7.793  12.189  0.6731  0.3806 -0.2256
  178DOPC  H14C21738   3.403   7.703  12.034 -0.6803 -0.2314 -0.0686
  178DOPC   C1521739   3.544   7.493  12.127  0.6009  0.1316  0.3666
  178DOPC  H15A21740   3.630   7.433  12.150  0.0134 -1.0639 -0.4711
  178DOPC  H15B21741   3.521   7.497  12.021  0.8874  0.5904  0.3195
  178DOPC  H15C21742   3.466   7.438  12.178  2.8081 -0.8448  2.9562
  178DOPC   C1121743   3.498   7.552  12.412 -0.1714 -0.3732  0.2784
  178DOPC  H11A21744   3.526   7.447  12.391  1.5439  0.0870  0.0618
  178DOPC  H11B21745   3.532   7.564  12.518  0.5510 -0.5553  0.0761
  178DOPC     P21746   3.294   7.689  12.462  0.4920  0.0899 -0.0541
  178DOPC   O1321747   3.151   7.679  12.434 -0.4846  0.3456  0.0280
  178DOPC   O1421748   3.352   7.814  12.402 -0.1476  0.0406 -0.1210
  178DOPC   O1221749   3.358   7.565  12.390 -0.5442  0.4674  0.2739
  178DOPC   O1121750   3.321   7.678  12.608 -0.3475 -0.5162 -0.1813
  178DOPC    C121751   3.290   7.569  12.697  0.3196  0.3304 -0.2403
  178DOPC    HA21752   3.333   7.471  12.666  0.2386 -0.0729  0.8907
  178DOPC    HB21753   3.182   7.541  12.690  0.2769  0.6543 -1.0039
  178DOPC    C221754   3.318   7.594  12.852 -0.3167  0.5317  0.1581
  178DOPC    HS21755   3.246   7.671  12.886 -0.1848  0.0293  1.6416
  178DOPC   O2121756   3.457   7.617  12.877  0.3522  0.5425  0.1867
  178DOPC   C2121757   3.480   7.740  12.916  0.1391  1.1375  0.0396
  178DOPC   O2221758   3.399   7.826  12.938 -0.3540 -0.1591  0.0862
  178DOPC   C2221759   3.631   7.755  12.936 -0.0782 -0.2830 -0.9861
  178DOPC   H2R21760   3.647   7.864  12.932  1.6583 -0.2923  2.0769
  178DOPC   H2S21761   3.678   7.706  12.848 -0.3040 -0.6723 -0.8931
  178DOPC    C321762   3.285   7.459  12.927 -0.0688  0.0458  0.4313
  178DOPC    HX21763   3.363   7.384  12.899 -0.2866  0.3378 -1.0642
  178DOPC    HY21764   3.192   7.420  12.881  0.2148 -0.1178 -0.0106
  178DOPC   O3121765   3.283   7.490  13.075 -0.5170  0.2407  0.1149
  178DOPC   C3121766   3.165   7.490  13.135 -0.7101 -0.2512  0.1935
  178DOPC   O3221767   3.057   7.448  13.093  0.4555 -0.2726  0.1730
  178DOPC   C3221768   3.182   7.542  13.282 -0.0523 -0.2728  0.3069
  178DOPC   H2X21769   3.257   7.480  13.335 -0.3845  0.3375  1.5283
  178DOPC   H2Y21770   3.220   7.647  13.276  1.0818 -0.7653 -2.8193
  178DOPC   C2321771   3.676   7.686  13.065 -0.0081 -0.4925  0.3868
  178DOPC   H3R21772   3.787   7.683  13.064  0.0607  0.1417 -2.5289
  178DOPC   H3S21773   3.646   7.580  13.079  0.8924 -0.6473  1.2520
  178DOPC   C2421774   3.643   7.769  13.194 -0.0144  0.2411 -0.1172
  178DOPC   H4R21775   3.533   7.759  13.202 -0.0382 -2.1212 -2.1438
  178DOPC   H4S21776   3.680   7.874  13.198  1.1081 -0.1584  0.2739
  178DOPC   C2521777   3.708   7.701  13.316  0.2783 -0.4293  0.3942
  178DOPC   H5R21778   3.812   7.686  13.280 -0.8248 -1.8686 -2.5216
  178DOPC   H5S21779   3.666   7.599  13.326 -0.8538 -0.1892 -1.4216
  178DOPC   C2621780   3.692   7.769  13.453 -0.3493 -0.2209  0.7943
  178DOPC   H6R21781   3.734   7.870  13.432 -3.0169  0.6379 -0.8731
  178DOPC   H6S21782   3.757   7.714  13.524  2.9758  1.1084 -0.9757
  178DOPC   C2721783   3.540   7.800  13.480 -0.5896  0.4116 -1.1779
  178DOPC   H7R21784   3.471   7.795  13.393 -2.3736  3.1221 -0.0723
  178DOPC   H7S21785   3.532   7.906  13.513 -2.4617  0.2146 -0.8904
  178DOPC   C2821786   3.474   7.709  13.587 -0.0134 -0.2438 -0.8324
  178DOPC   H8R21787   3.546   7.702  13.671  0.3973  0.0366 -1.1552
  178DOPC   H8S21788   3.474   7.610  13.536 -1.1063 -1.1133  0.7899
  178DOPC   C2921789   3.333   7.757  13.624 -0.2879 -0.0949 -0.5091
  178DOPC   H9R21790   3.283   7.817  13.546 -2.5782  1.1838  1.7798
  178DOPC  C21021791   3.285   7.762  13.746  0.5645 -0.1609 -0.0152
  178DOPC  H10R21792   3.189   7.816  13.754  0.1612 -0.6511 -1.3653
  178DOPC  C21121793   3.335   7.691  13.867 -0.4629 -0.6563 -0.7630
  178DOPC  H11R21794   3.414   7.756  13.911 -0.4951 -1.1711  0.0754
  178DOPC  H11S21795   3.389   7.599  13.836  2.3699  0.9235 -0.8918
  178DOPC  C21221796   3.216   7.646  13.961  0.3209  0.3464  0.2769
  178DOPC  H12R21797   3.265   7.584  14.039  2.0450  0.4566 -0.6765
  178DOPC  H12S21798   3.147   7.582  13.902 -1.1994  1.8629  0.3092
  178DOPC  C21321799   3.142   7.762  14.027  0.6489  0.2932  0.9452
  178DOPC  H13R21800   3.096   7.831  13.953 -0.9498 -1.7842 -0.0964
  178DOPC  H13S21801   3.215   7.815  14.092  0.9313 -1.1935  1.9016
  178DOPC  C21421802   3.032   7.716  14.123  0.1309 -0.0722  0.5871
  178DOPC  H14R21803   3.074   7.646  14.198  2.2808 -1.9224 -2.1436
  178DOPC  H14S21804   2.959   7.654  14.067 -0.1866 -0.4641  1.4144
  178DOPC  C21521805   2.958   7.824  14.204 -0.0950 -0.7733  0.0206
  178DOPC  H15R21806   2.941   7.906  14.131 -0.1630  0.6092  1.5357
  178DOPC  H15S21807   3.022   7.867  14.284  0.5393 -2.2254  0.3337
  178DOPC  C21621808   2.820   7.775  14.249 -0.1698  1.1304 -0.2320
  178DOPC  H16R21809   2.826   7.705  14.335 -0.2505 -1.4595 -2.2109
  178DOPC  H16S21810   2.781   7.715  14.164  1.6275 -1.7784  0.8287
  178DOPC  C21721811   2.729   7.891  14.288  1.0289 -0.4018 -0.2226
  178DOPC  H17R21812   2.627   7.860  14.315 -0.0231  3.2405  0.5714
  178DOPC  H17S21813   2.719   7.959  14.201 -2.0454 -0.9875 -0.4347
  178DOPC  C21821814   2.778   7.980  14.407  0.2138 -0.0470  0.3153
  178DOPC  H18R21815   2.768   7.917  14.499 -1.7520 -0.6790 -0.2844
  178DOPC  H18S21816   2.710   8.068  14.408 -0.6809 -0.5995 -2.5795
  178DOPC  H18T21817   2.886   8.003  14.399  0.0628  0.6471  0.2341
  178DOPC   C3321818   3.049   7.534  13.355 -0.2260 -0.1609 -0.1851
  178DOPC   H3X21819   3.030   7.425  13.366 -0.5894 -0.4157 -2.6449
  178DOPC   H3Y21820   2.982   7.595  13.291 -0.1438  0.8363  0.6565
  178DOPC   C3421821   3.048   7.601  13.495  0.4397 -0.8051  0.1491
  178DOPC   H4X21822   3.103   7.698  13.488 -0.0821 -0.4189  1.1664
  178DOPC   H4Y21823   3.093   7.542  13.577 -2.3101 -2.2960  0.7123
  178DOPC   C3521824   2.905   7.632  13.539 -0.0704  0.1020 -1.0020
  178DOPC   H5X21825   2.845   7.539  13.548 -0.8780  0.7670  1.0859
  178DOPC   H5Y21826   2.855   7.697  13.464 -0.8139  0.2436 -0.3976
  178DOPC   C3621827   2.911   7.705  13.676 -0.1496 -0.1482 -0.5800
  178DOPC   H6X21828   2.958   7.642  13.754 -0.9939 -1.3466 -1.0073
  178DOPC   H6Y21829   2.978   7.792  13.657  0.4786 -0.9481 -2.2340
  178DOPC   C3721830   2.777   7.765  13.725  0.1963 -0.1231  0.1870
  178DOPC   H7X21831   2.753   7.823  13.633  2.5141 -1.7981 -1.5802
  178DOPC   H7Y21832   2.700   7.685  13.722  0.6856 -0.6025  0.2649
  178DOPC   C3821833   2.771   7.836  13.855  0.0915 -0.0652 -0.2773
  178DOPC   H8X21834   2.804   7.777  13.943 -1.9027  0.4359  0.8715
  178DOPC   H8Y21835   2.660   7.841  13.863 -0.1548 -1.7194 -1.9611
  178DOPC   C3921836   2.840   7.969  13.842 -0.1058 -0.7820  0.1760
  178DOPC   H9X21837   2.939   7.956  13.796 -0.9920 -0.9315 -1.7814
  178DOPC  C31021838   2.791   8.089  13.872 -0.0261  0.1684  0.8152
  178DOPC  H10X21839   2.861   8.173  13.859  1.8458 -1.4567 -0.1431
  178DOPC  C31121840   2.657   8.126  13.921  0.1669 -0.6176  0.6508
  178DOPC  H11X21841   2.597   8.034  13.938 -1.8236  0.2145 -1.4628
  178DOPC  H11Y21842   2.607   8.171  13.833  0.8487  4.2094  2.4411
  178DOPC  C31221843   2.646   8.216  14.040 -0.5967  0.3433  0.2830
  178DOPC  H12X21844   2.711   8.163  14.113  0.4203  1.7857  0.4607
  178DOPC  H12Y21845   2.539   8.208  14.069  0.0775 -1.9193  2.5317
  178DOPC  C31321846   2.708   8.359  14.006  0.8795  0.0074  0.3948
  178DOPC  H13X21847   2.757   8.394  14.100  0.0417  0.0231  0.8385
  178DOPC  H13Y21848   2.791   8.354  13.932  0.2660  0.1062 -0.3079
  178DOPC  C31421849   2.605   8.467  13.954  0.2455  0.3903  0.2814
  178DOPC  H14X21850   2.657   8.562  13.930  2.2810 -0.8995 -0.6556
  178DOPC  H14Y21851   2.541   8.434  13.869  0.3856  0.7235  0.0443
  178DOPC  C31521852   2.521   8.521  14.076 -0.2270 -0.1739  0.2565
  178DOPC  H15X21853   2.598   8.575  14.135  1.0577 -1.5615 -0.0891
  178DOPC  H15Y21854   2.484   8.442  14.144  0.6292  0.5219  1.5633
  178DOPC  C31621855   2.404   8.622  14.043 -0.3605  0.4798 -0.1864
  178DOPC  H16X21856   2.391   8.681  14.136 -0.2397  0.5372 -0.2051
  178DOPC  H16Y21857   2.427   8.682  13.952 -0.7371  1.0630  0.0935
  178DOPC  C31721858   2.271   8.558  14.019  0.4508  0.3783 -0.2812
  178DOPC  H17X21859   2.272   8.511  13.918 -1.9015 -2.1750  0.7384
  178DOPC  H17Y21860   2.261   8.465  14.079 -1.7460 -0.3626 -1.6403
  178DOPC  C31821861   2.150   8.655  14.020  0.0814 -0.2936  0.5690
  178DOPC  H18X21862   2.174   8.754  13.977  1.7215 -0.2747  1.4124
  178DOPC  H18Y21863   2.067   8.606  13.965  1.0544 -1.1374 -0.1888
  178DOPC  H18Z21864   2.112   8.663  14.124 -2.7350 -1.5609 -0.2858
  179DOPC     N21865   5.636   5.031  12.124 -0.2392  1.0780 -0.0539
  179DOPC   C1221866   5.534   5.098  12.221  0.2170  0.3030 -1.1082
  179DOPC  H12A21867   5.594   5.150  12.294  0.8404  0.5670 -1.7954
  179DOPC  H12B21868   5.476   5.021  12.270 -0.1595  0.0383 -1.9534
  179DOPC   C1321869   5.568   4.944  12.030 -0.3056 -0.0218  0.6945
  179DOPC  H13A21870   5.513   4.862  12.074 -0.5071 -0.4325 -0.2953
  179DOPC  H13B21871   5.496   5.006  11.978 -0.9597  0.4113  2.0647
  179DOPC  H13C21872   5.636   4.907  11.955  0.6693  0.0227  1.5241
  179DOPC   C1421873   5.740   4.946  12.200 -0.1456 -0.0400  0.5544
  179DOPC  H14A21874   5.693   4.888  12.278  0.2841 -0.5984  0.4033
  179DOPC  H14B21875   5.784   4.871  12.136 -1.3066 -1.3318  1.2151
  179DOPC  H14C21876   5.821   5.003  12.243 -1.5705  0.7471  2.3563
  179DOPC   C1521877   5.716   5.136  12.052 -0.4373 -0.2769  0.0068
  179DOPC  H15A21878   5.650   5.196  11.990  2.0377  0.4247 -2.1615
  179DOPC  H15B21879   5.791   5.088  11.991 -0.0185  0.6115 -0.1967
  179DOPC  H15C21880   5.768   5.204  12.119  0.1484  0.1667 -0.8643
  179DOPC   C1121881   5.438   5.203  12.162  0.1895 -0.0493  0.0347
  179DOPC  H11A21882   5.368   5.240  12.240  1.3574  2.8343 -0.1903
  179DOPC  H11B21883   5.498   5.293  12.138  0.5501 -0.5465 -1.0182
  179DOPC     P21884   5.231   5.086  12.055  0.4413 -0.1140 -0.1558
  179DOPC   O1321885   5.234   4.976  11.961  0.4442 -0.4779 -0.2252
  179DOPC   O1421886   5.114   5.179  12.041 -0.1497 -0.3895  0.2502
  179DOPC   O1221887   5.368   5.164  12.040  0.1003  0.8006  0.3376
  179DOPC   O1121888   5.238   5.030  12.204 -0.5104 -0.0311 -0.0088
  179DOPC    C121889   5.113   4.990  12.270 -0.2960  0.4613 -0.4969
  179DOPC    HA21890   5.127   4.891  12.318  1.5965 -0.2718 -2.4298
  179DOPC    HB21891   5.030   4.966  12.201 -0.6341 -0.8612  0.3319
  179DOPC    C221892   5.071   5.105  12.367  0.2419 -0.1025  0.1143
  179DOPC    HS21893   5.072   5.195  12.302  2.0334 -0.1383  0.0557
  179DOPC   O2121894   5.168   5.123  12.476 -0.2685  0.1002 -0.4962
  179DOPC   C2121895   5.190   5.245  12.518  0.0145 -0.0968  0.3076
  179DOPC   O2221896   5.133   5.342  12.474 -0.5639  0.5379 -0.2043
  179DOPC   C2221897   5.309   5.244  12.617  0.4017 -0.1682 -0.4893
  179DOPC   H2R21898   5.392   5.216  12.549  1.9760 -0.4045  1.4747
  179DOPC   H2S21899   5.286   5.171  12.697  0.2013  1.1757  0.7244
  179DOPC    C321900   4.932   5.077  12.417 -0.7095 -0.0347  0.8283
  179DOPC    HX21901   4.936   4.977  12.466  0.1979 -0.1198  0.5951
  179DOPC    HY21902   4.857   5.073  12.335  0.9417  1.9739 -0.8958
  179DOPC   O3121903   4.884   5.169  12.520  0.3358  0.6516  0.1052
  179DOPC   C3121904   4.818   5.276  12.481 -0.2328  0.8605 -0.0020
  179DOPC   O3221905   4.795   5.310  12.364 -0.4527  0.0771 -0.1395
  179DOPC   C3221906   4.787   5.366  12.599  0.1163 -0.3571  0.1196
  179DOPC   H2X21907   4.858   5.452  12.593 -1.1463  0.6844 -0.3834
  179DOPC   H2Y21908   4.687   5.415  12.599  0.7438  1.0028  1.1152
  179DOPC   C2321909   5.328   5.379  12.685 -0.1542 -0.5544 -0.1203
  179DOPC   H3R21910   5.345   5.464  12.616 -0.6640 -0.6595 -0.3828
  179DOPC   H3S21911   5.422   5.360  12.742 -0.2141 -3.5039 -0.8113
  179DOPC   C2421912   5.231   5.422  12.796  0.0929  0.2691 -0.5167
  179DOPC   H4R21913   5.175   5.333  12.831  0.2074  0.3786 -0.0574
  179DOPC   H4S21914   5.152   5.480  12.744 -0.1552 -0.1869 -0.6566
  179DOPC   C2521915   5.284   5.502  12.916  0.8319 -0.0677  0.6593
  179DOPC   H5R21916   5.352   5.584  12.885  0.5960 -0.7879 -2.0229
  179DOPC   H5S21917   5.334   5.428  12.982  0.2459 -1.3792 -0.3165
  179DOPC   C2621918   5.173   5.575  12.998  0.1433  0.6861  0.1289
  179DOPC   H6R21919   5.101   5.504  13.043  0.3221 -0.3698 -1.1889
  179DOPC   H6S21920   5.115   5.640  12.928  0.0465 -1.9657 -2.4252
  179DOPC   C2721921   5.225   5.667  13.114  0.0550 -0.5154 -0.3420
  179DOPC   H7R21922   5.127   5.706  13.148 -0.7605 -4.1174  1.9995
  179DOPC   H7S21923   5.290   5.748  13.076  0.9387  0.1842  2.4097
  179DOPC   C2821924   5.311   5.601  13.218  0.0840 -0.0094 -0.7554
  179DOPC   H8R21925   5.356   5.673  13.290  1.3606 -0.1115 -1.4129
  179DOPC   H8S21926   5.398   5.551  13.168  2.2537  1.6907  1.1253
  179DOPC   C2921927   5.234   5.501  13.304 -0.2234  0.2223 -0.3236
  179DOPC   H9R21928   5.194   5.409  13.259  2.2637 -1.1072  0.0270
  179DOPC  C21021929   5.229   5.500  13.435  1.3394  0.2819  0.8264
  179DOPC  H10R21930   5.188   5.414  13.488 -1.1396  0.3833 -0.7329
  179DOPC  C21121931   5.281   5.605  13.528 -0.8870 -0.2846 -0.3209
  179DOPC  H11R21932   5.202   5.632  13.601  0.3664  0.8577  0.6663
  179DOPC  H11S21933   5.296   5.703  13.478  2.0583 -0.0457  0.8057
  179DOPC  C21221934   5.421   5.566  13.577 -0.1898 -0.6364 -0.1672
  179DOPC  H12R21935   5.492   5.595  13.497 -0.1027  0.6056  0.3341
  179DOPC  H12S21936   5.430   5.457  13.599  0.2679 -0.6564 -0.4456
  179DOPC  C21321937   5.460   5.653  13.694 -0.1880  0.1187  0.4812
  179DOPC  H13R21938   5.366   5.647  13.752 -1.5153 -1.7305 -1.6816
  179DOPC  H13S21939   5.476   5.758  13.662  1.0825 -0.3131 -0.3862
  179DOPC  C21421940   5.571   5.589  13.788  0.2742 -0.1001 -0.8100
  179DOPC  H14R21941   5.666   5.572  13.735  0.8750  0.7031 -0.0270
  179DOPC  H14S21942   5.527   5.491  13.815  1.7899 -0.2147  1.5270
  179DOPC  C21521943   5.573   5.660  13.921  0.5840  0.6026  0.3042
  179DOPC  H15R21944   5.474   5.676  13.968 -0.0821  0.1118 -0.8748
  179DOPC  H15S21945   5.615   5.763  13.912 -1.5114  1.3981 -1.3836
  179DOPC  C21621946   5.654   5.585  14.029 -0.0176 -0.7593  0.2180
  179DOPC  H16R21947   5.746   5.538  13.986  0.0084 -2.9029  2.4280
  179DOPC  H16S21948   5.587   5.510  14.076 -0.6592  0.4993  1.3800
  179DOPC  C21721949   5.690   5.676  14.143  0.1139 -0.9488  0.1164
  179DOPC  H17R21950   5.743   5.769  14.111  0.9387  0.4656  4.8208
  179DOPC  H17S21951   5.741   5.617  14.222  1.3454  0.5843  0.5195
  179DOPC  C21821952   5.571   5.738  14.218  0.2910  0.4591  0.1191
  179DOPC  H18R21953   5.611   5.800  14.301  0.2541  1.9821 -0.9731
  179DOPC  H18S21954   5.504   5.661  14.263 -0.2286  1.9845  2.0808
  179DOPC  H18T21955   5.503   5.805  14.161 -1.4702 -0.1363  1.4258
  179DOPC   C3321956   4.809   5.304  12.733  0.2616  0.6819  0.2261
  179DOPC   H3X21957   4.909   5.255  12.738  0.3124  0.6243 -1.0051
  179DOPC   H3Y21958   4.730   5.231  12.758  0.0865  1.1867  1.1861
  179DOPC   C3421959   4.792   5.406  12.847 -0.1990 -0.0422  0.0532
  179DOPC   H4X21960   4.691   5.451  12.835  0.2569  0.9198 -0.3153
  179DOPC   H4Y21961   4.867   5.487  12.831  0.0681  0.0317  1.5583
  179DOPC   C3521962   4.825   5.352  12.985 -0.6537 -0.2000 -0.3696
  179DOPC   H5X21963   4.935   5.342  12.986 -0.4605  1.4565 -1.1567
  179DOPC   H5Y21964   4.776   5.254  13.007 -0.5966 -0.4352 -1.2349
  179DOPC   C3621965   4.793   5.451  13.098  0.8233  0.8340 -0.4725
  179DOPC   H6X21966   4.852   5.541  13.070  2.3871  0.1432  0.5313
  179DOPC   H6Y21967   4.685   5.477  13.091  0.3207 -0.8653  0.4439
  179DOPC   C3721968   4.830   5.413  13.245  0.5653  0.0989 -0.3318
  179DOPC   H7X21969   4.765   5.328  13.277  1.1009 -0.3961 -0.5603
  179DOPC   H7Y21970   4.934   5.376  13.237  0.1129 -0.8577 -2.1752
  179DOPC   C3821971   4.815   5.542  13.336 -1.1720  0.0350  0.0521
  179DOPC   H8X21972   4.712   5.585  13.335 -0.6177  1.4954  1.1109
  179DOPC   H8Y21973   4.879   5.626  13.302 -1.7920  1.4044  2.0509
  179DOPC   C3921974   4.845   5.506  13.478  0.1768 -0.0963 -0.3754
  179DOPC   H9X21975   4.952   5.488  13.499  0.4369  0.1217 -1.4589
  179DOPC  C31021976   4.750   5.494  13.574  0.1161 -1.0695 -0.8699
  179DOPC  H10X21977   4.760   5.455  13.676  0.1428 -1.3883 -0.9938
  179DOPC  C31121978   4.604   5.524  13.549  0.1972 -0.1864  0.5789
  179DOPC  H11X21979   4.541   5.466  13.620  0.6646 -0.3700  0.8529
  179DOPC  H11Y21980   4.576   5.499  13.444 -0.5387  3.2065 -0.1374
  179DOPC  C31221981   4.579   5.675  13.570 -0.0676  0.1020  0.3856
  179DOPC  H12X21982   4.656   5.739  13.522  0.2875 -0.6778 -0.1138
  179DOPC  H12Y21983   4.578   5.702  13.677 -0.2196  1.4674  0.0582
  179DOPC  C31321984   4.442   5.718  13.518  0.3068  0.2268  0.1373
  179DOPC  H13X21985   4.366   5.645  13.553  0.5867  0.4877  1.3064
  179DOPC  H13Y21986   4.414   5.820  13.554 -0.8649  0.3214 -0.9358
  179DOPC  C31421987   4.435   5.720  13.364 -0.1435  0.7224 -0.3831
  179DOPC  H14X21988   4.488   5.628  13.332 -0.3404  0.3713  0.2940
  179DOPC  H14Y21989   4.330   5.702  13.336  0.3232 -1.8594 -0.7295
  179DOPC  C31521990   4.489   5.843  13.290  0.2256 -0.5473  0.4117
  179DOPC  H15X21991   4.580   5.871  13.347  0.5650  0.2913 -0.5025
  179DOPC  H15Y21992   4.425   5.933  13.299  0.5952 -0.0172 -1.7320
  179DOPC  C31621993   4.543   5.828  13.155 -0.4572 -0.0519  0.6832
  179DOPC  H16X21994   4.603   5.918  13.132 -3.0712  1.9253  1.0917
  179DOPC  H16Y21995   4.607   5.737  13.151  1.2891  1.1848 -1.8461
  179DOPC  C31721996   4.446   5.809  13.045  0.2588 -0.1963 -0.0132
  179DOPC  H17X21997   4.391   5.713  13.059 -0.3392 -0.2862 -2.4282
  179DOPC  H17Y21998   4.369   5.889  13.049 -1.2678 -1.6261  0.8466
  179DOPC  C31821999   4.521   5.794  12.914  0.0554 -0.2178  0.2350
  179DOPC  H18X22000   4.583   5.886  12.907  1.2790 -0.7836  2.7842
  179DOPC  H18Y22001   4.590   5.707  12.918  0.2190 -0.0770  0.4759
  179DOPC  H18Z22002   4.452   5.779  12.828  0.1285  0.2360  0.0941
  180DOPC     N22003   6.627   4.000  12.249 -0.4601  0.0968  0.2014
  180DOPC   C1222004   6.572   3.920  12.360  1.1870  0.1901  0.0358
  180DOPC  H12A22005   6.606   3.962  12.453  0.1215 -0.7420  0.8877
  180DOPC  H12B22006   6.593   3.814  12.360  0.6933  0.0864 -0.1323
  180DOPC   C1322007   6.561   3.962  12.126 -0.6217  0.5103  0.0391
  180DOPC  H13A22008   6.455   3.957  12.143 -1.5199  0.8182 -4.4117
  180DOPC  H13B22009   6.594   4.038  12.056 -0.1258  0.7485  0.5178
  180DOPC  H13C22010   6.590   3.865  12.090 -0.4412 -0.2554  2.1109
  180DOPC   C1422011   6.779   3.983  12.217  0.6848 -0.1247  0.0331
  180DOPC  H14A22012   6.841   4.029  12.292 -1.2829 -0.0072  1.6810
  180DOPC  H14B22013   6.801   3.877  12.221  1.2501  0.0214  1.0325
  180DOPC  H14C22014   6.797   4.024  12.119 -1.3359 -1.0683 -0.8024
  180DOPC   C1522015   6.612   4.143  12.287 -0.0191 -0.0335  0.3409
  180DOPC  H15A22016   6.626   4.212  12.205 -2.3236  0.0188 -0.0833
  180DOPC  H15B22017   6.688   4.164  12.361  1.0947  1.4456 -1.1644
  180DOPC  H15C22018   6.514   4.162  12.329 -0.4326  0.0782 -0.6572
  180DOPC   C1122019   6.421   3.936  12.386 -0.3678  0.1974  0.3561
  180DOPC  H11A22020   6.406   3.904  12.491 -1.1822 -2.2338 -0.4337
  180DOPC  H11B22021   6.382   4.039  12.375 -0.8465 -0.0375 -0.2367
  180DOPC     P22022   6.182   3.852  12.295  0.4616  0.0349 -0.6019
  180DOPC   O1322023   6.134   3.721  12.252  0.0216 -0.1135  0.0554
  180DOPC   O1422024   6.137   3.967  12.215 -0.1350 -0.1456  0.0152
  180DOPC   O1222025   6.340   3.846  12.299 -0.8131  0.3385  0.2463
  180DOPC   O1122026   6.126   3.867  12.440 -0.7400 -0.7422 -0.5986
  180DOPC    C122027   6.029   3.962  12.476  0.1115  0.0908 -0.1756
  180DOPC    HA22028   5.940   3.960  12.410 -0.6650 -0.9036  0.8495
  180DOPC    HB22029   6.069   4.066  12.480  2.8863 -0.9180  2.3199
  180DOPC    C222030   5.974   3.937  12.625  0.5197  0.3858  0.4718
  180DOPC    HS22031   5.911   4.025  12.644 -0.4688 -0.2369  0.1479
  180DOPC   O2122032   6.082   3.924  12.714 -0.0284  0.4452 -0.1265
  180DOPC   C2122033   6.131   4.034  12.758 -0.6968 -0.1333  0.3984
  180DOPC   O2222034   6.086   4.149  12.736  0.5679  0.0096 -0.2739
  180DOPC   C2222035   6.267   4.013  12.822  0.3218  0.1449 -0.3004
  180DOPC   H2R22036   6.346   4.073  12.773  0.9802 -0.2272  0.2842
  180DOPC   H2S22037   6.300   3.910  12.798  0.8952  0.7653 -2.3942
  180DOPC    C322038   5.895   3.803  12.630 -0.0565 -0.7372 -0.8241
  180DOPC    HX22039   5.972   3.724  12.618  1.2399  0.4790 -0.8544
  180DOPC    HY22040   5.822   3.788  12.548  0.8705 -0.7233 -1.6629
  180DOPC   O3122041   5.832   3.786  12.754 -0.0757  0.7909  0.2530
  180DOPC   C3122042   5.734   3.868  12.784  0.3777  0.0105 -0.0338
  180DOPC   O3222043   5.700   3.961  12.718 -0.0927  0.3712  0.0757
  180DOPC   C3222044   5.678   3.836  12.921 -0.1482 -0.1958 -0.3325
  180DOPC   H2X22045   5.599   3.759  12.906 -0.2834 -0.1486  0.1294
  180DOPC   H2Y22046   5.758   3.790  12.983 -0.7106 -0.5902  0.1079
  180DOPC   C2322047   6.264   4.051  12.969 -0.3902  0.5206  0.0383
  180DOPC   H3R22048   6.284   4.160  12.963  0.8474  0.3926  1.2249
  180DOPC   H3S22049   6.357   4.011  13.015 -1.7898 -0.8893  1.8141
  180DOPC   C2422050   6.134   4.007  13.042 -1.4194  0.0103 -0.1866
  180DOPC   H4R22051   6.134   3.899  13.019 -1.9710  0.0272 -0.2811
  180DOPC   H4S22052   6.046   4.069  13.012 -2.4822 -0.4808  1.7452
  180DOPC   C2522053   6.160   4.033  13.187  0.3563 -0.6858  0.3468
  180DOPC   H5R22054   6.208   4.132  13.198 -2.9168  0.9974  0.6077
  180DOPC   H5S22055   6.239   3.959  13.214  3.1311  0.5632 -3.4456
  180DOPC   C2622056   6.044   4.029  13.293 -0.4292 -0.2431  0.1417
  180DOPC   H6R22057   6.010   3.923  13.283  1.7421 -1.0122  0.4257
  180DOPC   H6S22058   5.963   4.100  13.265 -0.7777 -0.8281 -0.3682
  180DOPC   C2722059   6.092   4.048  13.437 -0.1427 -0.3309  0.1682
  180DOPC   H7R22060   6.109   4.156  13.457  1.6876 -0.5538  0.0348
  180DOPC   H7S22061   6.189   3.993  13.442  0.5770  0.8502 -0.4539
  180DOPC   C2822062   5.995   3.989  13.538  0.1729 -0.7132  0.1480
  180DOPC   H8R22063   6.049   3.973  13.633  0.0920  0.9649  0.5043
  180DOPC   H8S22064   5.962   3.890  13.500  2.2039 -1.3136 -0.1475
  180DOPC   C2922065   5.868   4.064  13.575 -0.9265  0.2664 -0.1236
  180DOPC   H9R22066   5.786   4.058  13.502  1.2321 -1.6767 -2.5792
  180DOPC  C21022067   5.863   4.155  13.675 -0.0767  0.3120 -0.8194
  180DOPC  H10R22068   5.761   4.194  13.688 -1.2397 -2.2070 -1.6879
  180DOPC  C21122069   5.974   4.196  13.769 -0.2421  0.0503 -0.0415
  180DOPC  H11R22070   6.015   4.292  13.731 -1.2277  0.6295  0.3222
  180DOPC  H11S22071   6.060   4.126  13.779  0.1772  0.5453 -0.1308
  180DOPC  C21222072   5.927   4.235  13.915  0.9103 -0.6823 -0.3445
  180DOPC  H12R22073   5.840   4.304  13.903  0.3065 -1.0771  1.4180
  180DOPC  H12S22074   6.017   4.277  13.963  1.2762 -1.6644 -0.1570
  180DOPC  C21322075   5.878   4.114  14.004  0.3351 -0.5093  0.2607
  180DOPC  H13R22076   5.803   4.055  13.948 -1.0770  1.0143  0.4537
  180DOPC  H13S22077   5.828   4.157  14.093 -0.2038  0.7840 -0.6336
  180DOPC  C21422078   6.008   4.041  14.051 -0.2402  0.3868 -0.6722
  180DOPC  H14R22079   6.099   4.104  14.060  0.4790 -0.7844  0.6705
  180DOPC  H14S22080   6.037   3.974  13.967 -1.6046 -0.2856 -0.6395
  180DOPC  C21522081   5.987   3.964  14.181 -0.0963 -0.1038 -0.4038
  180DOPC  H15R22082   5.957   4.032  14.264  0.8725  0.0559 -0.1743
  180DOPC  H15S22083   6.083   3.919  14.214 -0.3370  0.1999  0.7546
  180DOPC  C21622084   5.894   3.851  14.163  0.2008  0.6876 -0.0583
  180DOPC  H16R22085   5.931   3.790  14.078 -2.0703 -1.7203  0.5453
  180DOPC  H16S22086   5.796   3.901  14.143 -0.1715 -0.4254 -1.1162
  180DOPC  C21722087   5.868   3.763  14.284 -0.4496  0.2054 -0.1070
  180DOPC  H17R22088   5.850   3.845  14.357 -1.0702  0.9884 -1.1063
  180DOPC  H17S22089   5.955   3.708  14.325 -1.0766 -1.1856 -0.5981
  180DOPC  C21822090   5.736   3.694  14.269  0.1711 -0.0772 -0.0224
  180DOPC  H18R22091   5.662   3.753  14.211  1.3717  1.1419 -0.3770
  180DOPC  H18S22092   5.694   3.678  14.370  1.9122 -0.8639  0.6165
  180DOPC  H18T22093   5.753   3.596  14.219  0.6941  0.3750 -0.7564
  180DOPC   C3322094   5.627   3.969  12.991  0.2802  0.4283  0.4910
  180DOPC   H3X22095   5.554   4.025  12.929  0.7567  1.1135  0.5348
  180DOPC   H3Y22096   5.718   4.032  13.008  0.8366 -0.6968  1.8269
  180DOPC   C3422097   5.553   3.945  13.122 -1.1465  0.3534  0.7440
  180DOPC   H4X22098   5.608   3.869  13.181  0.4878  1.1398  0.2962
  180DOPC   H4Y22099   5.455   3.900  13.098 -0.5035 -0.5012 -0.4193
  180DOPC   C3522100   5.547   4.074  13.211  0.1937 -0.0330 -0.1822
  180DOPC   H5X22101   5.512   4.166  13.158  1.5978  1.5494  1.4771
  180DOPC   H5Y22102   5.650   4.103  13.242 -0.6235  1.6615  1.1157
  180DOPC   C3622103   5.458   4.055  13.343  0.0738 -0.4737  0.0310
  180DOPC   H6X22104   5.351   4.052  13.314 -0.2381  0.3482  1.0655
  180DOPC   H6Y22105   5.484   3.963  13.401  0.0617  0.3537  1.3847
  180DOPC   C3722106   5.472   4.172  13.442  0.5542  0.5559  0.6270
  180DOPC   H7X22107   5.572   4.172  13.492  1.1559 -0.3691 -0.5370
  180DOPC   H7Y22108   5.463   4.267  13.386  0.6246 -0.1749 -0.6505
  180DOPC   C3822109   5.363   4.170  13.548  0.3507 -0.2578  0.1622
  180DOPC   H8X22110   5.266   4.159  13.496  0.1862 -1.0569  0.6121
  180DOPC   H8Y22111   5.363   4.266  13.604  0.5432 -0.2573  0.1637
  180DOPC   C3922112   5.401   4.053  13.638  0.5136 -0.9197  0.7830
  180DOPC   H9X22113   5.360   3.957  13.603 -1.5555  0.3174 -0.3694
  180DOPC  C31022114   5.464   4.062  13.753  0.0466 -0.1342  0.6376
  180DOPC  H10X22115   5.486   3.976  13.819  1.2733 -1.6756 -1.6670
  180DOPC  C31122116   5.520   4.187  13.822 -1.1509 -0.4219  0.2124
  180DOPC  H11X22117   5.552   4.266  13.750 -1.7816 -0.6868 -0.3546
  180DOPC  H11Y22118   5.610   4.159  13.881 -1.0647  0.7618  0.6835
  180DOPC  C31222119   5.418   4.254  13.917  0.0956 -0.0196  0.4074
  180DOPC  H12X22120   5.394   4.172  13.988  1.7940 -0.8356  0.0700
  180DOPC  H12Y22121   5.324   4.284  13.865  1.2767  0.5376 -1.4867
  180DOPC  C31322122   5.461   4.373  14.003 -0.0113  0.6257 -0.5296
  180DOPC  H13X22123   5.562   4.348  14.044  0.1896 -2.3440 -2.4799
  180DOPC  H13Y22124   5.476   4.458  13.934  0.2965  0.3406 -0.8195
  180DOPC  C31422125   5.357   4.400  14.108  0.2933 -0.2671  0.0115
  180DOPC  H14X22126   5.266   4.429  14.051 -0.7231 -3.3545 -0.1283
  180DOPC  H14Y22127   5.339   4.302  14.158  2.6477 -1.2720 -0.9807
  180DOPC  C31522128   5.406   4.505  14.211 -0.0880 -0.5451 -0.2652
  180DOPC  H15X22129   5.400   4.603  14.159  0.0501  0.0029  0.7315
  180DOPC  H15Y22130   5.511   4.481  14.242 -0.2309 -0.7527  0.0647
  180DOPC  C31622131   5.314   4.519  14.333 -1.0296  0.4454  1.1408
  180DOPC  H16X22132   5.212   4.531  14.291 -0.6774  0.7441  0.3482
  180DOPC  H16Y22133   5.327   4.424  14.389  1.6497 -0.4362 -0.7588
  180DOPC  C31722134   5.369   4.636  14.410  0.2887 -0.7401  0.3018
  180DOPC  H17X22135   5.335   4.629  14.516 -2.4852 -1.5445 -0.5632
  180DOPC  H17Y22136   5.479   4.631  14.419  0.4102  1.9094  1.0157
  180DOPC  C31822137   5.326   4.782  14.366  0.2438  0.8559 -1.0308
  180DOPC  H18X22138   5.216   4.787  14.351  0.1152  2.3461  0.1673
  180DOPC  H18Y22139   5.363   4.854  14.442  2.6321 -1.0162 -0.2639
  180DOPC  H18Z22140   5.364   4.812  14.267 -0.1261 -1.6571 -2.0229
  181DOPC     N22141   0.448   4.579  12.230 -0.5590 -0.3619 -0.7291
  181DOPC   C1222142   0.452   4.669  12.358  0.5362  0.3972  0.2934
  181DOPC  H12A22143   0.538   4.727  12.326  0.0435  0.3430 -1.1819
  181DOPC  H12B22144   0.471   4.608  12.445  1.1973  2.2408  1.5176
  181DOPC   C1322145   0.339   4.479  12.233  0.0700  0.3117  0.1340
  181DOPC  H13A22146   0.347   4.411  12.149  0.4767 -0.0602  0.4665
  181DOPC  H13B22147   0.340   4.413  12.319  0.7917 -0.2944 -0.3239
  181DOPC  H13C22148   0.242   4.525  12.238  0.3372  0.9157 -0.2053
  181DOPC   C1422149   0.581   4.506  12.225  0.9735 -0.2998 -0.5693
  181DOPC  H14A22150   0.657   4.583  12.234  0.3886  0.7478 -3.4840
  181DOPC  H14B22151   0.594   4.442  12.311 -1.6176  1.1771  1.0547
  181DOPC  H14C22152   0.600   4.450  12.135  0.5923 -2.3934  0.5888
  181DOPC   C1522153   0.431   4.673  12.112  0.6019 -0.5928  0.2545
  181DOPC  H15A22154   0.334   4.721  12.121  0.6484 -0.3881 -0.2905
  181DOPC  H15B22155   0.430   4.621  12.017  0.3364  0.6586 -0.4536
  181DOPC  H15C22156   0.511   4.745  12.112  0.1371 -0.0200  2.0958
  181DOPC   C1122157   0.324   4.758  12.384 -0.5419 -0.3732  0.1898
  181DOPC  H11A22158   0.353   4.842  12.451 -0.6810 -0.4972  0.4065
  181DOPC  H11B22159   0.301   4.800  12.283  2.8613  0.9058 -0.1771
  181DOPC     P22160   0.222   4.637  12.580 -0.0414  0.0581  0.1583
  181DOPC   O1322161   0.352   4.575  12.614 -0.4029  0.0839 -0.9534
  181DOPC   O1422162   0.099   4.557  12.596  0.1885 -0.6054  0.2430
  181DOPC   O1222163   0.218   4.682  12.429 -0.1236 -0.3635 -0.0520
  181DOPC   O1122164   0.197   4.775  12.649 -0.8475 -0.5768  0.1569
  181DOPC    C122165   0.264   4.815  12.768 -0.4224 -0.3273  0.8533
  181DOPC    HA22166   0.236   4.922  12.779 -0.5680 -0.1593 -0.9807
  181DOPC    HB22167   0.374   4.801  12.761 -0.5271 -0.9239  0.3714
  181DOPC    C222168   0.208   4.750  12.898  0.1243 -0.6650  0.0102
  181DOPC    HS22169   0.229   4.829  12.973  3.2962 -1.1300 -0.2497
  181DOPC   O2122170   0.283   4.630  12.920  0.3450  0.3667 -0.4346
  181DOPC   C2122171   0.380   4.636  13.003 -0.3530  0.2169 -0.5854
  181DOPC   O2222172   0.423   4.738  13.057 -0.1198 -0.0825  0.3982
  181DOPC   C2222173   0.444   4.494  13.012  0.5266  0.6290  0.6382
  181DOPC   H2R22174   0.543   4.506  13.061  1.1949 -1.9780  0.0798
  181DOPC   H2S22175   0.456   4.464  12.906 -1.9677  1.1423  0.1366
  181DOPC    C322176   0.054   4.722  12.902 -0.2086 -0.0489  0.1874
  181DOPC    HX22177   0.038   4.631  12.840  2.5053 -0.3462 -0.2205
  181DOPC    HY22178   0.004   4.808  12.853  1.7194  0.7329 -0.5042
  181DOPC   O3122179  -0.000   4.691  13.033 -0.2222  0.3003 -0.4270
  181DOPC   C3122180  -0.014   4.809  13.100  0.4273  0.0002 -0.2707
  181DOPC   O3222181   0.004   4.920  13.047 -0.1086  0.4789  0.4707
  181DOPC   C3222182  -0.053   4.800  13.242  0.1212  0.3550  0.2697
  181DOPC   H2X22183  -0.157   4.839  13.251  0.1010  0.1968  0.8098
  181DOPC   H2Y22184  -0.069   4.691  13.258 -1.6012  0.1653 -2.2502
  181DOPC   C2322185   0.362   4.384  13.080 -0.5669  0.4016  0.8283
  181DOPC   H3R22186   0.420   4.289  13.076  3.2916  2.5750 -3.1535
  181DOPC   H3S22187   0.259   4.377  13.038 -0.8205  0.6545  1.3929
  181DOPC   C2422188   0.339   4.442  13.224 -0.0601 -0.4706 -0.1056
  181DOPC   H4R22189   0.287   4.539  13.212 -2.0829 -1.6363 -1.4327
  181DOPC   H4S22190   0.434   4.459  13.280  0.6458 -1.3213 -0.9906
  181DOPC   C2522191   0.256   4.343  13.304  0.2411 -0.3839  0.8225
  181DOPC   H5R22192   0.315   4.250  13.291  0.6106 -0.3392  2.0822
  181DOPC   H5S22193   0.156   4.320  13.261  0.9300 -1.6456 -0.1604
  181DOPC   C2622194   0.243   4.385  13.451  0.8701 -0.3211  0.4541
  181DOPC   H6R22195   0.201   4.487  13.451  0.3033 -0.5495  0.8943
  181DOPC   H6S22196   0.343   4.390  13.500  0.3249  0.1723  1.5542
  181DOPC   C2722197   0.171   4.293  13.534  0.3533  0.5687 -0.2310
  181DOPC   H7R22198   0.071   4.277  13.490 -0.0343  0.7410  0.5602
  181DOPC   H7S22199   0.155   4.337  13.635 -1.2440  1.8271 -1.0087
  181DOPC   C2822200   0.238   4.148  13.554  0.4581  0.0105  0.2412
  181DOPC   H8R22201   0.336   4.176  13.598 -0.0511  3.1585 -0.3799
  181DOPC   H8S22202   0.249   4.115  13.449  0.5577  0.8142 -0.0030
  181DOPC   C2922203   0.167   4.043  13.642  0.1277 -0.3508  0.6637
  181DOPC   H9R22204   0.093   3.971  13.604 -0.5775 -0.8909  2.9010
  181DOPC  C21022205   0.148   4.063  13.774 -0.0680 -0.3415 -0.4609
  181DOPC  H10R22206   0.098   3.985  13.833  0.2991 -0.6322 -0.5282
  181DOPC  C21122207   0.216   4.168  13.857  0.2590  0.1309  0.0343
  181DOPC  H11R22208   0.147   4.252  13.881  1.4587  0.2111  3.9805
  181DOPC  H11S22209   0.294   4.226  13.804 -0.7174  1.5141  0.0585
  181DOPC  C21222210   0.266   4.115  13.993  0.2299  0.1986 -0.1246
  181DOPC  H12R22211   0.338   4.031  13.991  0.0583  0.0584 -1.9412
  181DOPC  H12S22212   0.181   4.082  14.056 -0.5787  1.1074 -0.7023
  181DOPC  C21322213   0.342   4.223  14.075 -0.4876 -0.2056  0.3034
  181DOPC  H13R22214   0.306   4.328  14.063  1.0955  0.4617  1.0734
  181DOPC  H13S22215   0.447   4.228  14.038  0.0441  0.1643  1.7860
  181DOPC  C21422216   0.360   4.205  14.229  0.1273  1.0737 -0.0471
  181DOPC  H14R22217   0.397   4.102  14.246 -2.1310 -0.0268 -1.4166
  181DOPC  H14S22218   0.264   4.208  14.285 -0.5703  0.8990 -1.2191
  181DOPC  C21522219   0.458   4.312  14.295  0.2616  0.7073 -0.3964
  181DOPC  H15R22220   0.423   4.415  14.275  0.0362  0.7089 -0.0075
  181DOPC  H15S22221   0.554   4.302  14.240  1.5691 -0.1697  1.8863
  181DOPC  C21622222   0.467   4.291  14.443 -0.1416  0.0072  0.4814
  181DOPC  H16R22223   0.492   4.185  14.467  0.2240  0.1906  0.9247
  181DOPC  H16S22224   0.369   4.307  14.493  0.8410  0.0165  2.5029
  181DOPC  C21722225   0.583   4.377  14.501  0.0460  0.0703  0.3836
  181DOPC  H17R22226   0.563   4.485  14.486 -0.2213 -0.3154 -2.6418
  181DOPC  H17S22227   0.677   4.356  14.446 -0.0450  2.2957 -0.6822
  181DOPC  C21822228   0.594   4.352  14.653 -0.2168 -0.1594  0.5468
  181DOPC  H18R22229   0.661   4.423  14.707 -1.8206  1.4356  0.5086
  181DOPC  H18S22230   0.635   4.251  14.678  0.7984  1.0408  4.4966
  181DOPC  H18T22231   0.500   4.347  14.712 -0.0941  0.5145  0.8035
  181DOPC   C3322232   0.050   4.868  13.340 -0.2819  0.1615 -0.4203
  181DOPC   H3X22233   0.018   4.853  13.446  2.0916 -0.6665  0.2279
  181DOPC   H3Y22234   0.046   4.979  13.336 -1.9854  0.0796 -2.2130
  181DOPC   C3422235   0.190   4.804  13.329 -0.1712  0.2050 -0.1985
  181DOPC   H4X22236   0.229   4.811  13.225  0.7187  1.9483  0.2097
  181DOPC   H4Y22237   0.193   4.696  13.354 -0.0575  0.3290  0.3445
  181DOPC   C3522238   0.287   4.862  13.426  0.1400  0.4660  0.2981
  181DOPC   H5X22239   0.308   4.968  13.398  1.4632 -0.4745 -2.7115
  181DOPC   H5Y22240   0.387   4.813  13.423 -0.4674 -1.0489  2.3630
  181DOPC   C3622241   0.251   4.863  13.579 -0.1044 -0.6951  0.7292
  181DOPC   H6X22242   0.329   4.926  13.628  0.3674 -0.7334  0.0315
  181DOPC   H6Y22243   0.157   4.918  13.602 -0.0600  0.1197 -0.8966
  181DOPC   C3722244   0.245   4.726  13.643 -0.3959  0.0335 -0.3368
  181DOPC   H7X22245   0.203   4.752  13.742 -0.1513 -2.4675  0.5122
  181DOPC   H7Y22246   0.183   4.656  13.582  1.0905 -2.0326  0.4116
  181DOPC   C3822247   0.383   4.671  13.657 -0.0376  0.1477 -0.1269
  181DOPC   H8X22248   0.455   4.737  13.711  0.6095  0.1910 -1.0247
  181DOPC   H8Y22249   0.423   4.650  13.556 -2.7742  0.1857 -1.2913
  181DOPC   C3922250   0.368   4.537  13.737 -0.3607 -0.5312  0.7762
  181DOPC   H9X22251   0.276   4.480  13.715 -2.1159  1.1308  3.2722
  181DOPC  C31022252   0.438   4.512  13.853 -0.2033 -1.1360  0.2572
  181DOPC  H10X22253   0.404   4.429  13.917 -2.1422  1.3506  2.7311
  181DOPC  C31122254   0.561   4.582  13.908  0.1775  0.1886 -0.6872
  181DOPC  H11X22255   0.606   4.657  13.840  1.0080  0.0410 -0.3142
  181DOPC  H11Y22256   0.646   4.514  13.929  0.6108  1.4474  2.1254
  181DOPC  C31222257   0.522   4.658  14.035  0.2011 -0.2946  1.1603
  181DOPC  H12X22258   0.612   4.662  14.100 -0.0923  1.7110  1.4918
  181DOPC  H12Y22259   0.435   4.605  14.080 -0.6517 -0.8262 -0.9822
  181DOPC  C31322260   0.481   4.803  13.995 -0.1192  0.2597  0.2611
  181DOPC  H13X22261   0.559   4.858  13.939  0.6874 -1.5122 -0.4520
  181DOPC  H13Y22262   0.390   4.797  13.931 -2.1908 -1.0177  3.0680
  181DOPC  C31422263   0.459   4.886  14.119  0.6940  0.2975  0.1312
  181DOPC  H14X22264   0.433   4.989  14.085 -2.0065  0.0707  1.2718
  181DOPC  H14Y22265   0.373   4.853  14.182  0.3949 -0.3813 -0.6134
  181DOPC  C31522266   0.587   4.907  14.197 -0.2183 -0.9514 -0.2777
  181DOPC  H15X22267   0.665   4.937  14.124  0.2966 -0.4199  0.4687
  181DOPC  H15Y22268   0.627   4.815  14.244  0.0419 -0.3046  0.7981
  181DOPC  C31622269   0.580   5.019  14.306  0.2349  0.1111  0.1628
  181DOPC  H16X22270   0.687   5.034  14.334  0.6075  0.1047 -1.2220
  181DOPC  H16Y22271   0.550   5.114  14.259 -0.4359  0.9193  2.1241
  181DOPC  C31722272   0.508   4.973  14.434 -0.0485 -0.4944 -0.1488
  181DOPC  H17X22273   0.525   4.863  14.444  0.7458 -0.4184 -0.5569
  181DOPC  H17Y22274   0.570   5.009  14.519  0.4534  2.4932 -1.6630
  181DOPC  C31822275   0.362   5.018  14.437 -0.0118  0.2834  0.2606
  181DOPC  H18X22276   0.355   5.127  14.456  2.1332  0.8029 -1.5702
  181DOPC  H18Y22277   0.301   5.004  14.345 -3.3001 -1.0970  2.4510
  181DOPC  H18Z22278   0.304   4.957  14.509 -0.4042 -1.1217 -1.1908
  182DOPC     N22279   3.080   2.380  12.589 -0.0858  0.4115  0.2760
  182DOPC   C1222280   3.003   2.275  12.512 -0.2017 -0.3573  0.3742
  182DOPC  H12A22281   2.938   2.325  12.441 -0.8856 -0.6342  0.7987
  182DOPC  H12B22282   2.957   2.214  12.587 -0.4622  0.3434  0.7981
  182DOPC   C1322283   3.137   2.478  12.491  0.1638  0.2197 -0.4788
  182DOPC  H13A22284   3.215   2.435  12.430 -0.0180  0.6494 -1.0225
  182DOPC  H13B22285   3.063   2.524  12.428  1.0297  2.0687 -0.2103
  182DOPC  H13C22286   3.178   2.562  12.546 -2.0725 -0.1622  2.0102
  182DOPC   C1422287   3.185   2.327  12.674 -0.1721  0.3687 -0.4623
  182DOPC  H14A22288   3.253   2.264  12.618  0.9497 -0.6500  1.9123
  182DOPC  H14B22289   3.246   2.405  12.717  2.1405 -0.8046 -1.3925
  182DOPC  H14C22290   3.143   2.263  12.750  2.5314 -0.0193  0.8153
  182DOPC   C1522291   2.987   2.461  12.676 -0.6667  0.6278 -0.6880
  182DOPC  H15A22292   3.049   2.524  12.738  0.3437 -0.4029 -0.6043
  182DOPC  H15B22293   2.926   2.399  12.740  0.0531  0.5662 -0.0454
  182DOPC  H15C22294   2.928   2.524  12.611  1.4229  0.7718 -2.6114
  182DOPC   C1122295   3.093   2.181  12.430  0.1783  0.3704  0.4194
  182DOPC  H11A22296   3.042   2.127  12.348  1.6928 -1.4226  0.5881
  182DOPC  H11B22297   3.176   2.240  12.385  1.5887 -0.5124  1.7310
  182DOPC     P22298   3.066   1.966  12.576  0.2988  0.0834  0.1847
  182DOPC   O1322299   3.146   1.836  12.593  0.0372 -0.2351  0.3200
  182DOPC   O1422300   2.945   1.965  12.499 -0.2897  0.0233 -0.2794
  182DOPC   O1222301   3.157   2.078  12.511 -0.2464  0.0175 -0.3945
  182DOPC   O1122302   3.031   2.023  12.714  0.4884 -0.5599 -0.3924
  182DOPC    C122303   3.086   1.980  12.839  0.3482 -0.1405 -0.6149
  182DOPC    HA22304   3.103   2.073  12.897  3.5294 -0.5114 -0.8192
  182DOPC    HB22305   3.190   1.943  12.827  0.1783 -0.2513 -1.9088
  182DOPC    C222306   2.990   1.886  12.919 -0.5289  0.8545 -0.4750
  182DOPC    HS22307   2.981   1.788  12.867  0.7210  1.6435 -2.2589
  182DOPC   O2122308   2.862   1.947  12.916  0.2901  0.9481 -0.1823
  182DOPC   C2122309   2.764   1.868  12.949  0.5313 -0.0659 -0.1617
  182DOPC   O2222310   2.763   1.748  12.952  0.0925  0.2235  0.7208
  182DOPC   C2222311   2.646   1.960  12.999  0.4730 -0.7694 -0.1924
  182DOPC   H2R22312   2.603   2.012  12.911  1.1482 -1.5753 -1.0235
  182DOPC   H2S22313   2.694   2.018  13.081  0.2518  1.0676 -1.3055
  182DOPC    C322314   3.048   1.845  13.066  0.9903  0.3141  0.5095
  182DOPC    HX22315   3.142   1.804  13.024 -0.1085 -0.0907 -1.7226
  182DOPC    HY22316   2.982   1.766  13.108  0.7461  0.1875 -0.0954
  182DOPC   O3122317   3.065   1.953  13.154 -0.2859  0.2838  0.8356
  182DOPC   C3122318   3.182   2.019  13.144  0.2957 -0.5818 -0.0950
  182DOPC   O3222319   3.270   1.986  13.065  0.1658  0.5780  0.1749
  182DOPC   C3222320   3.175   2.156  13.215 -0.7527 -0.5436  0.1951
  182DOPC   H2X22321   3.148   2.226  13.133  1.1054 -0.8582 -0.7383
  182DOPC   H2Y22322   3.092   2.153  13.289 -0.8125 -1.0169  0.1180
  182DOPC   C2322323   2.530   1.880  13.073 -0.1680  0.3752  0.7430
  182DOPC   H3R22324   2.582   1.796  13.124 -1.9143 -2.2175 -1.4339
  182DOPC   H3S22325   2.472   1.830  12.992  0.9772 -1.1727  0.8392
  182DOPC   C2422326   2.441   1.958  13.164 -0.1860  0.2655  0.5896
  182DOPC   H4R22327   2.378   1.876  13.205 -0.7857  0.8181  0.7940
  182DOPC   H4S22328   2.370   2.019  13.104 -1.0102 -0.2443  1.0203
  182DOPC   C2522329   2.515   2.031  13.274  1.0931  0.7405  0.1816
  182DOPC   H5R22330   2.591   2.100  13.231  0.8116 -0.2325 -2.0181
  182DOPC   H5S22331   2.571   1.954  13.332 -1.3184 -0.4130  1.0947
  182DOPC   C2622332   2.438   2.104  13.380  0.1682 -0.5086 -0.9264
  182DOPC   H6R22333   2.371   2.030  13.429 -0.0976 -0.4722 -1.2257
  182DOPC   H6S22334   2.376   2.181  13.329  0.9889  0.1626 -0.9315
  182DOPC   C2722335   2.533   2.163  13.482 -0.8078 -0.2812 -0.3590
  182DOPC   H7R22336   2.597   2.240  13.433  0.0428 -0.4981  0.3727
  182DOPC   H7S22337   2.608   2.087  13.513 -1.3563 -1.1161 -1.0457
  182DOPC   C2822338   2.463   2.226  13.607 -0.6294 -0.2041 -0.4198
  182DOPC   H8R22339   2.544   2.241  13.681 -0.7565 -1.3395 -0.0230
  182DOPC   H8S22340   2.398   2.151  13.657  0.1168  0.3828  1.5105
  182DOPC   C2922341   2.379   2.345  13.569  0.7066 -0.1982 -1.0084
  182DOPC   H9R22342   2.387   2.387  13.467  0.7271  2.0699 -0.1242
  182DOPC  C21022343   2.279   2.398  13.641 -0.4995  0.3202  0.6884
  182DOPC  H10R22344   2.223   2.485  13.606 -0.9750 -1.1184 -2.4891
  182DOPC  C21122345   2.236   2.333  13.771  0.0099  0.7651 -0.1385
  182DOPC  H11R22346   2.310   2.357  13.851 -0.0652 -1.7735  0.7895
  182DOPC  H11S22347   2.245   2.222  13.774  0.9238  0.8345 -0.0276
  182DOPC  C21222348   2.087   2.367  13.795 -0.2339 -0.2184  0.1296
  182DOPC  H12R22349   2.033   2.356  13.699 -1.8861 -0.5181  1.0542
  182DOPC  H12S22350   2.084   2.477  13.816 -2.6303 -0.5699  2.1383
  182DOPC  C21322351   2.015   2.297  13.913  0.1167 -0.5712  0.3767
  182DOPC  H13R22352   2.079   2.298  14.004 -0.0174 -0.7662  0.4739
  182DOPC  H13S22353   2.006   2.189  13.886 -0.4220 -0.2601 -0.7468
  182DOPC  C21422354   1.875   2.358  13.942  0.2989 -0.4593  0.4687
  182DOPC  H14R22355   1.891   2.468  13.942 -1.4895 -0.1213 -2.0745
  182DOPC  H14S22356   1.845   2.322  14.042  1.7581  0.8121  1.4232
  182DOPC  C21522357   1.775   2.317  13.832  0.2088  0.9649 -0.3085
  182DOPC  H15R22358   1.815   2.349  13.734  1.5477  0.4475  0.0484
  182DOPC  H15S22359   1.678   2.367  13.850 -0.8854 -0.7508 -1.1844
  182DOPC  C21622360   1.738   2.171  13.815 -0.2331  0.2745 -0.2987
  182DOPC  H16R22361   1.833   2.113  13.810  0.7015  1.8423 -1.3793
  182DOPC  H16S22362   1.675   2.153  13.726 -2.2107  0.1760  1.0531
  182DOPC  C21722363   1.669   2.115  13.933  0.6249 -0.0908  0.1680
  182DOPC  H17R22364   1.569   2.162  13.945 -0.1812 -1.4550 -0.9149
  182DOPC  H17S22365   1.722   2.134  14.029  1.2845 -0.3428 -0.1398
  182DOPC  C21822366   1.653   1.965  13.922  0.5369  0.2221  0.5516
  182DOPC  H18R22367   1.737   1.913  13.973 -0.0814 -0.6504  0.6944
  182DOPC  H18S22368   1.660   1.926  13.818 -1.6554  1.1705 -0.0141
  182DOPC  H18T22369   1.557   1.936  13.970  0.5942 -0.4851  0.2481
  182DOPC   C3322370   3.307   2.208  13.271  0.2464 -0.5773 -0.0158
  182DOPC   H3X22371   3.361   2.230  13.176 -0.9982  0.1592 -0.5665
  182DOPC   H3Y22372   3.354   2.124  13.326 -0.6458 -2.4741 -2.0027
  182DOPC   C3422373   3.310   2.335  13.351 -0.1796 -0.2964 -0.2575
  182DOPC   H4X22374   3.231   2.403  13.311 -0.2130  0.2731  0.7507
  182DOPC   H4Y22375   3.411   2.380  13.342 -0.9932  1.8793  0.8124
  182DOPC   C3522376   3.282   2.319  13.502  0.6883 -1.1484 -0.3483
  182DOPC   H5X22377   3.339   2.233  13.544  2.1844 -0.9943 -1.9364
  182DOPC   H5Y22378   3.176   2.291  13.516  0.6051 -1.5933 -1.7338
  182DOPC   C3622379   3.294   2.445  13.588  0.0675  0.2774  0.0611
  182DOPC   H6X22380   3.401   2.476  13.584  0.1852  0.0476  1.0300
  182DOPC   H6Y22381   3.236   2.530  13.545 -0.1363 -0.1804 -0.5763
  182DOPC   C3722382   3.251   2.421  13.730  0.7066  0.0405 -0.4627
  182DOPC   H7X22383   3.142   2.400  13.726  0.3438  1.5173  0.6845
  182DOPC   H7Y22384   3.304   2.329  13.762 -0.4743 -0.9617 -1.3119
  182DOPC   C3822385   3.290   2.536  13.824  0.3732  0.2959 -0.7503
  182DOPC   H8X22386   3.400   2.538  13.840  0.2519  2.0349  0.0612
  182DOPC   H8Y22387   3.259   2.510  13.928  0.2447  2.4556 -0.2010
  182DOPC   C3922388   3.250   2.677  13.788  0.0588 -0.7751 -0.4876
  182DOPC   H9X22389   3.274   2.697  13.682 -1.6386  3.8699 -0.2091
  182DOPC  C31022390   3.183   2.767  13.862  0.6608  0.1075  0.1530
  182DOPC  H10X22391   3.174   2.872  13.832 -0.6738 -0.7784 -2.9386
  182DOPC  C31122392   3.157   2.754  14.014  0.3543 -0.9627 -0.4214
  182DOPC  H11X22393   3.191   2.657  14.055 -0.8646  0.2232  3.9601
  182DOPC  H11Y22394   3.047   2.750  14.028  0.1604  0.2583 -1.3979
  182DOPC  C31222395   3.202   2.868  14.108  0.3248  0.4626  0.5443
  182DOPC  H12X22396   3.192   2.965  14.054  0.6893  0.4603  0.4748
  182DOPC  H12Y22397   3.309   2.850  14.129  0.5648  0.5677 -0.5161
  182DOPC  C31322398   3.111   2.877  14.228 -0.5941 -0.2665  0.4538
  182DOPC  H13X22399   3.005   2.904  14.206 -0.2101  1.3255  0.4889
  182DOPC  H13Y22400   3.116   2.776  14.275  0.1421 -0.7167 -0.5694
  182DOPC  C31422401   3.163   2.972  14.332  0.2385  0.1902 -0.3386
  182DOPC  H14X22402   3.270   2.955  14.360 -0.1411  1.3584  2.1588
  182DOPC  H14Y22403   3.146   3.081  14.316 -4.3330 -0.1618  0.8401
  182DOPC  C31522404   3.088   2.949  14.465  0.3067  0.2389 -0.1733
  182DOPC  H15X22405   3.109   2.846  14.502 -0.6452  0.6314  1.5235
  182DOPC  H15Y22406   2.978   2.960  14.457  0.3611  1.4454  0.5443
  182DOPC  C31622407   3.125   3.049  14.575 -0.7495 -0.3634  0.9760
  182DOPC  H16X22408   3.227   3.010  14.596 -0.5053  0.4204  1.2411
  182DOPC  H16Y22409   3.130   3.153  14.537 -0.1680 -0.7404 -0.0464
  182DOPC  C31722410   3.046   3.049  14.707  0.0418  0.1223  0.5985
  182DOPC  H17X22411   2.943   3.089  14.690  1.1838  2.6596 -1.0164
  182DOPC  H17Y22412   3.052   2.942  14.736 -2.2838 -0.6275 -1.3046
  182DOPC  C31822413   3.127   3.131  14.809 -0.2550 -0.4606  0.3524
  182DOPC  H18X22414   3.228   3.093  14.834 -0.6099 -0.9483  1.0909
  182DOPC  H18Y22415   3.153   3.228  14.762 -0.6893 -0.5986 -0.1859
  182DOPC  H18Z22416   3.067   3.142  14.902 -0.7708 -0.5171  0.0278
  183DOPC     N22417   7.161   6.135  12.111 -0.8106  0.5756  0.3635
  183DOPC   C1222418   7.149   6.223  12.231 -0.7860  0.3272 -0.1339
  183DOPC  H12A22419   7.213   6.310  12.227 -1.8464  1.1250 -0.2016
  183DOPC  H12B22420   7.186   6.170  12.318 -1.1392  0.6859  0.2360
  183DOPC   C1322421   7.102   6.204  11.990  0.1774  0.3213 -0.9692
  183DOPC  H13A22422   7.169   6.285  11.969  0.0524  0.2236 -1.7889
  183DOPC  H13B22423   7.090   6.131  11.911 -1.6500 -0.2337 -0.2446
  183DOPC  H13C22424   7.004   6.244  12.010  0.4841  1.4173 -1.5768
  183DOPC   C1422425   7.085   6.013  12.134  0.6642  0.9762 -0.1389
  183DOPC  H14A22426   6.986   6.037  12.168  0.7662 -1.5979  2.3265
  183DOPC  H14B22427   7.070   5.952  12.046 -0.0586  1.0727 -0.0887
  183DOPC  H14C22428   7.133   5.948  12.206  0.0979  0.6254 -0.0783
  183DOPC   C1522429   7.307   6.107  12.080  0.1070 -0.0441 -0.3581
  183DOPC  H15A22430   7.368   6.195  12.096  0.0593  0.0232 -0.5432
  183DOPC  H15B22431   7.330   6.072  11.981  2.6717  0.3249  0.0289
  183DOPC  H15C22432   7.346   6.028  12.143 -2.4522 -0.5996  0.6519
  183DOPC   C1122433   7.004   6.271  12.259 -0.3083 -0.6000 -0.1014
  183DOPC  H11A22434   7.010   6.347  12.340  1.8787  0.2333 -0.9621
  183DOPC  H11B22435   6.948   6.316  12.175 -2.0114 -1.1051  0.7065
  183DOPC     P22436   6.944   6.102  12.456 -0.1248  0.0644 -0.1101
  183DOPC   O1322437   7.070   6.028  12.468  0.2074 -0.6453 -0.6803
  183DOPC   O1422438   6.821   6.033  12.507  0.3043 -0.1111  0.3249
  183DOPC   O1222439   6.924   6.160  12.310  0.2851 -0.5229 -1.0121
  183DOPC   O1122440   6.959   6.239  12.535 -0.3492 -0.1742 -0.4340
  183DOPC    C122441   7.053   6.247  12.640  0.0693  0.0325 -0.2556
  183DOPC    HA22442   7.156   6.223  12.607 -1.0208 -2.5017 -2.1931
  183DOPC    HB22443   7.018   6.182  12.723 -1.3800  1.3935  0.2616
  183DOPC    C222444   7.060   6.391  12.684  0.1556 -0.1447  0.0455
  183DOPC    HS22445   7.133   6.403  12.767 -1.9546 -0.2017  2.0082
  183DOPC   O2122446   6.928   6.421  12.748 -0.0272  0.0535  0.7033
  183DOPC   C2122447   6.914   6.370  12.866  0.2830 -0.0967 -0.7368
  183DOPC   O2222448   7.006   6.313  12.926  0.2882 -0.2011  0.0790
  183DOPC   C2222449   6.782   6.409  12.930 -0.2524 -0.4393 -0.1371
  183DOPC   H2R22450   6.724   6.477  12.864 -2.7024 -0.7169  1.6276
  183DOPC   H2S22451   6.802   6.474  13.018  1.6574 -1.5690  0.3325
  183DOPC    C322452   7.094   6.500  12.575 -0.8544  0.4043 -0.2323
  183DOPC    HX22453   7.008   6.507  12.504 -0.6684  0.4204 -0.4573
  183DOPC    HY22454   7.174   6.451  12.516 -1.4028 -1.3635  0.4253
  183DOPC   O3122455   7.131   6.626  12.628 -0.9353  0.1084 -0.0514
  183DOPC   C3122456   7.253   6.643  12.680  0.1938  0.4953  0.3283
  183DOPC   O3222457   7.343   6.561  12.667 -0.4839  0.2658  0.3921
  183DOPC   C3222458   7.265   6.771  12.762 -0.1311  0.3976 -0.2567
  183DOPC   H2X22459   7.360   6.766  12.819  0.6935 -0.4254 -1.6630
  183DOPC   H2Y22460   7.261   6.859  12.694 -2.1580  1.1379  0.7237
  183DOPC   C2322461   6.699   6.289  12.979  0.4664  0.5263 -0.3475
  183DOPC   H3R22462   6.689   6.222  12.892  2.2749  1.4515 -1.3332
  183DOPC   H3S22463   6.597   6.315  13.015  0.0549 -0.0030 -1.0952
  183DOPC   C2422464   6.751   6.200  13.092 -0.1912  0.3044 -0.4523
  183DOPC   H4R22465   6.844   6.159  13.046 -0.3074  1.0340 -1.3879
  183DOPC   H4S22466   6.681   6.120  13.123  1.3019 -0.8472  0.0560
  183DOPC   C2522467   6.797   6.285  13.215 -0.0937  0.1029  0.3296
  183DOPC   H5R22468   6.714   6.356  13.236  1.1393  1.4821  0.7209
  183DOPC   H5S22469   6.881   6.352  13.186  2.0592 -2.3338  0.5659
  183DOPC   C2622470   6.831   6.207  13.342 -0.7669 -0.2289 -0.2408
  183DOPC   H6R22471   6.926   6.152  13.321 -2.0747 -2.6317 -0.2355
  183DOPC   H6S22472   6.746   6.141  13.366 -0.5842  0.2308  1.8668
  183DOPC   C2722473   6.874   6.297  13.465  0.4491  0.8232  0.0016
  183DOPC   H7R22474   6.799   6.376  13.489  1.0193  0.8705  1.7383
  183DOPC   H7S22475   6.970   6.351  13.453  2.0176 -1.4609  1.7027
  183DOPC   C2822476   6.883   6.207  13.592  0.1108 -0.0606  0.0045
  183DOPC   H8R22477   6.987   6.168  13.598  0.8650  1.7842 -0.3355
  183DOPC   H8S22478   6.815   6.120  13.578  2.1510 -1.6872 -0.3666
  183DOPC   C2922479   6.874   6.275  13.724 -0.3569  0.1354 -0.1238
  183DOPC   H9R22480   6.795   6.351  13.732 -0.6192 -0.3225  3.6753
  183DOPC  C21022481   6.958   6.267  13.832  0.1545 -0.8216 -1.1658
  183DOPC  H10R22482   6.941   6.325  13.923  2.3829 -2.6142  0.5251
  183DOPC  C21122483   7.078   6.181  13.848 -0.5095  0.2842  0.8107
  183DOPC  H11R22484   7.166   6.228  13.898  2.3407 -1.7220 -1.9016
  183DOPC  H11S22485   7.127   6.148  13.754 -0.2396  0.0048  1.0435
  183DOPC  C21222486   7.058   6.061  13.940  0.5013 -0.3698  0.2166
  183DOPC  H12R22487   6.984   5.991  13.895  1.9783 -0.9745 -1.4363
  183DOPC  H12S22488   7.025   6.096  14.040  1.8943 -1.4495  1.0948
  183DOPC  C21322489   7.185   5.979  13.957  0.6301  0.3210  0.5035
  183DOPC  H13R22490   7.266   6.043  13.999 -0.5205  1.8334  0.4878
  183DOPC  H13S22491   7.213   5.930  13.861 -2.0890 -0.2553 -0.0855
  183DOPC  C21422492   7.169   5.857  14.051  0.1316 -0.2398  1.0083
  183DOPC  H14R22493   7.116   5.771  14.007  0.2297 -0.8770  2.0907
  183DOPC  H14S22494   7.114   5.900  14.138  1.2508  3.4718  0.0893
  183DOPC  C21522495   7.313   5.812  14.103  0.9035 -0.6639  0.2690
  183DOPC  H15R22496   7.347   5.901  14.161 -0.2977 -1.4048  2.2195
  183DOPC  H15S22497   7.376   5.812  14.012  0.5777  4.8223 -0.2904
  183DOPC  C21622498   7.321   5.687  14.189  0.2242 -0.3356 -0.0032
  183DOPC  H16R22499   7.220   5.663  14.230 -0.1961  3.1175  1.3499
  183DOPC  H16S22500   7.405   5.685  14.261  0.8514  1.4154 -0.6522
  183DOPC  C21722501   7.344   5.563  14.097 -0.0102  0.4918  0.3559
  183DOPC  H17R22502   7.270   5.573  14.016 -0.5459  1.1651  0.9101
  183DOPC  H17S22503   7.318   5.467  14.146 -0.5634 -0.8915 -2.4422
  183DOPC  C21822504   7.490   5.546  14.042  0.0578  0.4600  0.4285
  183DOPC  H18R22505   7.570   5.558  14.119 -0.1310  0.5675  0.6086
  183DOPC  H18S22506   7.509   5.627  13.968 -0.0894  1.2080  1.1814
  183DOPC  H18T22507   7.489   5.441  14.006  0.9507  0.5984 -0.0279
  183DOPC   C3322508   7.153   6.790  12.872  1.2819  0.7116 -0.3842
  183DOPC   H3X22509   7.056   6.803  12.820  0.7131  0.4595  0.5670
  183DOPC   H3Y22510   7.176   6.881  12.931 -0.1731  1.1304 -0.4253
  183DOPC   C3422511   7.152   6.672  12.967  0.0411  0.4769  0.7594
  183DOPC   H4X22512   7.253   6.651  13.010  0.4187  0.1947 -0.2519
  183DOPC   H4Y22513   7.133   6.577  12.913 -1.8158  1.3157 -0.1356
  183DOPC   C3522514   7.041   6.676  13.077  0.1764 -0.4428  0.2027
  183DOPC   H5X22515   7.006   6.573  13.099 -2.9896  0.5047  0.0769
  183DOPC   H5Y22516   6.956   6.735  13.035  0.4256  2.1402  2.9609
  183DOPC   C3622517   7.089   6.737  13.210  0.3124  0.7520 -0.0476
  183DOPC   H6X22518   7.164   6.663  13.246 -0.1517 -0.4678 -1.5107
  183DOPC   H6Y22519   7.126   6.840  13.191 -1.7494  1.3961 -0.8436
  183DOPC   C3722520   6.969   6.741  13.305  0.2129 -1.0113 -0.5288
  183DOPC   H7X22521   6.881   6.775  13.247  0.4388 -0.9680 -0.8464
  183DOPC   H7Y22522   6.946   6.641  13.348  1.7382 -0.4084  1.8901
  183DOPC   C3822523   6.998   6.821  13.432 -0.6812 -0.1265 -0.4599
  183DOPC   H8X22524   7.038   6.919  13.398  0.2046  0.4039  1.8845
  183DOPC   H8Y22525   7.080   6.787  13.499  0.0427 -0.1335 -1.3362
  183DOPC   C3922526   6.885   6.844  13.532 -0.4219  0.4466  0.5098
  183DOPC   H9X22527   6.822   6.932  13.511 -1.2729 -0.5803 -1.6185
  183DOPC  C31022528   6.870   6.783  13.651 -0.6988 -1.4555  0.0940
  183DOPC  H10X22529   6.798   6.835  13.717  0.3671  1.0923 -0.6327
  183DOPC  C31122530   6.949   6.667  13.703  0.0454  1.0228 -0.1194
  183DOPC  H11X22531   7.042   6.647  13.645  0.2592 -0.1391  0.6065
  183DOPC  H11Y22532   6.891   6.573  13.710 -2.0951  2.2646 -0.0254
  183DOPC  C31222533   7.012   6.695  13.842  0.7263 -0.2478  0.9066
  183DOPC  H12X22534   7.080   6.613  13.872  0.6395 -0.4926  0.4343
  183DOPC  H12Y22535   6.924   6.700  13.910 -0.2451  2.5048 -0.4113
  183DOPC  C31322536   7.105   6.816  13.850 -0.4255 -0.7468 -0.4153
  183DOPC  H13X22537   7.060   6.915  13.828  0.2433  0.0697  1.6103
  183DOPC  H13Y22538   7.129   6.834  13.957 -0.9087 -0.8422 -0.2868
  183DOPC  C31422539   7.240   6.801  13.783 -0.1944  0.0920 -0.6552
  183DOPC  H14X22540   7.279   6.713  13.839 -3.4303 -0.9018  0.2460
  183DOPC  H14Y22541   7.224   6.771  13.677  0.7409  0.0119 -0.7824
  183DOPC  C31522542   7.340   6.915  13.795  0.2532 -0.4934  0.2166
  183DOPC  H15X22543   7.296   7.007  13.752 -3.9877 -2.1003  0.7156
  183DOPC  H15Y22544   7.420   6.884  13.725 -2.2272 -0.6162 -2.7501
  183DOPC  C31622545   7.383   6.941  13.941  0.0750  0.1665 -0.3139
  183DOPC  H16X22546   7.302   6.998  13.992  1.2839  2.9184 -1.2851
  183DOPC  H16Y22547   7.401   6.840  13.986 -2.2370 -0.3330 -0.4047
  183DOPC  C31722548   7.508   7.021  13.945 -0.1808  0.4794  0.2704
  183DOPC  H17X22549   7.597   6.979  13.895  0.3422  2.2248 -0.3438
  183DOPC  H17Y22550   7.478   7.117  13.898 -1.8206 -0.3291 -0.4422
  183DOPC  C31822551   7.551   7.058  14.090 -0.2401 -0.1573  0.4013
  183DOPC  H18X22552   7.597   6.967  14.134 -1.1774 -2.1653 -2.4162
  183DOPC  H18Y22553   7.637   7.128  14.082  1.0723 -1.9019 -2.1476
  183DOPC  H18Z22554   7.468   7.101  14.150  0.3472 -0.9171  1.7979
  184DOPC     N22555   6.273   1.290  12.241 -0.1849  0.1572 -0.2233
  184DOPC   C1222556   6.185   1.171  12.219 -0.5173  0.4577 -0.0319
  184DOPC  H12A22557   6.231   1.080  12.252 -0.4892  0.8947  1.1853
  184DOPC  H12B22558   6.164   1.158  12.114 -0.2395  2.4659 -0.3764
  184DOPC   C1322559   6.216   1.416  12.184 -0.8851 -0.6931  0.0612
  184DOPC  H13A22560   6.118   1.440  12.222  0.1836  1.6985  1.5310
  184DOPC  H13B22561   6.278   1.501  12.205 -0.7371 -0.2137 -2.0590
  184DOPC  H13C22562   6.206   1.407  12.076 -2.5238 -2.8065  0.3186
  184DOPC   C1422563   6.407   1.267  12.182 -0.4494 -0.5494 -0.0465
  184DOPC  H14A22564   6.406   1.233  12.079 -1.5314  0.9901 -0.5738
  184DOPC  H14B22565   6.476   1.350  12.183 -1.6352  0.5236 -2.1484
  184DOPC  H14C22566   6.463   1.189  12.232  0.1304 -0.7395 -0.9746
  184DOPC   C1522567   6.297   1.303  12.390 -0.1853 -0.4068  0.0276
  184DOPC  H15A22568   6.338   1.211  12.429  1.7311  0.2694 -0.2774
  184DOPC  H15B22569   6.207   1.316  12.447  0.3697  0.6942  0.6990
  184DOPC  H15C22570   6.371   1.382  12.399 -0.6046  0.0777 -0.6195
  184DOPC   C1122571   6.052   1.171  12.297 -0.2920  0.1239 -0.3658
  184DOPC  H11A22572   6.017   1.066  12.308  0.2980  0.0132  0.5152
  184DOPC  H11B22573   6.071   1.195  12.404 -1.7673 -1.8833  0.4133
  184DOPC     P22574   5.865   1.347  12.317 -0.2988  0.1557  0.0618
  184DOPC   O1322575   5.732   1.309  12.270 -0.1091  0.0607 -0.1426
  184DOPC   O1422576   5.906   1.488  12.295 -0.2752 -0.1919  0.3947
  184DOPC   O1222577   5.963   1.259  12.233 -0.3190 -0.6350 -0.4903
  184DOPC   O1122578   5.873   1.307  12.464 -0.1601  0.2022 -0.6999
  184DOPC    C122579   5.774   1.363  12.562  0.0957  0.0537  0.4606
  184DOPC    HA22580   5.671   1.346  12.525  0.0792  0.9525  0.0679
  184DOPC    HB22581   5.785   1.473  12.574  0.0387 -0.0950  2.2303
  184DOPC    C222582   5.784   1.300  12.703  0.5067  0.2111 -0.2076
  184DOPC    HS22583   5.685   1.313  12.750  1.7681  1.4202  2.3488
  184DOPC   O2122584   5.882   1.359  12.792  0.1920  0.4733  0.0688
  184DOPC   C2122585   5.867   1.485  12.833  0.2692 -0.1786 -0.1910
  184DOPC   O2222586   5.756   1.542  12.825  0.2435  1.0770  0.2677
  184DOPC   C2222587   5.997   1.529  12.899  0.1091 -0.2617  0.2348
  184DOPC   H2R22588   6.083   1.520  12.829 -0.3207  1.6110 -0.5910
  184DOPC   H2S22589   6.010   1.469  12.992  1.7034 -0.1151  0.1395
  184DOPC    C322590   5.794   1.148  12.695 -0.5744 -0.0253  0.1172
  184DOPC    HX22591   5.888   1.122  12.641  0.1838 -1.1756  1.8939
  184DOPC    HY22592   5.713   1.128  12.622  1.2709 -0.5459 -1.8958
  184DOPC   O3122593   5.783   1.088  12.826  0.1545  0.2718  0.1583
  184DOPC   C3122594   5.898   1.058  12.871 -0.4019 -0.1338  0.0712
  184DOPC   O3222595   6.005   1.080  12.819 -0.2050 -0.0737  0.1186
  184DOPC   C3222596   5.885   0.981  13.012  0.0810 -0.8655  0.7143
  184DOPC   H2X22597   5.866   0.878  12.974  0.7954 -1.7199  2.5568
  184DOPC   H2Y22598   5.982   0.988  13.066 -0.2931  1.8781  1.1510
  184DOPC   C2322599   6.000   1.677  12.953  0.4924 -0.1153  0.0380
  184DOPC   H3R22600   5.912   1.700  13.018  0.2844 -0.0388 -0.2705
  184DOPC   H3S22601   6.002   1.740  12.861 -0.0037  0.5540  0.4732
  184DOPC   C2422602   6.134   1.711  13.012 -0.5014 -0.1170 -1.0047
  184DOPC   H4R22603   6.150   1.821  13.017  1.4651 -0.1025 -4.4236
  184DOPC   H4S22604   6.211   1.673  12.942  1.9876  1.5346  0.6835
  184DOPC   C2522605   6.173   1.633  13.136  0.6631 -0.3816 -0.7957
  184DOPC   H5R22606   6.196   1.526  13.114  0.2149 -1.2562  2.5551
  184DOPC   H5S22607   6.089   1.638  13.207  0.4442 -2.1438 -0.9013
  184DOPC   C2622608   6.312   1.676  13.198  0.1024  0.0219  0.2296
  184DOPC   H6R22609   6.315   1.782  13.228  1.0214  0.3834 -1.0676
  184DOPC   H6S22610   6.387   1.662  13.117 -1.1798  0.4425 -1.0773
  184DOPC   C2722611   6.343   1.590  13.316  0.0117 -0.1977  0.3623
  184DOPC   H7R22612   6.324   1.481  13.301  1.2485 -0.6222  1.6229
  184DOPC   H7S22613   6.273   1.629  13.393 -0.8118  1.1837 -1.0349
  184DOPC   C2822614   6.488   1.606  13.369 -0.1951  0.6036 -0.3618
  184DOPC   H8R22615   6.482   1.565  13.472  0.7936 -3.1829 -1.6306
  184DOPC   H8S22616   6.521   1.712  13.376  0.9979  0.2994 -1.1073
  184DOPC   C2922617   6.584   1.518  13.295  0.0502 -0.8622 -0.4656
  184DOPC   H9R22618   6.558   1.523  13.188 -2.7028  2.3443  0.1684
  184DOPC  C21022619   6.672   1.426  13.342 -0.5450  0.3988 -0.3211
  184DOPC  H10R22620   6.729   1.357  13.278 -1.4315 -1.1760  0.5246
  184DOPC  C21122621   6.696   1.412  13.496  0.6131  0.2958  0.0145
  184DOPC  H11R22622   6.673   1.505  13.551 -0.9912  0.6331 -1.1642
  184DOPC  H11S22623   6.804   1.387  13.510  0.0977 -2.7596 -0.6557
  184DOPC  C21222624   6.628   1.292  13.566  0.1927 -0.1377 -0.5086
  184DOPC  H12R22625   6.518   1.295  13.550  0.6954  1.0637 -5.5953
  184DOPC  H12S22626   6.652   1.302  13.674  1.3858  2.9014 -0.9352
  184DOPC  C21322627   6.666   1.150  13.503 -0.1934  0.7962 -0.0739
  184DOPC  H13R22628   6.776   1.138  13.518  0.1351  1.3820 -1.8136
  184DOPC  H13S22629   6.640   1.150  13.396  1.4698  0.1018 -0.5161
  184DOPC  C21422630   6.597   1.041  13.582  0.2773 -0.0181  0.4974
  184DOPC  H14R22631   6.487   1.055  13.586  0.0203 -0.9546 -1.6137
  184DOPC  H14S22632   6.631   1.046  13.687 -0.6553 -0.9370  0.8564
  184DOPC  C21522633   6.634   0.905  13.537 -0.1605  0.2802  0.1895
  184DOPC  H15R22634   6.583   0.839  13.611 -0.3416  1.0286  0.7365
  184DOPC  H15S22635   6.744   0.892  13.540 -0.0430  1.1898  0.0854
  184DOPC  C21622636   6.563   0.866  13.404 -0.3912 -0.2571  0.5713
  184DOPC  H16R22637   6.602   0.917  13.314  1.0385 -0.0868  1.2604
  184DOPC  H16S22638   6.463   0.911  13.423 -0.0451  2.3426 -2.8489
  184DOPC  C21722639   6.551   0.712  13.396  0.6722  0.0356 -0.2217
  184DOPC  H17R22640   6.541   0.681  13.289 -0.9590 -0.5637  0.0883
  184DOPC  H17S22641   6.465   0.678  13.457  0.6858  0.3878 -0.0062
  184DOPC  C21822642   6.674   0.634  13.443  0.5987 -0.3654  1.4956
  184DOPC  H18R22643   6.672   0.528  13.413  0.4202  0.1109 -0.2703
  184DOPC  H18S22644   6.684   0.626  13.554 -1.1935 -0.8874  1.6429
  184DOPC  H18T22645   6.772   0.676  13.409 -0.7037  3.4184  1.9100
  184DOPC   C3322646   5.771   1.020  13.104 -0.0348 -0.8203 -0.3371
  184DOPC   H3X22647   5.757   0.929  13.166 -0.0188 -0.4601  0.1962
  184DOPC   H3Y22648   5.677   1.052  13.052  0.1594 -0.6332 -0.5766
  184DOPC   C3422649   5.808   1.139  13.194 -0.2790 -0.4121 -0.4727
  184DOPC   H4X22650   5.889   1.113  13.265 -0.1654  0.1595 -0.3896
  184DOPC   H4Y22651   5.717   1.157  13.255  0.5157  0.3698  0.4963
  184DOPC   C3522652   5.835   1.271  13.126 -0.3401 -0.3617  0.5631
  184DOPC   H5X22653   5.770   1.274  13.036  1.3727  1.0703 -0.7082
  184DOPC   H5Y22654   5.941   1.270  13.090 -0.1425  0.9051  1.0687
  184DOPC   C3622655   5.807   1.398  13.215 -0.1334  0.0898  0.5469
  184DOPC   H6X22656   5.813   1.484  13.144  0.5885 -0.6137 -0.2723
  184DOPC   H6Y22657   5.711   1.386  13.269  0.0843  1.1810  1.2248
  184DOPC   C3722658   5.917   1.422  13.319 -0.1525 -0.4345 -0.0937
  184DOPC   H7X22659   5.950   1.332  13.375 -0.7729 -0.0340  0.9323
  184DOPC   H7Y22660   6.010   1.447  13.262 -1.0594  1.1419 -0.9432
  184DOPC   C3822661   5.891   1.527  13.422  0.1887  0.2234 -0.4543
  184DOPC   H8X22662   5.965   1.511  13.503  1.3043  1.9354 -1.0733
  184DOPC   H8Y22663   5.796   1.490  13.467 -0.1127  0.1527 -1.1333
  184DOPC   C3922664   5.867   1.671  13.374 -0.1340 -0.0077 -0.3412
  184DOPC   H9X22665   5.809   1.698  13.285 -1.4003 -0.9158  0.1738
  184DOPC  C31022666   5.917   1.776  13.449 -0.1641  0.0683 -0.6993
  184DOPC  H10X22667   5.869   1.874  13.435 -1.4279 -0.5766 -1.1133
  184DOPC  C31122668   6.003   1.769  13.579 -0.4579  0.3279 -0.5776
  184DOPC  H11X22669   6.045   1.871  13.592 -1.0473  0.6760 -1.3361
  184DOPC  H11Y22670   6.092   1.706  13.557  0.4264  1.4585 -0.3681
  184DOPC  C31222671   5.949   1.722  13.714 -0.1327 -0.1882  0.2841
  184DOPC  H12X22672   5.924   1.615  13.704 -0.5052 -0.0588 -0.2350
  184DOPC  H12Y22673   5.860   1.783  13.743  0.1816  0.4972 -0.1676
  184DOPC  C31322674   6.051   1.728  13.830 -0.0886 -0.0119 -0.0930
  184DOPC  H13X22675   6.140   1.671  13.794 -1.2425  0.0946 -3.4593
  184DOPC  H13Y22676   6.081   1.833  13.850 -1.7203 -0.0633  3.2688
  184DOPC  C31422677   6.000   1.686  13.971  0.1357  0.2869  0.4700
  184DOPC  H14X22678   6.072   1.725  14.046  0.5203  0.7799 -0.1427
  184DOPC  H14Y22679   5.911   1.749  13.988  0.5838  0.3441  3.0074
  184DOPC  C31522680   5.978   1.535  13.996  0.1748 -0.2504 -0.2077
  184DOPC  H15X22681   6.073   1.478  13.998 -0.8945 -2.1878  3.2368
  184DOPC  H15Y22682   5.932   1.485  13.908  0.1947  0.2806 -0.5297
  184DOPC  C31622683   5.907   1.520  14.129 -0.5459  0.2047  0.7173
  184DOPC  H16X22684   5.954   1.569  14.217  1.5704  0.8104 -0.6552
  184DOPC  H16Y22685   5.806   1.566  14.121 -0.9877 -0.9893 -1.3443
  184DOPC  C31722686   5.867   1.376  14.174 -0.0494 -0.4336 -0.1397
  184DOPC  H17X22687   5.828   1.331  14.080 -0.8096  0.0613 -0.0694
  184DOPC  H17Y22688   5.952   1.330  14.228 -1.9863 -2.4613  1.3363
  184DOPC  C31822689   5.746   1.386  14.270  0.6288  0.1766 -0.0083
  184DOPC  H18X22690   5.667   1.443  14.217  0.5169 -0.8460 -0.9891
  184DOPC  H18Y22691   5.715   1.281  14.291 -0.9756  0.5359 -0.4505
  184DOPC  H18Z22692   5.771   1.428  14.370 -1.0451  0.1228  0.4610
  185DOPC     N22693   6.624   6.391  12.402 -0.4979  0.3751  1.1574
  185DOPC   C1222694   6.598   6.267  12.500  0.2269 -0.7892 -0.1017
  185DOPC  H12A22695   6.695   6.223  12.519  0.0101 -3.0949 -3.4328
  185DOPC  H12B22696   6.542   6.189  12.450  1.8786 -1.8359 -0.4283
  185DOPC   C1322697   6.506   6.477  12.388  0.1679  0.6070 -0.4707
  185DOPC  H13A22698   6.416   6.432  12.352 -0.3231 -0.2373  1.6848
  185DOPC  H13B22699   6.477   6.519  12.483 -0.0846  2.6211 -1.3718
  185DOPC  H13C22700   6.527   6.550  12.311 -0.0099  1.9102  0.6744
  185DOPC   C1422701   6.672   6.344  12.270  0.4041 -0.2591  0.4008
  185DOPC  H14A22702   6.764   6.289  12.282  0.9189  0.3328 -0.6688
  185DOPC  H14B22703   6.601   6.281  12.218  0.2590 -0.1690  0.4876
  185DOPC  H14C22704   6.699   6.426  12.206  0.8027 -1.3291 -0.8618
  185DOPC   C1522705   6.732   6.472  12.471 -0.4527  0.1916 -0.0356
  185DOPC  H15A22706   6.814   6.408  12.501 -1.8526 -1.9631 -0.5770
  185DOPC  H15B22707   6.687   6.524  12.553 -0.3425 -1.1885  0.9240
  185DOPC  H15C22708   6.770   6.548  12.404  0.5274  1.2664  1.6598
  185DOPC   C1122709   6.517   6.294  12.624 -0.0560  0.2734 -0.1278
  185DOPC  H11A22710   6.538   6.209  12.693 -1.4606 -1.0197 -1.2416
  185DOPC  H11B22711   6.557   6.382  12.679  0.5831 -0.5963  0.8612
  185DOPC     P22712   6.290   6.189  12.554 -0.0115 -0.4733 -0.5107
  185DOPC   O1322713   6.370   6.083  12.483 -0.6634  0.1700  0.2591
  185DOPC   O1422714   6.162   6.227  12.489  0.1380  0.0650  0.0833
  185DOPC   O1222715   6.382   6.310  12.592 -0.2434  0.1894  0.8776
  185DOPC   O1122716   6.250   6.129  12.694  0.1603  0.2262 -0.0357
  185DOPC    C122717   6.205   6.209  12.804  0.0866  0.4300 -0.1581
  185DOPC    HA22718   6.094   6.207  12.812  0.2326 -1.3086  2.9777
  185DOPC    HB22719   6.236   6.316  12.792 -0.3575  0.7167  1.1017
  185DOPC    C222720   6.267   6.162  12.944 -0.1696 -0.2858 -0.1922
  185DOPC    HS22721   6.373   6.131  12.932 -0.1519  0.0466 -0.9208
  185DOPC   O2122722   6.198   6.049  12.992 -0.4005 -0.3675  0.2867
  185DOPC   C2122723   6.245   5.930  12.953  0.3884  0.2302 -0.2504
  185DOPC   O2222724   6.349   5.914  12.889  0.3106  0.4910  0.2136
  185DOPC   C2222725   6.141   5.828  13.005  0.0232 -0.4590 -0.2020
  185DOPC   H2R22726   6.153   5.733  12.949 -1.7223 -0.6732 -0.2849
  185DOPC   H2S22727   6.042   5.863  12.968  1.4225  3.4839 -0.7423
  185DOPC    C322728   6.272   6.276  13.049  0.6927 -0.4892 -0.5960
  185DOPC    HX22729   6.290   6.235  13.151 -1.8436  0.6492  0.4138
  185DOPC    HY22730   6.169   6.317  13.057  0.0271 -2.3626  2.2496
  185DOPC   O3122731   6.370   6.371  13.011  0.4957 -0.8702  0.1756
  185DOPC   C3122732   6.324   6.504  13.008 -0.3217 -1.2416 -0.5414
  185DOPC   O3222733   6.208   6.535  13.040 -0.3008 -0.0782 -0.5401
  185DOPC   C3222734   6.431   6.607  12.982 -0.3383  1.2561  0.1651
  185DOPC   H2X22735   6.499   6.570  12.902 -0.7195 -1.8208  1.0986
  185DOPC   H2Y22736   6.384   6.700  12.945 -0.3732  1.0485 -0.3209
  185DOPC   C2322737   6.139   5.813  13.162  0.1890 -0.3264 -0.1905
  185DOPC   H3R22738   6.038   5.772  13.184  0.4912 -2.1431 -1.8818
  185DOPC   H3S22739   6.143   5.909  13.218 -0.2764 -1.1020  1.2339
  185DOPC   C2422740   6.250   5.725  13.223 -0.4468 -0.4212 -0.1913
  185DOPC   H4R22741   6.229   5.623  13.184  1.0256  0.2922 -3.0543
  185DOPC   H4S22742   6.237   5.723  13.334 -0.0071  0.4030 -0.1187
  185DOPC   C2522743   6.394   5.769  13.183  0.3087  0.4673 -0.5892
  185DOPC   H5R22744   6.408   5.872  13.222 -0.9290  0.6354 -0.5344
  185DOPC   H5S22745   6.415   5.762  13.074 -1.0190  0.6242 -0.8739
  185DOPC   C2622746   6.502   5.684  13.249  0.1742 -0.1254 -0.2579
  185DOPC   H6R22747   6.469   5.582  13.222 -1.9893  0.6182 -0.6701
  185DOPC   H6S22748   6.505   5.702  13.359 -0.7040 -1.1943 -0.0420
  185DOPC   C2722749   6.644   5.710  13.202 -0.0767 -0.2764  0.0250
  185DOPC   H7R22750   6.653   5.720  13.092  0.5644 -2.2437 -0.1363
  185DOPC   H7S22751   6.701   5.616  13.216 -1.1157 -1.0353 -0.7072
  185DOPC   C2822752   6.724   5.833  13.266 -0.3741 -0.0924  0.2817
  185DOPC   H8R22753   6.662   5.922  13.244  1.1448  0.9225 -0.0916
  185DOPC   H8S22754   6.819   5.841  13.209  0.6173  1.2441  2.0168
  185DOPC   C2922755   6.744   5.818  13.416 -0.3499 -0.4119  0.3247
  185DOPC   H9R22756   6.649   5.821  13.472 -0.6839  4.5723 -0.0120
  185DOPC  C21022757   6.854   5.826  13.487 -0.5363  0.4633 -0.5332
  185DOPC  H10R22758   6.855   5.821  13.597  1.0082  0.5458 -0.5238
  185DOPC  C21122759   6.986   5.866  13.424 -0.0858  0.1911  1.0695
  185DOPC  H11R22760   7.011   5.970  13.453 -2.0683  0.7831  0.7974
  185DOPC  H11S22761   6.991   5.866  13.313  2.1392  1.2673  1.1077
  185DOPC  C21222762   7.102   5.773  13.463 -0.9444  0.2267  0.1977
  185DOPC  H12R22763   7.192   5.811  13.408  0.9289  0.4556  3.2147
  185DOPC  H12S22764   7.076   5.675  13.419  0.4752 -0.1408  0.1179
  185DOPC  C21322765   7.137   5.774  13.607 -0.5229 -0.3626 -0.9907
  185DOPC  H13R22766   7.057   5.716  13.659 -1.4493 -0.3888 -2.3956
  185DOPC  H13S22767   7.136   5.882  13.635  1.5953 -0.4071 -0.5891
  185DOPC  C21422768   7.282   5.738  13.648  1.2622  0.7297  0.2733
  185DOPC  H14R22769   7.286   5.714  13.756  2.1646 -0.7194 -0.0473
  185DOPC  H14S22770   7.346   5.827  13.631  1.7438 -0.1824 -3.7098
  185DOPC  C21522771   7.343   5.622  13.578  0.2849  0.4082  0.3994
  185DOPC  H15R22772   7.357   5.639  13.469  1.8245 -2.4758  0.0319
  185DOPC  H15S22773   7.280   5.534  13.602  1.5858 -0.6181  0.1846
  185DOPC  C21622774   7.473   5.581  13.637 -0.5348 -0.4546  0.3526
  185DOPC  H16R22775   7.515   5.490  13.590 -0.5583 -0.0585 -0.4651
  185DOPC  H16S22776   7.448   5.562  13.744  0.8961 -0.8768  0.6339
  185DOPC  C21722777   7.584   5.687  13.635 -0.5098 -0.2217 -0.4293
  185DOPC  H17R22778   7.555   5.782  13.684  0.5971  0.0187 -0.2009
  185DOPC  H17S22779   7.600   5.715  13.528  0.6772 -1.0464 -0.4882
  185DOPC  C21822780   7.719   5.638  13.686 -0.2184 -0.4603 -0.6226
  185DOPC  H18R22781   7.767   5.570  13.613 -0.8998 -0.2298 -1.2935
  185DOPC  H18S22782   7.711   5.582  13.782  0.1729  0.6300  0.0632
  185DOPC  H18T22783   7.792   5.720  13.703  0.0527 -0.3981 -1.9815
  185DOPC   C3322784   6.513   6.641  13.104 -0.7133  0.0421  0.1596
  185DOPC   H3X22785   6.602   6.702  13.076 -1.2200  0.6766 -0.0617
  185DOPC   H3Y22786   6.559   6.552  13.153  0.8481  0.8464  0.2123
  185DOPC   C3422787   6.435   6.716  13.214 -0.2516 -0.1413  0.6157
  185DOPC   H4X22788   6.353   6.646  13.245  0.6031 -1.1345  0.7042
  185DOPC   H4Y22789   6.385   6.804  13.170 -2.3594 -1.0222  1.1164
  185DOPC   C3522790   6.524   6.771  13.325 -0.1111 -0.1367 -0.9069
  185DOPC   H5X22791   6.601   6.829  13.271 -2.3319  2.0507 -1.9529
  185DOPC   H5Y22792   6.578   6.702  13.393 -0.1858  1.1844  0.5516
  185DOPC   C3622793   6.453   6.874  13.412 -0.2790  0.5451  0.5500
  185DOPC   H6X22794   6.414   6.954  13.345 -0.2605  0.0018 -0.1168
  185DOPC   H6Y22795   6.363   6.827  13.456 -0.3483  0.6038  0.4726
  185DOPC   C3722796   6.532   6.927  13.530 -0.8697 -0.0784 -0.5191
  185DOPC   H7X22797   6.577   6.849  13.595  0.0917  2.6909  2.4265
  185DOPC   H7Y22798   6.615   6.989  13.490 -1.8949  0.5118 -1.8030
  185DOPC   C3822799   6.442   7.024  13.608  0.1886 -0.2819 -0.7308
  185DOPC   H8X22800   6.397   7.088  13.530 -0.7308  0.3946  0.3138
  185DOPC   H8Y22801   6.502   7.101  13.662 -2.6955  3.7183 -2.7310
  185DOPC   C3922802   6.338   6.979  13.707  0.9291 -0.0418  0.0841
  185DOPC   H9X22803   6.235   6.975  13.670  1.1644 -2.0027 -0.4289
  185DOPC  C31022804   6.362   6.955  13.836  0.8494 -0.0259 -0.0334
  185DOPC  H10X22805   6.277   6.933  13.902  0.9516  1.0547  0.4895
  185DOPC  C31122806   6.483   6.980  13.916  0.0380  1.2840 -0.7447
  185DOPC  H11X22807   6.451   7.026  14.012 -1.6078 -0.6676 -0.2920
  185DOPC  H11Y22808   6.546   7.050  13.857  1.0030  1.8761  0.9277
  185DOPC  C31222809   6.579   6.859  13.957 -0.5849 -0.4115  0.8926
  185DOPC  H12X22810   6.650   6.831  13.876 -0.7139 -2.3110  1.3736
  185DOPC  H12Y22811   6.515   6.768  13.966 -2.7065  0.6858 -1.5426
  185DOPC  C31322812   6.645   6.889  14.085  0.2895 -0.2598 -0.1138
  185DOPC  H13X22813   6.716   6.970  14.059  0.9623 -1.6677 -3.0889
  185DOPC  H13Y22814   6.566   6.925  14.155 -0.3351 -2.7802  0.5564
  185DOPC  C31422815   6.718   6.777  14.154  1.2327  0.5967 -0.0170
  185DOPC  H14X22816   6.662   6.681  14.147  0.5575  0.7347  2.5363
  185DOPC  H14Y22817   6.812   6.767  14.097  1.8416 -2.6318  1.3296
  185DOPC  C31522818   6.740   6.794  14.311 -0.2072  0.6732 -0.4645
  185DOPC  H15X22819   6.808   6.719  14.357  1.1520  2.7237  1.0444
  185DOPC  H15Y22820   6.644   6.784  14.365  0.7240 -1.7326  0.8811
  185DOPC  C31622821   6.797   6.926  14.356  0.0438 -0.2280  0.3660
  185DOPC  H16X22822   6.907   6.930  14.339 -0.2498  0.1206 -1.7839
  185DOPC  H16Y22823   6.755   7.009  14.295  2.2402  1.4310  0.9581
  185DOPC  C31722824   6.775   6.967  14.507 -0.0481  0.1980 -0.3791
  185DOPC  H17X22825   6.666   6.973  14.527 -0.0863 -1.3937  0.0027
  185DOPC  H17Y22826   6.817   6.879  14.560 -0.0949  1.4653  1.8883
  185DOPC  C31822827   6.849   7.094  14.540 -0.6078  0.2119  0.1017
  185DOPC  H18X22828   6.955   7.089  14.507  0.2755 -1.0900  2.8348
  185DOPC  H18Y22829   6.792   7.174  14.488  2.1058  2.1780 -0.0500
  185DOPC  H18Z22830   6.853   7.116  14.649 -0.3891 -1.1697  0.3961
  186DOPC     N22831   0.227   5.271  12.284 -0.1787 -0.2071 -0.0669
  186DOPC   C1222832   0.356   5.304  12.207  0.1517  0.2713 -1.0000
  186DOPC  H12A22833   0.332   5.386  12.140 -0.5017  0.9724  0.0557
  186DOPC  H12B22834   0.386   5.221  12.145  0.1206 -2.3686  2.2276
  186DOPC   C1322835   0.254   5.167  12.395  0.5485  0.2048  0.8634
  186DOPC  H13A22836   0.260   5.070  12.347  0.6230  1.7818 -2.6290
  186DOPC  H13B22837   0.345   5.192  12.449  0.9687 -1.0289  0.7719
  186DOPC  H13C22838   0.175   5.157  12.468 -1.9669 -3.7992 -2.0215
  186DOPC   C1422839   0.113   5.229  12.198  0.0904  0.2858  0.0950
  186DOPC  H14A22840   0.153   5.162  12.124 -3.8362 -1.6496 -0.4844
  186DOPC  H14B22841   0.039   5.173  12.253 -2.1805  1.2532 -1.8494
  186DOPC  H14C22842   0.059   5.314  12.159 -0.0054 -0.5578 -1.7056
  186DOPC   C1522843   0.187   5.391  12.361 -0.4803  0.1360  0.2732
  186DOPC  H15A22844   0.162   5.469  12.291  1.0308  1.7332  1.4406
  186DOPC  H15B22845   0.266   5.425  12.427 -1.4237  1.2175  0.8694
  186DOPC  H15C22846   0.101   5.370  12.423 -0.3985  0.6503  0.5617
  186DOPC   C1122847   0.484   5.345  12.279 -0.7332  0.2668  0.2290
  186DOPC  H11A22848   0.563   5.370  12.205  0.6142 -1.2000  1.0924
  186DOPC  H11B22849   0.471   5.429  12.350 -2.6207  0.9380 -0.8648
  186DOPC     P22850   0.643   5.243  12.465 -0.0801 -0.0767 -0.1355
  186DOPC   O1322851   0.588   5.315  12.581 -0.1302 -0.1496  0.2001
  186DOPC   O1422852   0.769   5.292  12.399  0.1012 -0.3598 -0.0983
  186DOPC   O1222853   0.533   5.235  12.357  0.1821  0.1835 -0.2330
  186DOPC   O1122854   0.665   5.095  12.506 -0.2760 -0.5304  0.2411
  186DOPC    C122855   0.575   5.023  12.597  0.3170  0.2702  1.2819
  186DOPC    HA22856   0.536   4.930  12.549 -4.3885  2.0831  0.9987
  186DOPC    HB22857   0.479   5.078  12.605  0.6024  0.9686  0.1343
  186DOPC    C222858   0.630   4.986  12.735 -1.2699  0.1143  0.4448
  186DOPC    HS22859   0.552   4.934  12.795 -0.3156 -0.2937  1.3658
  186DOPC   O2122860   0.671   5.102  12.812 -0.2499 -0.5209 -0.3052
  186DOPC   C2122861   0.578   5.172  12.860  0.7971 -0.1714 -0.6765
  186DOPC   O2222862   0.460   5.134  12.866  0.5672 -0.3721 -0.6043
  186DOPC   C2222863   0.623   5.306  12.913  0.0075  0.1959 -0.5263
  186DOPC   H2R22864   0.695   5.354  12.843 -0.5404  0.2090 -1.0860
  186DOPC   H2S22865   0.678   5.284  13.007  1.5363 -0.7076 -1.5769
  186DOPC    C322866   0.756   4.890  12.719  0.0919  0.4056 -0.5826
  186DOPC    HX22867   0.831   4.928  12.647  3.4143 -1.7626  1.4733
  186DOPC    HY22868   0.719   4.799  12.668 -0.5316  0.4674 -0.2573
  186DOPC   O3122869   0.820   4.854  12.841  0.4599 -0.3259  0.0450
  186DOPC   C3122870   0.765   4.760  12.916  0.3830 -0.4741  0.8161
  186DOPC   O3222871   0.676   4.684  12.873  0.2585 -0.5854 -0.0003
  186DOPC   C3222872   0.844   4.748  13.044 -0.2229  0.5992  0.0874
  186DOPC   H2X22873   0.948   4.784  13.028  0.0112 -0.6195 -1.2779
  186DOPC   H2Y22874   0.782   4.817  13.105  0.6417  1.9618 -0.5132
  186DOPC   C2322875   0.513   5.410  12.937  0.2175  0.3196 -1.0879
  186DOPC   H3R22876   0.424   5.386  12.875  0.4194 -1.5703 -0.6918
  186DOPC   H3S22877   0.561   5.508  12.920  1.6244  0.4180  2.5702
  186DOPC   C2422878   0.458   5.420  13.081  0.0829  0.5582 -0.7557
  186DOPC   H4R22879   0.537   5.442  13.156 -2.7729  1.8996  2.1052
  186DOPC   H4S22880   0.409   5.326  13.115  1.0822  0.4183  0.3483
  186DOPC   C2522881   0.357   5.542  13.084 -0.5104 -0.4126 -0.2180
  186DOPC   H5R22882   0.262   5.529  13.028 -1.6289  0.4789  1.3952
  186DOPC   H5S22883   0.414   5.621  13.030 -1.0398 -0.1117 -0.3380
  186DOPC   C2622884   0.314   5.594  13.227 -0.0144  0.1777 -0.1825
  186DOPC   H6R22885   0.399   5.572  13.294 -1.1459 -1.9939  0.6203
  186DOPC   H6S22886   0.229   5.533  13.263 -0.2332 -1.0779 -2.5939
  186DOPC   C2722887   0.273   5.743  13.230 -0.3531  0.0404 -0.3125
  186DOPC   H7R22888   0.188   5.760  13.160 -0.5987 -1.6751 -0.4621
  186DOPC   H7S22889   0.361   5.802  13.197  0.1016  0.1008  0.9584
  186DOPC   C2822890   0.224   5.796  13.365 -0.0669  0.1699 -0.1790
  186DOPC   H8R22891   0.137   5.738  13.404  1.1908  0.2010  3.0305
  186DOPC   H8S22892   0.181   5.897  13.350 -0.4200  0.0674  0.1289
  186DOPC   C2922893   0.314   5.796  13.484 -0.7480  0.4639  0.3558
  186DOPC   H9R22894   0.330   5.701  13.538  0.5907  0.6588  0.3380
  186DOPC  C21022895   0.369   5.900  13.548  0.8956 -1.0043  0.2468
  186DOPC  H10R22896   0.428   5.870  13.636  0.8197 -0.1718  0.5902
  186DOPC  C21122897   0.370   6.045  13.512  0.1069 -0.6466  0.1556
  186DOPC  H11R22898   0.334   6.107  13.597 -0.1594 -1.5990  0.7439
  186DOPC  H11S22899   0.302   6.055  13.425  2.1427  1.6685 -1.3207
  186DOPC  C21222900   0.510   6.095  13.471 -0.2560  0.3325 -0.0573
  186DOPC  H12R22901   0.586   6.085  13.551 -1.9831  0.7169  1.7094
  186DOPC  H12S22902   0.503   6.206  13.461  1.9836  0.6547  1.1898
  186DOPC  C21322903   0.562   6.016  13.346  0.0843 -0.9185 -0.3411
  186DOPC  H13R22904   0.482   6.017  13.269 -0.6883  0.6455  0.4302
  186DOPC  H13S22905   0.575   5.915  13.390  2.8749 -0.7643 -0.6440
  186DOPC  C21422906   0.686   6.086  13.292  0.7806  0.1659 -0.3223
  186DOPC  H14R22907   0.764   6.081  13.371  0.4938 -1.5582 -0.0999
  186DOPC  H14S22908   0.661   6.192  13.274  0.6550  0.3966  1.1653
  186DOPC  C21522909   0.728   6.031  13.150  0.1553  0.0465 -0.0507
  186DOPC  H15R22910   0.646   6.040  13.076 -0.2145  0.3377  0.3955
  186DOPC  H15S22911   0.745   5.922  13.165 -2.8258 -0.4281  0.3909
  186DOPC  C21622912   0.848   6.100  13.087  0.1083  0.7758  0.9460
  186DOPC  H16R22913   0.822   6.204  13.059  0.2193  0.5867  0.0942
  186DOPC  H16S22914   0.854   6.059  12.984 -0.4917  0.6931  0.9409
  186DOPC  C21722915   0.972   6.092  13.166  0.3134  0.2628  0.2262
  186DOPC  H17R22916   0.985   5.988  13.204 -1.8139 -0.5606 -1.1165
  186DOPC  H17S22917   0.967   6.151  13.260 -0.4437  0.6138 -0.0290
  186DOPC  C21822918   1.101   6.122  13.088 -0.0029  0.4659 -0.4790
  186DOPC  H18R22919   1.119   6.052  13.003  1.3863  0.4785 -0.2190
  186DOPC  H18S22920   1.182   6.088  13.156 -1.1902 -0.1821  0.6460
  186DOPC  H18T22921   1.102   6.230  13.063 -0.0950  0.8346  1.0546
  186DOPC   C3322922   0.844   4.610  13.118  0.3320 -0.3255  0.4878
  186DOPC   H3X22923   0.931   4.554  13.078  0.6384 -0.1029  0.8406
  186DOPC   H3Y22924   0.752   4.556  13.084  1.5620 -1.4516 -1.2169
  186DOPC   C3422925   0.859   4.633  13.273  0.3629  0.5961 -0.1371
  186DOPC   H4X22926   0.758   4.667  13.306 -1.7421 -3.6543 -1.3757
  186DOPC   H4Y22927   0.935   4.709  13.299 -1.1290  1.6040  1.5834
  186DOPC   C3522928   0.894   4.507  13.350 -0.0722  0.4080 -0.5608
  186DOPC   H5X22929   0.947   4.541  13.442 -0.2087  0.4224 -0.4860
  186DOPC   H5Y22930   0.955   4.434  13.293 -0.8860 -0.0225 -0.8969
  186DOPC   C3622931   0.764   4.433  13.387 -0.1015 -0.0033 -0.6214
  186DOPC   H6X22932   0.734   4.480  13.483  1.8364  1.1955 -0.5532
  186DOPC   H6Y22933   0.682   4.444  13.312 -0.7328  0.2001  0.0916
  186DOPC   C3722934   0.793   4.284  13.429  0.4093 -0.4322  0.0954
  186DOPC   H7X22935   0.851   4.234  13.348  1.2725 -2.7075  1.9744
  186DOPC   H7Y22936   0.866   4.290  13.513  1.7635 -0.2519 -1.0429
  186DOPC   C3822937   0.663   4.200  13.468 -0.1485 -0.6971  0.0881
  186DOPC   H8X22938   0.593   4.200  13.382 -1.1880 -1.5345  0.9144
  186DOPC   H8Y22939   0.606   4.254  13.546 -0.9860 -0.0280 -0.9615
  186DOPC   C3922940   0.687   4.058  13.494 -0.1375  0.6278 -0.1263
  186DOPC   H9X22941   0.731   4.011  13.405 -1.1012  1.6447 -1.1762
  186DOPC  C31022942   0.659   3.979  13.600  0.6682  0.0597 -0.4882
  186DOPC  H10X22943   0.684   3.872  13.604 -1.4735 -0.4279  0.7306
  186DOPC  C31122944   0.588   4.024  13.727 -0.8356  0.0058  0.4302
  186DOPC  H11X22945   0.516   3.947  13.762 -1.2762 -0.7464 -1.9875
  186DOPC  H11Y22946   0.543   4.123  13.703  0.9438  0.7344 -0.0060
  186DOPC  C31222947   0.694   4.047  13.840 -0.3766  0.2296 -0.3730
  186DOPC  H12X22948   0.741   3.951  13.869  1.3631  1.0045 -0.4826
  186DOPC  H12Y22949   0.634   4.083  13.926  0.6932 -1.2327  1.0502
  186DOPC  C31322950   0.794   4.165  13.817  0.1781  0.2336  0.6581
  186DOPC  H13X22951   0.867   4.121  13.746 -3.5888 -1.6143 -2.4669
  186DOPC  H13Y22952   0.732   4.238  13.762 -0.1446 -1.1744 -0.9347
  186DOPC  C31422953   0.864   4.216  13.946 -0.0969  0.6656 -0.0198
  186DOPC  H14X22954   0.787   4.271  14.005 -0.2613  1.6547 -1.1315
  186DOPC  H14Y22955   0.906   4.122  13.987  1.9093 -0.0792 -3.3971
  186DOPC  C31522956   0.976   4.315  13.917 -0.3460 -0.6729 -0.6789
  186DOPC  H15X22957   0.929   4.408  13.879  1.4821  0.6858  0.2179
  186DOPC  H15Y22958   1.051   4.284  13.840  1.4090  1.9207 -0.1314
  186DOPC  C31622959   1.054   4.358  14.044  0.0327 -0.0534  0.1846
  186DOPC  H16X22960   1.127   4.439  14.022  1.2541 -1.5816 -1.6889
  186DOPC  H16Y22961   0.978   4.391  14.118 -1.1800 -0.6635 -0.7636
  186DOPC  C31722962   1.134   4.248  14.119 -0.7048 -0.1967 -0.1298
  186DOPC  H17X22963   1.060   4.167  14.135 -2.1378  0.6592 -1.9786
  186DOPC  H17Y22964   1.207   4.195  14.054  1.4680 -1.0263  2.7780
  186DOPC  C31822965   1.203   4.294  14.246  0.3812 -0.2445  0.5792
  186DOPC  H18X22966   1.293   4.355  14.223  0.1052 -0.5316 -1.4276
  186DOPC  H18Y22967   1.129   4.356  14.300 -1.8866 -1.3735 -1.0764
  186DOPC  H18Z22968   1.239   4.212  14.311 -0.8976 -1.0261  0.3247
  187DOPC     N22969   5.774   1.861  12.359 -0.7491  0.7091 -0.6513
  187DOPC   C1222970   5.750   1.947  12.481  0.5256 -0.2087 -0.1957
  187DOPC  H12A22971   5.644   1.962  12.492  0.8292  1.1511  1.1828
  187DOPC  H12B22972   5.795   2.044  12.470 -0.9841  0.5962  0.4431
  187DOPC   C1322973   5.909   1.836  12.320 -0.1374 -0.2475  0.1340
  187DOPC  H13A22974   5.929   1.754  12.253 -0.5094 -0.8569  0.7581
  187DOPC  H13B22975   5.958   1.927  12.288  1.5205 -0.5139  1.7200
  187DOPC  H13C22976   5.966   1.812  12.408  2.1257  0.1612 -1.1478
  187DOPC   C1422977   5.696   1.920  12.241 -0.4283 -0.1585 -0.2193
  187DOPC  H14A22978   5.716   1.856  12.156 -0.0091  0.8528 -0.9051
  187DOPC  H14B22979   5.590   1.924  12.263 -0.0066 -0.8777  2.2179
  187DOPC  H14C22980   5.731   2.019  12.215 -2.4340  0.2275 -1.7230
  187DOPC   C1522981   5.713   1.730  12.387 -0.4230 -0.7755  0.3081
  187DOPC  H15A22982   5.606   1.748  12.390 -0.1209  1.7539 -1.3308
  187DOPC  H15B22983   5.721   1.697  12.490 -1.3700  0.5328  0.8314
  187DOPC  H15C22984   5.734   1.654  12.314  0.2016  0.5204 -0.8961
  187DOPC   C1122985   5.798   1.887  12.620 -0.6819 -0.0212  0.4451
  187DOPC  H11A22986   5.779   1.951  12.709  0.4649 -1.2234  1.6030
  187DOPC  H11B22987   5.738   1.796  12.641 -0.5837 -0.3115 -0.5022
  187DOPC     P22988   6.053   1.962  12.629 -0.3302  0.4796  0.1682
  187DOPC   O1322989   6.155   1.941  12.525  0.0363  0.4681  0.6084
  187DOPC   O1422990   6.091   1.959  12.775 -0.0382 -0.4342  0.5731
  187DOPC   O1222991   5.935   1.851  12.610 -0.6179 -0.3344 -0.5220
  187DOPC   O1122992   5.971   2.091  12.592 -0.3993  0.0415 -0.5893
  187DOPC    C122993   6.011   2.219  12.642  0.5225  0.0157  0.0853
  187DOPC    HA22994   6.003   2.293  12.560  0.9100 -0.5134 -0.4400
  187DOPC    HB22995   6.119   2.219  12.666  0.7562 -3.0431 -0.5834
  187DOPC    C222996   5.923   2.272  12.753  0.1614  0.2688 -0.5259
  187DOPC    HS22997   5.968   2.361  12.803  0.4253 -0.6479  0.9399
  187DOPC   O2122998   5.902   2.170  12.854  0.4646  0.5767 -0.9363
  187DOPC   C2122999   6.005   2.167  12.947 -0.1512 -0.0255 -0.4938
  187DOPC   O2223000   6.106   2.238  12.941 -0.1128  0.3479  0.1392
  187DOPC   C2223001   5.967   2.074  13.069  0.3005 -0.5135 -0.1942
  187DOPC   H2R23002   5.940   1.979  13.019  0.2561 -0.6871  0.1509
  187DOPC   H2S23003   5.868   2.116  13.097  0.5743  1.0674 -1.4708
  187DOPC    C323004   5.781   2.318  12.697 -0.5242  1.0710  0.2075
  187DOPC    HX23005   5.727   2.225  12.667  0.0107  0.8428 -0.0509
  187DOPC    HY23006   5.794   2.370  12.600 -2.9704 -1.2178 -1.5058
  187DOPC   O3123007   5.691   2.385  12.790  0.1102 -0.7971 -0.6749
  187DOPC   C3123008   5.714   2.515  12.798 -0.3985 -0.9617  0.1061
  187DOPC   O3223009   5.803   2.579  12.738  0.1011 -0.2526 -0.6527
  187DOPC   C3223010   5.616   2.567  12.907  0.3172 -0.0863 -1.1729
  187DOPC   H2X23011   5.512   2.557  12.868 -0.1432  1.6313 -0.4767
  187DOPC   H2Y23012   5.630   2.499  12.994  1.9467 -1.5207 -2.4963
  187DOPC   C2323013   6.075   2.075  13.178 -0.2133 -0.0346  0.6529
  187DOPC   H3R23014   6.175   2.051  13.136  0.5991 -0.3901  2.6580
  187DOPC   H3S23015   6.048   1.991  13.246  0.6348 -0.6848  0.1942
  187DOPC   C2423016   6.091   2.198  13.265  0.4478 -0.6064 -0.0820
  187DOPC   H4R23017   5.988   2.232  13.291  0.2476 -0.8689 -0.5124
  187DOPC   H4S23018   6.122   2.284  13.203  0.1085  0.9789  1.8523
  187DOPC   C2523019   6.188   2.174  13.385 -0.8054  0.7668 -0.5563
  187DOPC   H5R23020   6.293   2.155  13.353 -0.5363  0.2633  0.5701
  187DOPC   H5S23021   6.166   2.083  13.444 -0.2250  1.7099  1.1765
  187DOPC   C2623022   6.183   2.295  13.476 -0.1547 -0.8589 -0.5931
  187DOPC   H6R23023   6.080   2.310  13.515  0.2700  2.8643 -0.5641
  187DOPC   H6S23024   6.208   2.395  13.435 -0.3649 -1.0237 -1.1267
  187DOPC   C2723025   6.262   2.294  13.604  0.1247  0.3099 -0.5423
  187DOPC   H7R23026   6.237   2.387  13.660 -0.5873 -1.5925  2.4793
  187DOPC   H7S23027   6.367   2.291  13.566  0.2050  0.9631 -0.3956
  187DOPC   C2823028   6.256   2.175  13.698  0.2490  0.4103  0.1142
  187DOPC   H8R23029   6.327   2.179  13.783 -1.3282  1.6842  1.4742
  187DOPC   H8S23030   6.262   2.089  13.629 -0.0685 -0.2600  0.8989
  187DOPC   C2923031   6.119   2.167  13.750  0.7782  0.3123 -0.1425
  187DOPC   H9R23032   6.038   2.144  13.679  0.3012  2.7139 -0.4413
  187DOPC  C21023033   6.081   2.180  13.880  0.4392  0.2846  0.2872
  187DOPC  H10R23034   5.976   2.188  13.909  1.1060  1.7893  2.5552
  187DOPC  C21123035   6.159   2.215  14.004  0.2946 -0.5786  0.1435
  187DOPC  H11R23036   6.242   2.142  13.992  0.4756 -0.8103  2.3495
  187DOPC  H11S23037   6.105   2.194  14.098 -0.9622  2.1024  0.0998
  187DOPC  C21223038   6.228   2.352  14.002  0.1902  0.1865  0.7606
  187DOPC  H12R23039   6.153   2.431  14.022 -1.0807 -0.6847 -0.3801
  187DOPC  H12S23040   6.280   2.375  13.907 -2.9159  2.5496 -0.5735
  187DOPC  C21323041   6.335   2.363  14.104  0.0632 -0.5833 -0.5182
  187DOPC  H13R23042   6.418   2.321  14.044  0.0405 -2.1052  0.4497
  187DOPC  H13S23043   6.313   2.294  14.189  2.3551 -0.4971  0.1933
  187DOPC  C21423044   6.359   2.506  14.154  0.1175 -0.3365  0.2754
  187DOPC  H14R23045   6.255   2.542  14.175 -0.7281 -2.4822 -0.0062
  187DOPC  H14S23046   6.396   2.569  14.071 -0.9493  0.5447  0.4479
  187DOPC  C21523047   6.446   2.536  14.275  1.1181 -0.3174  0.0420
  187DOPC  H15R23048   6.549   2.500  14.252  1.1847 -2.2387  2.9021
  187DOPC  H15S23049   6.432   2.463  14.358  0.4637 -0.0285  0.1883
  187DOPC  C21623050   6.455   2.675  14.320  0.3677  0.0345 -0.0508
  187DOPC  H16R23051   6.362   2.725  14.356  1.9246  1.8865  1.6858
  187DOPC  H16S23052   6.485   2.739  14.234 -0.3400 -0.9260 -1.0360
  187DOPC  C21723053   6.560   2.684  14.438 -0.2357 -0.8053 -0.2050
  187DOPC  H17R23054   6.655   2.633  14.412  0.3960  0.1722  0.1637
  187DOPC  H17S23055   6.523   2.623  14.523  1.6698  0.4613  1.6033
  187DOPC  C21823056   6.583   2.832  14.475  0.0953  0.4005  0.2039
  187DOPC  H18R23057   6.640   2.837  14.570  1.4087 -1.2960 -0.4547
  187DOPC  H18S23058   6.481   2.876  14.473 -1.0619 -2.1458 -0.8002
  187DOPC  H18T23059   6.644   2.874  14.393  1.9384 -2.6511 -0.1614
  187DOPC   C3323060   5.640   2.714  12.955  0.2138  0.3119 -0.3098
  187DOPC   H3X23061   5.614   2.788  12.877  2.8321  1.8683  0.1771
  187DOPC   H3Y23062   5.743   2.745  12.984 -0.2430  0.4237  1.2961
  187DOPC   C3423063   5.547   2.749  13.069 -0.5433  0.0672 -0.9626
  187DOPC   H4X23064   5.448   2.709  13.038 -0.1762 -0.6956 -1.1795
  187DOPC   H4Y23065   5.548   2.860  13.074 -0.1213  0.0212  1.7001
  187DOPC   C3523066   5.591   2.701  13.208 -0.2984  0.0351 -0.0035
  187DOPC   H5X23067   5.699   2.718  13.226 -0.2306  1.2778 -1.3768
  187DOPC   H5Y23068   5.573   2.591  13.210  2.9393 -0.5946  2.7285
  187DOPC   C3623069   5.516   2.759  13.328  0.3961  0.1320  0.0515
  187DOPC   H6X23070   5.575   2.732  13.418  1.1755  0.1398 -0.4432
  187DOPC   H6Y23071   5.511   2.870  13.326 -2.2431  0.0934  0.2800
  187DOPC   C3723072   5.366   2.729  13.340  0.1256  0.6192 -0.2767
  187DOPC   H7X23073   5.317   2.795  13.265 -1.4913 -0.8825 -0.6244
  187DOPC   H7Y23074   5.338   2.624  13.317  2.1570  0.0632 -0.3418
  187DOPC   C3823075   5.321   2.763  13.487 -0.0156 -0.8125 -0.1259
  187DOPC   H8X23076   5.211   2.764  13.499  0.0448 -0.5779  0.4563
  187DOPC   H8Y23077   5.357   2.864  13.517  0.2743 -0.7848 -0.5632
  187DOPC   C3923078   5.382   2.652  13.573 -0.6343  0.3246  1.0793
  187DOPC   H9X23079   5.351   2.550  13.546  0.5409  0.3039 -0.3122
  187DOPC  C31023080   5.462   2.671  13.679  0.6557 -0.9722  0.3336
  187DOPC  H10X23081   5.483   2.581  13.737  0.2412 -1.2938 -0.0098
  187DOPC  C31123082   5.524   2.800  13.728  0.2555  0.2184 -0.3798
  187DOPC  H11X23083   5.513   2.886  13.658 -0.7983  0.3600 -0.0636
  187DOPC  H11Y23084   5.634   2.790  13.738 -0.0189 -4.6227  0.0148
  187DOPC  C31223085   5.464   2.845  13.869  0.2523  0.0741  0.2188
  187DOPC  H12X23086   5.486   2.765  13.943 -1.3426 -0.2466  0.3872
  187DOPC  H12Y23087   5.354   2.852  13.862 -0.0128 -2.9699 -0.1598
  187DOPC  C31323088   5.516   2.979  13.917 -0.0535  0.0753 -0.0870
  187DOPC  H13X23089   5.624   2.999  13.903 -0.1815  0.5823 -0.3730
  187DOPC  H13Y23090   5.460   3.059  13.864 -1.3854 -0.4252  0.5068
  187DOPC  C31423091   5.479   2.996  14.063  0.0419  0.0815 -0.7211
  187DOPC  H14X23092   5.483   3.107  14.072 -1.0301  0.1346 -0.7136
  187DOPC  H14Y23093   5.375   2.963  14.085  0.4676  0.4664  2.2989
  187DOPC  C31523094   5.581   2.924  14.159  0.5261 -0.0978 -0.0621
  187DOPC  H15X23095   5.682   2.940  14.116  1.0951  0.2880  1.3730
  187DOPC  H15Y23096   5.542   2.820  14.150 -0.0155  0.2334 -2.0246
  187DOPC  C31623097   5.577   2.975  14.308 -0.6790 -0.0989  0.6808
  187DOPC  H16X23098   5.657   2.948  14.379 -0.6686  1.4049  1.2809
  187DOPC  H16Y23099   5.579   3.086  14.298 -1.6915 -0.1641 -0.4668
  187DOPC  C31723100   5.448   2.935  14.380  0.2347 -0.4203 -0.2523
  187DOPC  H17X23101   5.358   2.952  14.317 -0.2900 -1.4654  0.1784
  187DOPC  H17Y23102   5.450   2.825  14.396  2.1173 -0.3610  0.0970
  187DOPC  C31823103   5.434   3.006  14.521  0.3897  0.0912 -0.2858
  187DOPC  H18X23104   5.335   2.987  14.566 -0.8972  1.6393 -2.2717
  187DOPC  H18Y23105   5.513   2.967  14.589  1.8360  0.2815 -1.8040
  187DOPC  H18Z23106   5.460   3.113  14.504  2.1356 -0.3719 -0.7244
  188DOPC     N23107   2.472   2.474  12.406  0.4114 -0.6077 -0.7963
  188DOPC   C1223108   2.418   2.565  12.519  0.1457  0.7123  0.1895
  188DOPC  H12A23109   2.330   2.612  12.476 -0.4267  0.9572  1.5747
  188DOPC  H12B23110   2.490   2.643  12.541 -0.3932  0.9422  1.2362
  188DOPC   C1323111   2.612   2.420  12.432  0.7601 -0.0490 -0.0992
  188DOPC  H13A23112   2.688   2.497  12.439  1.0594 -0.4910  2.8905
  188DOPC  H13B23113   2.620   2.365  12.524  0.4622 -1.2007 -0.7540
  188DOPC  H13C23114   2.633   2.348  12.354  0.7344  0.7454 -0.8579
  188DOPC   C1423115   2.465   2.554  12.283  0.1480 -0.0656  0.2226
  188DOPC  H14A23116   2.496   2.483  12.208 -1.2304 -0.6716  0.2052
  188DOPC  H14B23117   2.363   2.580  12.259  0.3220  3.7784  2.7932
  188DOPC  H14C23118   2.523   2.646  12.288  1.6481 -0.8238 -1.8822
  188DOPC   C1523119   2.389   2.357  12.384  0.2287 -0.4444 -0.3857
  188DOPC  H15A23120   2.378   2.288  12.467 -0.4817 -0.6972 -0.6762
  188DOPC  H15B23121   2.437   2.300  12.306  0.6317 -0.3882 -0.1791
  188DOPC  H15C23122   2.294   2.383  12.340  0.6559 -2.6105 -2.8762
  188DOPC   C1123123   2.385   2.506  12.655  0.6720 -0.4655  0.6883
  188DOPC  H11A23124   2.361   2.586  12.728 -1.6044 -0.7991  0.3621
  188DOPC  H11B23125   2.292   2.447  12.644  0.7071 -0.3753 -0.1481
  188DOPC     P23126   2.585   2.461  12.829  0.5029 -0.2009 -0.1740
  188DOPC   O1323127   2.663   2.586  12.804 -0.0642  0.3031  0.3453
  188DOPC   O1423128   2.664   2.346  12.855  0.0087  0.4492  0.4848
  188DOPC   O1223129   2.491   2.427  12.709  0.1513 -0.2302  0.1298
  188DOPC   O1123130   2.476   2.484  12.946 -0.0390 -0.0818 -0.2869
  188DOPC    C123131   2.401   2.378  13.003 -1.0320 -0.6585  0.3881
  188DOPC    HA23132   2.441   2.358  13.105 -1.7684 -0.2561  0.7655
  188DOPC    HB23133   2.414   2.285  12.943 -0.2805 -1.4432  1.7056
  188DOPC    C223134   2.252   2.428  13.009 -0.1639 -0.2647  0.5412
  188DOPC    HS23135   2.218   2.484  12.919 -1.4725  0.0997  1.2492
  188DOPC   O2123136   2.244   2.518  13.124  0.0278  0.0107 -0.5400
  188DOPC   C2123137   2.148   2.608  13.131 -0.3298  0.5683 -0.4770
  188DOPC   O2223138   2.056   2.621  13.050 -0.9912  0.3380 -0.6445
  188DOPC   C2223139   2.160   2.693  13.256  0.3989 -0.4573  0.2532
  188DOPC   H2R23140   2.182   2.621  13.337  1.2843 -0.8570 -0.3280
  188DOPC   H2S23141   2.054   2.726  13.268  0.0228 -1.1828 -0.8962
  188DOPC    C323142   2.163   2.304  13.029  0.3950  0.2113  0.3142
  188DOPC    HX23143   2.199   2.219  12.968  0.4918 -0.4059  1.2148
  188DOPC    HY23144   2.056   2.321  13.003  0.3340 -0.7782 -0.1119
  188DOPC   O3123145   2.163   2.248  13.163 -0.3010 -0.3086 -0.3563
  188DOPC   C3123146   2.061   2.245  13.234  0.6348 -0.5262 -0.4616
  188DOPC   O3223147   1.955   2.306  13.221  0.2603  0.0270  0.3086
  188DOPC   C3223148   2.087   2.150  13.352  0.0318 -0.0063  0.0868
  188DOPC   H2X23149   2.101   2.047  13.313 -0.7233  0.3195 -1.0924
  188DOPC   H2Y23150   2.178   2.188  13.403 -0.4431 -0.5193  1.3678
  188DOPC   C2323151   2.232   2.832  13.250  0.0005 -0.3663 -0.1547
  188DOPC   H3R23152   2.188   2.886  13.164  1.3184  1.8092  0.4445
  188DOPC   H3S23153   2.342   2.837  13.233  0.2587  0.0377  1.4245
  188DOPC   C2423154   2.215   2.912  13.381 -0.0871  0.7032 -0.7241
  188DOPC   H4R23155   2.124   2.873  13.431  1.2633 -2.3268 -0.4027
  188DOPC   H4S23156   2.206   3.021  13.361  0.2779  0.9024  0.1479
  188DOPC   C2523157   2.331   2.878  13.480  0.3519  0.0980  0.2320
  188DOPC   H5R23158   2.422   2.932  13.450 -0.2239  0.1281 -1.5811
  188DOPC   H5S23159   2.343   2.767  13.477 -5.2299 -0.8202  0.3998
  188DOPC   C2623160   2.295   2.902  13.622  0.0491 -0.4016 -0.2238
  188DOPC   H6R23161   2.269   3.010  13.636  0.7851  0.4565 -4.3385
  188DOPC   H6S23162   2.385   2.883  13.684 -0.4219 -1.9933  0.0244
  188DOPC   C2723163   2.186   2.814  13.685  0.0450 -0.3198 -1.0948
  188DOPC   H7R23164   2.210   2.706  13.672 -2.3920 -0.9934 -0.5120
  188DOPC   H7S23165   2.101   2.821  13.614  0.6745 -1.8687 -2.0523
  188DOPC   C2823166   2.141   2.842  13.827 -0.5211 -0.5257 -0.0658
  188DOPC   H8R23167   2.052   2.780  13.852  0.6303 -1.7879  1.1001
  188DOPC   H8S23168   2.101   2.946  13.829  1.8236  0.4599 -1.2590
  188DOPC   C2923169   2.253   2.829  13.921  0.0618 -0.0259 -0.2903
  188DOPC   H9R23170   2.292   2.727  13.913 -1.4617 -0.5816 -1.1101
  188DOPC  C21023171   2.305   2.924  14.002 -0.0879  0.2982  0.4120
  188DOPC  H10R23172   2.381   2.889  14.074  2.1229  0.6329 -1.6129
  188DOPC  C21123173   2.264   3.073  14.010 -0.2886  0.5044 -0.0653
  188DOPC  H11R23174   2.229   3.091  13.906 -0.8005 -0.7892 -0.1429
  188DOPC  H11S23175   2.359   3.127  14.030 -0.1359  0.1846  0.0940
  188DOPC  C21223176   2.156   3.116  14.108 -0.0321  0.3782  0.8029
  188DOPC  H12R23177   2.056   3.095  14.065  0.2424 -0.3487  0.4952
  188DOPC  H12S23178   2.165   3.226  14.122  3.3351  0.4492 -1.0138
  188DOPC  C21323179   2.170   3.054  14.244  0.4867 -0.6417  0.2281
  188DOPC  H13R23180   2.276   3.070  14.273  0.7236 -0.4610 -0.6924
  188DOPC  H13S23181   2.132   2.950  14.243 -1.6671  0.1042 -0.6720
  188DOPC  C21423182   2.083   3.133  14.347 -0.2211  0.4981 -0.0361
  188DOPC  H14R23183   1.979   3.142  14.311 -0.1993  2.3546  0.2673
  188DOPC  H14S23184   2.125   3.236  14.350  2.4842 -0.4962 -0.2913
  188DOPC  C21523185   2.087   3.071  14.486 -0.2620  0.1178 -0.2808
  188DOPC  H15R23186   2.187   3.093  14.530  0.0151  1.2018 -1.3810
  188DOPC  H15S23187   2.084   2.961  14.475  0.2890 -0.2404  2.4676
  188DOPC  C21623188   1.974   3.106  14.576 -0.5612  0.1178  0.1639
  188DOPC  H16R23189   1.885   3.056  14.533  0.2339 -0.0380 -1.3577
  188DOPC  H16S23190   1.951   3.215  14.582 -0.3498  0.5066 -3.6552
  188DOPC  C21723191   2.000   3.049  14.722  0.1231  0.2749 -0.3420
  188DOPC  H17R23192   1.917   3.077  14.791  1.3110  0.6878  0.9530
  188DOPC  H17S23193   2.086   3.113  14.748  0.3171  0.9661 -2.4732
  188DOPC  C21823194   2.021   2.900  14.724 -0.0503 -0.0268  0.2100
  188DOPC  H18R23195   2.027   2.854  14.825  1.2297 -1.7648 -0.6145
  188DOPC  H18S23196   2.113   2.866  14.672 -1.5720 -1.8832 -1.4334
  188DOPC  H18T23197   1.943   2.857  14.658 -0.5869  1.6597 -0.3112
  188DOPC   C3323198   1.978   2.152  13.457 -0.1470  0.0476  0.4144
  188DOPC   H3X23199   1.881   2.105  13.431  0.3362 -1.5568  1.3523
  188DOPC   H3Y23200   1.970   2.259  13.487  2.6863  0.0104  1.6470
  188DOPC   C3423201   2.040   2.087  13.585 -1.0368 -0.7121 -0.3639
  188DOPC   H4X23202   1.973   2.136  13.659 -2.8420 -0.1951 -2.2376
  188DOPC   H4Y23203   2.146   2.117  13.596 -1.1238  0.3685 -2.0325
  188DOPC   C3523204   2.024   1.940  13.610  0.2358  0.3489 -1.0341
  188DOPC   H5X23205   2.051   1.871  13.527  0.5228  1.2539 -1.7038
  188DOPC   H5Y23206   1.914   1.928  13.620  0.2122 -2.2475 -3.1562
  188DOPC   C3623207   2.102   1.890  13.734  0.5694  0.4020 -0.0157
  188DOPC   H6X23208   2.211   1.907  13.721  0.6410  0.6550  0.8280
  188DOPC   H6Y23209   2.066   1.942  13.826  0.3394  0.0773  0.0807
  188DOPC   C3723210   2.075   1.738  13.765  0.1036 -0.3794  0.5101
  188DOPC   H7X23211   2.056   1.682  13.671  4.5626  0.5600 -1.1728
  188DOPC   H7Y23212   2.171   1.699  13.805  0.1252 -0.0426  0.7944
  188DOPC   C3823213   1.954   1.711  13.862 -0.0768  0.4574  0.0314
  188DOPC   H8X23214   1.868   1.772  13.827 -0.6178 -0.6180 -0.5794
  188DOPC   H8Y23215   1.986   1.748  13.961  0.1479 -0.3534  0.2723
  188DOPC   C3923216   1.917   1.567  13.872  0.9808 -1.0781 -0.2136
  188DOPC   H9X23217   1.860   1.529  13.785 -1.8691  1.2234  0.4749
  188DOPC  C31023218   1.954   1.486  13.973  0.2266  0.1349 -0.0683
  188DOPC  H10X23219   1.903   1.389  13.981 -0.6415  0.5665 -0.1437
  188DOPC  C31123220   2.035   1.518  14.096  0.3640  0.1551 -0.4277
  188DOPC  H11X23221   2.070   1.623  14.102 -0.3217  0.3787 -0.3194
  188DOPC  H11Y23222   2.117   1.444  14.112  1.7429  1.6246 -0.5051
  188DOPC  C31223223   1.931   1.525  14.212  0.2823 -0.1681 -0.9011
  188DOPC  H12X23224   1.869   1.434  14.228 -2.4082  1.7875  0.6590
  188DOPC  H12Y23225   1.865   1.610  14.187  0.1371  1.5368  4.0766
  188DOPC  C31323226   2.000   1.544  14.348 -0.6827  0.1192  0.1795
  188DOPC  H13X23227   2.017   1.450  14.405 -0.7842  0.4785  0.7994
  188DOPC  H13Y23228   2.096   1.597  14.327  0.1239 -1.1580  0.5220
  188DOPC  C31423229   1.923   1.624  14.454  0.3351 -0.2365 -0.2986
  188DOPC  H14X23230   1.985   1.660  14.538 -1.7157 -1.1351  1.7044
  188DOPC  H14Y23231   1.884   1.712  14.398  0.5965 -0.2406 -0.4857
  188DOPC  C31523232   1.791   1.568  14.512 -0.0404 -0.3363  0.3884
  188DOPC  H15X23233   1.728   1.539  14.425 -1.5409  0.6687  1.1017
  188DOPC  H15Y23234   1.733   1.648  14.563  0.9433  2.1802 -2.1574
  188DOPC  C31623235   1.814   1.447  14.607 -0.2929  0.0671  0.8130
  188DOPC  H16X23236   1.841   1.358  14.546  0.0493  1.2210 -0.7826
  188DOPC  H16Y23237   1.898   1.468  14.677 -0.7776  0.9155  1.1458
  188DOPC  C31723238   1.690   1.403  14.677  0.5009 -0.5506  0.6158
  188DOPC  H17X23239   1.662   1.476  14.755 -0.3785 -0.4878  0.2473
  188DOPC  H17Y23240   1.611   1.395  14.599 -1.5263  1.1584  2.3867
  188DOPC  C31823241   1.697   1.261  14.739  0.0338  0.5496 -0.2016
  188DOPC  H18X23242   1.601   1.210  14.760  0.6359  0.2709  2.2670
  188DOPC  H18Y23243   1.754   1.187  14.679 -1.5497 -0.0045 -1.0732
  188DOPC  H18Z23244   1.750   1.271  14.837  0.5838  2.4590 -0.6411
  189DOPC     N23245   3.970   0.619  12.419  0.0411  0.2744  0.0610
  189DOPC   C1223246   3.832   0.671  12.370 -0.1202 -0.1541 -0.0379
  189DOPC  H12A23247   3.820   0.665  12.263  1.3076  2.5522 -0.4481
  189DOPC  H12B23248   3.834   0.776  12.398  3.1231 -0.0684 -0.2855
  189DOPC   C1323249   4.075   0.692  12.342 -0.5121 -0.0948  0.1414
  189DOPC  H13A23250   4.070   0.799  12.354 -0.8648  0.0542 -1.1398
  189DOPC  H13B23251   4.169   0.658  12.381 -0.6585 -2.3594 -1.3066
  189DOPC  H13C23252   4.073   0.666  12.237 -2.2785  3.2847 -0.8192
  189DOPC   C1423253   3.991   0.474  12.389 -0.1756  0.4069  0.0828
  189DOPC  H14A23254   4.087   0.435  12.419 -0.3112  0.5238  0.6824
  189DOPC  H14B23255   3.912   0.418  12.437 -0.1827  0.3858  0.0473
  189DOPC  H14C23256   3.981   0.459  12.282 -0.5942 -1.7527  0.3931
  189DOPC   C1523257   4.000   0.642  12.560 -0.0654  0.4626  0.0459
  189DOPC  H15A23258   3.917   0.616  12.624  0.8924 -1.5595  0.5661
  189DOPC  H15B23259   4.031   0.744  12.577 -1.8496  1.4380 -2.0594
  189DOPC  H15C23260   4.090   0.589  12.587 -0.4827 -0.3747 -0.1780
  189DOPC   C1123261   3.704   0.608  12.429 -0.8317  0.0774 -0.2275
  189DOPC  H11A23262   3.619   0.666  12.388  1.0732  2.4466 -1.0685
  189DOPC  H11B23263   3.697   0.508  12.380  2.9346  0.1057 -1.1068
  189DOPC     P23264   3.647   0.715  12.656  0.3030  0.0360 -0.1649
  189DOPC   O1323265   3.503   0.729  12.619 -0.6608  0.2639 -0.0694
  189DOPC   O1423266   3.734   0.838  12.648 -0.2030  0.1567 -0.3277
  189DOPC   O1223267   3.708   0.596  12.570 -0.1579 -0.1573  0.0573
  189DOPC   O1123268   3.666   0.653  12.801 -0.4560  0.5056 -0.1430
  189DOPC    C123269   3.784   0.588  12.844 -0.0303  0.1368 -0.1946
  189DOPC    HA23270   3.861   0.588  12.764 -1.5477 -1.4161 -1.7163
  189DOPC    HB23271   3.758   0.482  12.863  0.5546  0.1494  0.7554
  189DOPC    C223272   3.851   0.651  12.980  0.3943  1.1412 -0.1803
  189DOPC    HS23273   3.932   0.579  13.004 -0.0915  0.9584  0.9471
  189DOPC   O2123274   3.745   0.664  13.080 -0.1551  0.6766 -0.5524
  189DOPC   C2123275   3.725   0.561  13.153 -0.2601 -0.1471 -0.4123
  189DOPC   O2223276   3.778   0.451  13.136  0.4385  0.4325 -0.5509
  189DOPC   C2223277   3.619   0.585  13.263  0.0409  0.5457  0.3158
  189DOPC   H2R23278   3.592   0.485  13.304  1.4969  0.1852  0.4191
  189DOPC   H2S23279   3.527   0.620  13.211  0.2781 -0.1286 -0.5635
  189DOPC    C323280   3.912   0.789  12.962 -0.0021 -0.0516 -0.0103
  189DOPC    HX23281   3.825   0.853  12.936  0.0952  0.7401  1.4919
  189DOPC    HY23282   3.975   0.793  12.871  0.1898  2.0418  0.1747
  189DOPC   O3123283   3.971   0.849  13.082 -0.0102 -0.3479 -0.6208
  189DOPC   C3123284   4.105   0.850  13.097 -0.0637 -0.6995  0.9410
  189DOPC   O3223285   4.186   0.799  13.022  0.1140 -0.4159 -0.1328
  189DOPC   C3223286   4.140   0.905  13.231  0.1229 -0.7013  0.0983
  189DOPC   H2X23287   4.247   0.932  13.219 -0.5848  1.8153 -1.2103
  189DOPC   H2Y23288   4.084   0.997  13.256 -2.0671 -2.6617  3.2694
  189DOPC   C2323289   3.669   0.677  13.372 -0.6028  0.1994 -0.0803
  189DOPC   H3R23290   3.575   0.707  13.423 -0.3985  1.4361 -0.4077
  189DOPC   H3S23291   3.722   0.771  13.344 -2.4998  1.5689  0.6816
  189DOPC   C2423292   3.754   0.605  13.476  0.0512 -0.1827 -0.1392
  189DOPC   H4R23293   3.841   0.560  13.424 -0.7412 -0.9301 -0.8398
  189DOPC   H4S23294   3.686   0.532  13.525 -2.2931  2.0111  0.1049
  189DOPC   C2523295   3.789   0.698  13.596  0.0167  0.6994 -0.0423
  189DOPC   H5R23296   3.691   0.738  13.631 -0.2421 -0.1814  0.2468
  189DOPC   H5S23297   3.853   0.783  13.563  0.4549  0.4479  0.1531
  189DOPC   C2623298   3.856   0.620  13.714  0.5594  0.0880 -0.4224
  189DOPC   H6R23299   3.948   0.569  13.679  1.0816 -1.1284  2.4245
  189DOPC   H6S23300   3.797   0.528  13.736  0.9445 -0.2826 -0.9106
  189DOPC   C2723301   3.860   0.718  13.837 -0.3174 -0.0453 -0.0336
  189DOPC   H7R23302   3.758   0.740  13.874 -1.0304 -2.6590 -0.2331
  189DOPC   H7S23303   3.905   0.813  13.802  2.5230 -0.4521  2.0876
  189DOPC   C2823304   3.940   0.663  13.957 -0.3155  0.3570  0.2508
  189DOPC   H8R23305   3.955   0.749  14.025 -1.1175  0.5224  0.2332
  189DOPC   H8S23306   4.035   0.618  13.920 -0.0913  2.6746 -2.2747
  189DOPC   C2923307   3.860   0.549  14.017  0.6384 -0.2868  0.3799
  189DOPC   H9R23308   3.882   0.459  13.958  1.1764  1.1717 -1.7691
  189DOPC  C21023309   3.754   0.544  14.099  0.2641  0.2559 -0.1362
  189DOPC  H10R23310   3.707   0.447  14.123 -0.3262  0.8564  1.2562
  189DOPC  C21123311   3.717   0.667  14.180 -0.2958 -0.1852  0.2588
  189DOPC  H11R23312   3.610   0.691  14.168 -0.3591 -1.0029 -0.9751
  189DOPC  H11S23313   3.772   0.760  14.154 -0.5049 -0.7600 -2.5613
  189DOPC  C21223314   3.722   0.645  14.328  0.5316 -0.0607  0.9150
  189DOPC  H12R23315   3.825   0.644  14.369  0.6332  1.3845  0.7477
  189DOPC  H12S23316   3.676   0.546  14.352 -0.5540  0.3804  0.7299
  189DOPC  C21323317   3.629   0.741  14.405  0.1984 -0.0966  0.7160
  189DOPC  H13R23318   3.530   0.739  14.355  1.0153 -1.6859 -0.9533
  189DOPC  H13S23319   3.675   0.841  14.411  0.9418 -0.4497  1.0544
  189DOPC  C21423320   3.602   0.696  14.547 -0.3293  0.1457  0.7256
  189DOPC  H14R23321   3.698   0.659  14.591  0.9972  0.1453 -1.9796
  189DOPC  H14S23322   3.522   0.620  14.549  0.7242 -1.1160 -1.6803
  189DOPC  C21523323   3.538   0.808  14.640 -0.4579 -0.7726 -0.1532
  189DOPC  H15R23324   3.441   0.837  14.595  0.4748  1.9529 -0.5803
  189DOPC  H15S23325   3.604   0.897  14.648 -0.8614 -0.4777 -0.1117
  189DOPC  C21623326   3.512   0.743  14.781  0.3891  0.0725  0.1087
  189DOPC  H16R23327   3.612   0.718  14.822  0.9081 -1.8428 -2.0902
  189DOPC  H16S23328   3.445   0.657  14.760 -0.9023  1.4895 -2.0145
  189DOPC  C21723329   3.437   0.835  14.881 -0.8720  0.0684  0.2218
  189DOPC  H17R23330   3.334   0.850  14.840 -0.3650 -1.2441 -1.6581
  189DOPC  H17S23331   3.491   0.931  14.891  0.3519 -0.8181  3.2789
  189DOPC  C21823332   3.436   0.768  15.021 -0.1317  1.0525  0.1807
  189DOPC  H18R23333   3.535   0.725  15.048 -1.9495 -3.5357  0.5115
  189DOPC  H18S23334   3.372   0.677  15.025  0.6645  0.4890  0.4068
  189DOPC  H18T23335   3.396   0.842  15.094  0.5207  1.2025  0.3991
  189DOPC   C3323336   4.122   0.817  13.359  0.2241 -0.4022  0.0546
  189DOPC   H3X23337   4.174   0.719  13.352  0.1370 -0.7982  3.3612
  189DOPC   H3Y23338   4.013   0.803  13.377  0.1514 -0.6079 -0.5105
  189DOPC   C3423339   4.170   0.904  13.481 -0.3005 -0.3283  1.3178
  189DOPC   H4X23340   4.108   0.995  13.493  0.4418  0.6544 -1.5245
  189DOPC   H4Y23341   4.267   0.945  13.443 -0.8197 -1.6459 -1.6927
  189DOPC   C3523342   4.193   0.826  13.604 -0.4681 -0.1945 -0.2173
  189DOPC   H5X23343   4.272   0.749  13.592 -2.9287 -3.4333  2.2206
  189DOPC   H5Y23344   4.113   0.760  13.645  1.4993 -1.1582  2.3469
  189DOPC   C3623345   4.228   0.923  13.715  0.5495  0.1303  0.2080
  189DOPC   H6X23346   4.292   1.002  13.671 -0.8261  0.0205 -2.1808
  189DOPC   H6Y23347   4.147   0.977  13.768  0.1363 -0.3627  0.0866
  189DOPC   C3723348   4.298   0.845  13.828  0.2018 -0.1605  0.1790
  189DOPC   H7X23349   4.220   0.774  13.863  2.4008 -2.0697  1.5955
  189DOPC   H7Y23350   4.387   0.785  13.797 -1.1217 -1.5021 -1.1904
  189DOPC   C3823351   4.332   0.932  13.955 -0.0484 -0.0592 -0.5029
  189DOPC   H8X23352   4.339   0.867  14.045 -0.1757  1.4057  0.5994
  189DOPC   H8Y23353   4.246   1.000  13.967 -1.7947 -2.3734  1.1482
  189DOPC   C3923354   4.467   1.001  13.932 -0.3026  0.1821 -0.5257
  189DOPC   H9X23355   4.554   0.935  13.930 -1.6057 -1.6489  0.4061
  189DOPC  C31023356   4.476   1.135  13.902  0.1709 -0.1320  0.2161
  189DOPC  H10X23357   4.576   1.182  13.907  1.0078 -1.8630  0.2392
  189DOPC  C31123358   4.364   1.238  13.870  0.7756  0.9426  0.4241
  189DOPC  H11X23359   4.267   1.193  13.840  1.0486  0.0500  0.8634
  189DOPC  H11Y23360   4.393   1.309  13.789  2.0123  0.6396  0.5803
  189DOPC  C31223361   4.345   1.318  13.998 -0.1122  0.3631 -0.7700
  189DOPC  H12X23362   4.285   1.407  13.971  0.1628  0.6957 -0.2984
  189DOPC  H12Y23363   4.442   1.359  14.035 -1.1691  2.0334  0.2679
  189DOPC  C31323364   4.270   1.251  14.114  0.0617  0.9257 -0.0463
  189DOPC  H13X23365   4.174   1.207  14.079  0.0580 -1.1607  2.3275
  189DOPC  H13Y23366   4.326   1.163  14.151  2.2197  2.2499  0.0003
  189DOPC  C31423367   4.252   1.339  14.231 -0.1595  0.1671  0.7530
  189DOPC  H14X23368   4.355   1.368  14.260  0.9271 -1.7845 -0.9097
  189DOPC  H14Y23369   4.202   1.433  14.198 -0.6851 -0.7952 -1.3489
  189DOPC  C31523370   4.168   1.287  14.347  0.7975  0.7169  0.1935
  189DOPC  H15X23371   4.197   1.184  14.374  0.6392  0.0717 -1.9551
  189DOPC  H15Y23372   4.065   1.261  14.315  1.5947 -2.1699 -0.3015
  189DOPC  C31623373   4.166   1.378  14.469  0.0283 -0.5365  0.0749
  189DOPC  H16X23374   4.273   1.392  14.495  0.6823 -1.5881 -1.8340
  189DOPC  H16Y23375   4.123   1.478  14.449  1.1010 -0.2534 -0.9611
  189DOPC  C31723376   4.077   1.332  14.591 -0.8551 -0.1946 -0.1333
  189DOPC  H17X23377   4.119   1.236  14.627 -0.6051  0.1782  0.5935
  189DOPC  H17Y23378   4.097   1.394  14.681 -0.3576 -2.3859  1.3641
  189DOPC  C31823379   3.929   1.328  14.562 -0.1535 -0.0224  0.2435
  189DOPC  H18X23380   3.911   1.257  14.478 -0.2650 -0.0557  0.2940
  189DOPC  H18Y23381   3.870   1.290  14.649 -1.1356  1.4195  0.2499
  189DOPC  H18Z23382   3.894   1.430  14.535 -2.8363 -0.1167  2.7628
  190DOPC     N23383   2.929   1.424  12.339  0.3094  0.4523  0.0846
  190DOPC   C1223384   2.869   1.464  12.473 -0.1092 -0.2064 -0.3171
  190DOPC  H12A23385   2.833   1.374  12.521 -0.3780 -0.3296 -0.7465
  190DOPC  H12B23386   2.779   1.523  12.461 -1.3377 -1.8050  0.6667
  190DOPC   C1323387   2.821   1.372  12.255  0.5319 -0.7720 -0.0038
  190DOPC  H13A23388   2.754   1.449  12.220 -0.4752 -2.4925 -2.0307
  190DOPC  H13B23389   2.867   1.331  12.167 -0.1873 -1.4686 -0.0624
  190DOPC  H13C23390   2.761   1.295  12.302  1.3015 -0.1330  2.1894
  190DOPC   C1423391   3.031   1.315  12.356  0.3508 -0.3497  0.3226
  190DOPC  H14A23392   2.996   1.216  12.380  0.4645 -0.6100 -0.5726
  190DOPC  H14B23393   3.103   1.302  12.277 -1.4449  1.6893 -1.7907
  190DOPC  H14C23394   3.101   1.339  12.435 -0.0908 -1.7545  1.1738
  190DOPC   C1523395   2.989   1.538  12.268  0.0753 -0.1359  0.1314
  190DOPC  H15A23396   3.082   1.555  12.319  0.7994 -1.0035 -0.8469
  190DOPC  H15B23397   2.932   1.630  12.271 -0.3672 -0.3090 -1.6807
  190DOPC  H15C23398   3.022   1.504  12.171  3.3267  2.4635  0.1425
  190DOPC   C1123399   2.954   1.542  12.573 -0.2402  0.4156 -0.0033
  190DOPC  H11A23400   3.004   1.627  12.522  1.0177 -0.4912 -0.3277
  190DOPC  H11B23401   2.887   1.591  12.647 -1.6498  1.6400 -1.9821
  190DOPC     P23402   3.041   1.363  12.749 -0.0437 -0.1290  0.3766
  190DOPC   O1323403   3.163   1.276  12.765 -0.2184  0.0219 -0.7043
  190DOPC   O1423404   2.913   1.290  12.741  0.0951 -0.1814  0.0156
  190DOPC   O1223405   3.065   1.461  12.622 -0.1586  0.2407  0.2131
  190DOPC   O1123406   3.027   1.468  12.859  0.3754  0.2706 -0.4378
  190DOPC    C123407   3.152   1.487  12.934 -0.0256  0.2330  0.5687
  190DOPC    HA23408   3.149   1.591  12.973 -2.5289  1.4253 -2.3503
  190DOPC    HB23409   3.244   1.468  12.876 -1.0770 -0.7890 -0.8277
  190DOPC    C223410   3.155   1.394  13.064 -0.2509 -0.7374  0.8779
  190DOPC    HS23411   3.140   1.292  13.024  0.3586  0.2302 -2.0766
  190DOPC   O2123412   3.049   1.442  13.150 -0.1808  0.1606 -0.5165
  190DOPC   C2123413   3.030   1.363  13.249  0.6514  0.1533  0.3909
  190DOPC   O2223414   3.086   1.253  13.274  0.2079 -0.4543 -0.3643
  190DOPC   C2223415   2.916   1.423  13.341 -0.6170  0.7697  0.5403
  190DOPC   H2R23416   2.823   1.427  13.281 -0.9688  0.5698  1.0675
  190DOPC   H2S23417   2.955   1.525  13.362 -1.1060  1.0562  0.0705
  190DOPC    C323418   3.296   1.409  13.141 -0.7346 -1.0777 -0.3084
  190DOPC    HX23419   3.375   1.355  13.085  0.2492 -0.2230  0.2067
  190DOPC    HY23420   3.292   1.362  13.242  1.4379  0.1963  0.4454
  190DOPC   O3123421   3.336   1.551  13.154 -0.3081  0.3481  0.2487
  190DOPC   C3123422   3.467   1.569  13.180  0.1268 -0.1526  0.0642
  190DOPC   O3223423   3.551   1.483  13.184  0.3563  0.3372  0.5015
  190DOPC   C3223424   3.503   1.721  13.194 -0.7950 -0.0699 -0.1931
  190DOPC   H2X23425   3.572   1.752  13.113 -0.2113 -0.2231  0.2455
  190DOPC   H2Y23426   3.410   1.780  13.177  0.0776  0.9736 -1.6365
  190DOPC   C2323427   2.900   1.341  13.468  0.0098  0.0530 -0.0101
  190DOPC   H3R23428   2.884   1.235  13.440  0.3377  0.4222 -1.7336
  190DOPC   H3S23429   2.810   1.376  13.523 -0.9366 -1.5870 -0.4427
  190DOPC   C2423430   3.016   1.357  13.571  0.3943  0.6343  0.7367
  190DOPC   H4R23431   3.023   1.456  13.620 -1.6157  0.3970  1.6226
  190DOPC   H4S23432   3.117   1.333  13.531 -0.4566 -0.3917 -0.9394
  190DOPC   C2523433   2.996   1.245  13.681 -0.0454  0.4309 -0.0789
  190DOPC   H5R23434   3.062   1.157  13.665 -1.6105 -1.0408  1.1719
  190DOPC   H5S23435   2.891   1.211  13.673 -0.1550  1.0759 -1.7190
  190DOPC   C2623436   3.022   1.298  13.827  0.1098  0.2689  0.0842
  190DOPC   H6R23437   2.972   1.397  13.837  2.8508  1.8650 -1.0651
  190DOPC   H6S23438   3.131   1.318  13.820  0.1573 -0.2911 -1.1711
  190DOPC   C2723439   2.983   1.204  13.945 -0.5937 -0.4083  0.2079
  190DOPC   H7R23440   3.044   1.112  13.936  2.4980  1.6544 -1.5799
  190DOPC   H7S23441   2.879   1.165  13.936 -0.1879 -1.2340 -1.2177
  190DOPC   C2823442   3.017   1.261  14.084 -0.0140  0.4691 -0.0805
  190DOPC   H8R23443   3.128   1.266  14.086 -0.0488  1.3440  0.1868
  190DOPC   H8S23444   2.979   1.197  14.167 -1.5207  3.1928  1.4819
  190DOPC   C2923445   2.972   1.398  14.126 -0.1822  0.2055  0.1831
  190DOPC   H9R23446   3.055   1.470  14.123  0.1672 -0.1318  1.2532
  190DOPC  C21023447   2.841   1.435  14.139 -0.2309  0.6383 -0.2309
  190DOPC  H10R23448   2.821   1.542  14.149 -0.3067  0.5353  0.9246
  190DOPC  C21123449   2.714   1.351  14.123  0.5805 -0.7579 -0.2497
  190DOPC  H11R23450   2.732   1.248  14.086  0.6901 -0.4617 -1.0315
  190DOPC  H11S23451   2.649   1.402  14.049  1.9192  1.7361  0.1681
  190DOPC  C21223452   2.634   1.336  14.260  0.0889 -0.3428  0.0323
  190DOPC  H12R23453   2.647   1.430  14.318  0.6067  0.5028 -1.4151
  190DOPC  H12S23454   2.690   1.264  14.325 -0.0955  3.2559  4.7355
  190DOPC  C21323455   2.490   1.277  14.260  0.2909 -0.4447 -0.4724
  190DOPC  H13R23456   2.484   1.200  14.181 -2.9947  0.7867 -1.5930
  190DOPC  H13S23457   2.433   1.368  14.234  0.9564  0.6747  1.7328
  190DOPC  C21423458   2.435   1.209  14.385  0.4395  0.1161 -0.3993
  190DOPC  H14R23459   2.448   1.268  14.478 -0.8695 -1.7348  1.0434
  190DOPC  H14S23460   2.499   1.119  14.398 -3.1412 -2.5965 -0.0116
  190DOPC  C21523461   2.288   1.163  14.367 -0.2643 -0.0545  0.5178
  190DOPC  H15R23462   2.290   1.086  14.286 -1.5109 -0.8891  1.2437
  190DOPC  H15S23463   2.241   1.258  14.333 -1.1126  0.1379  2.1579
  190DOPC  C21623464   2.220   1.117  14.497  0.1222  0.4586 -0.4127
  190DOPC  H16R23465   2.245   1.198  14.569 -1.3268  0.4183  0.1685
  190DOPC  H16S23466   2.279   1.030  14.534  1.2037  0.7951 -1.3093
  190DOPC  C21723467   2.072   1.090  14.482  0.2978 -0.1407 -0.2714
  190DOPC  H17R23468   2.054   0.997  14.422 -2.5870 -0.2003  0.5272
  190DOPC  H17S23469   2.016   1.168  14.426 -0.4397 -1.1903 -1.0618
  190DOPC  C21823470   2.010   1.067  14.616 -0.0756  0.1446  0.1757
  190DOPC  H18R23471   1.905   1.043  14.589  0.0526 -0.4775  0.2160
  190DOPC  H18S23472   2.035   1.144  14.693  1.6154 -0.5813  0.3741
  190DOPC  H18T23473   2.058   0.977  14.659 -0.5099  0.3630  1.1652
  190DOPC   C3323474   3.567   1.757  13.335  0.2195  0.2349  0.0950
  190DOPC   H3X23475   3.596   1.864  13.327 -0.8987  0.6965  1.6453
  190DOPC   H3Y23476   3.658   1.694  13.347  1.5634  1.9895 -0.4856
  190DOPC   C3423477   3.463   1.743  13.446  0.1481 -0.0619  0.1245
  190DOPC   H4X23478   3.444   1.636  13.470  3.0897 -1.2373 -2.1381
  190DOPC   H4Y23479   3.373   1.787  13.399  0.9232 -0.2663 -1.6627
  190DOPC   C3523480   3.525   1.817  13.572 -0.2574 -0.1735  0.3041
  190DOPC   H5X23481   3.449   1.800  13.651 -0.1307  0.7770  0.6518
  190DOPC   H5Y23482   3.526   1.927  13.557 -2.1815 -0.0928  0.5550
  190DOPC   C3623483   3.662   1.755  13.623 -0.4755  0.0807  0.2286
  190DOPC   H6X23484   3.645   1.646  13.617 -0.0872  0.0774 -0.9450
  190DOPC   H6Y23485   3.740   1.782  13.548 -0.4051 -0.8957 -0.0566
  190DOPC   C3723486   3.690   1.804  13.760 -0.0727  0.1202 -0.4168
  190DOPC   H7X23487   3.670   1.913  13.760  0.3697  0.2036 -0.1802
  190DOPC   H7Y23488   3.623   1.755  13.833  0.3748  0.4601  0.2385
  190DOPC   C3823489   3.836   1.782  13.804 -0.2741 -0.4469  0.1763
  190DOPC   H8X23490   3.901   1.855  13.752  1.8794 -1.9842  0.5746
  190DOPC   H8Y23491   3.869   1.680  13.776  0.3503 -0.4879  1.0215
  190DOPC   C3923492   3.838   1.806  13.958 -0.0505  0.1286  0.4978
  190DOPC   H9X23493   3.781   1.734  14.019  0.7814 -0.5893  0.4510
  190DOPC  C31023494   3.872   1.924  14.023 -0.1624  0.8584 -0.2625
  190DOPC  H10X23495   3.845   1.924  14.130 -2.2342  2.3814 -0.7153
  190DOPC  C31123496   3.908   2.053  13.965  0.2769  0.4102 -0.0816
  190DOPC  H11X23497   3.825   2.125  13.983  1.2699  1.0854  2.1488
  190DOPC  H11Y23498   3.924   2.047  13.855 -2.3804  3.8899 -0.8644
  190DOPC  C31223499   4.035   2.128  14.018  0.3081  0.1057  0.6690
  190DOPC  H12X23500   4.055   2.222  13.961  1.2592  0.8092  2.1005
  190DOPC  H12Y23501   4.122   2.060  14.017 -0.2242 -0.6471  2.2172
  190DOPC  C31323502   4.021   2.161  14.162 -0.3178 -0.0093 -0.0289
  190DOPC  H13X23503   3.928   2.220  14.182  1.0554  1.8997  1.0964
  190DOPC  H13Y23504   4.019   2.063  14.213  0.8101 -0.0124  0.0216
  190DOPC  C31423505   4.136   2.244  14.229 -0.0554  0.4286 -0.8403
  190DOPC  H14X23506   4.154   2.334  14.167 -0.5719 -1.1163 -3.4055
  190DOPC  H14Y23507   4.114   2.286  14.329  0.4998  0.7209 -0.8352
  190DOPC  C31523508   4.267   2.163  14.255  0.4166 -0.1717  0.3141
  190DOPC  H15X23509   4.310   2.137  14.156  0.6344 -1.0306  0.6210
  190DOPC  H15Y23510   4.242   2.065  14.300  0.6391 -1.6117 -2.4885
  190DOPC  C31623511   4.373   2.241  14.332 -0.4574  0.4036 -0.5587
  190DOPC  H16X23512   4.473   2.214  14.294  0.2184  2.9681 -0.7908
  190DOPC  H16Y23513   4.361   2.351  14.318  2.7468  1.0713  1.0039
  190DOPC  C31723514   4.376   2.189  14.479  0.0816  0.6944 -0.4149
  190DOPC  H17X23515   4.289   2.228  14.536 -0.5741 -0.7064 -0.3904
  190DOPC  H17Y23516   4.376   2.078  14.483  0.9545  0.6857 -0.5037
  190DOPC  C31823517   4.502   2.220  14.559  0.2412  0.1258 -0.4581
  190DOPC  H18X23518   4.507   2.169  14.657  0.5211 -0.2947 -0.6918
  190DOPC  H18Y23519   4.598   2.205  14.506 -0.0988 -1.8135 -0.5720
  190DOPC  H18Z23520   4.497   2.329  14.580 -1.1069 -0.0206  0.0673
  191DOPC     N23521   6.041   0.660  12.575  0.0421  0.1315  0.7523
  191DOPC   C1223522   5.906   0.649  12.509  0.7326  0.5257 -0.4453
  191DOPC  H12A23523   5.916   0.689  12.410 -0.3229 -0.2461 -0.8766
  191DOPC  H12B23524   5.838   0.717  12.557 -0.8188 -1.3908  0.2179
  191DOPC   C1323525   6.017   0.605  12.715  0.1441 -0.4417 -0.0441
  191DOPC  H13A23526   5.975   0.506  12.703 -2.3390  0.6979 -1.6885
  191DOPC  H13B23527   6.103   0.611  12.779 -2.0582 -0.2139  3.1590
  191DOPC  H13C23528   5.951   0.669  12.773  0.4244  0.6506 -0.9034
  191DOPC   C1423529   6.103   0.795  12.586 -0.5422  0.0045  0.4228
  191DOPC  H14A23530   6.194   0.777  12.641 -0.1697 -1.9591 -0.7446
  191DOPC  H14B23531   6.137   0.840  12.494  0.5558 -0.0728  0.7841
  191DOPC  H14C23532   6.045   0.862  12.646 -0.3083  1.1864 -0.6364
  191DOPC   C1523533   6.141   0.569  12.513 -0.4536 -0.1166  0.0224
  191DOPC  H15A23534   6.104   0.468  12.525 -1.5588  0.2244 -0.3600
  191DOPC  H15B23535   6.237   0.579  12.561 -0.7420 -0.4638  0.6856
  191DOPC  H15C23536   6.139   0.588  12.406 -2.9302  2.4050  0.3760
  191DOPC   C1123537   5.838   0.509  12.492 -0.2939  0.4945  0.0302
  191DOPC  H11A23538   5.745   0.522  12.433 -2.1594 -1.4302  2.3418
  191DOPC  H11B23539   5.914   0.453  12.434  0.0852 -0.5170  1.4528
  191DOPC     P23540   5.668   0.468  12.685 -0.4076  0.2355 -0.3556
  191DOPC   O1323541   5.575   0.347  12.693 -0.4204  0.2747 -0.4493
  191DOPC   O1423542   5.605   0.591  12.635  0.4674 -0.4227  0.1689
  191DOPC   O1223543   5.805   0.436  12.614  0.1124  0.1010  0.2541
  191DOPC   O1123544   5.711   0.499  12.833 -0.1275  0.2844  0.6655
  191DOPC    C123545   5.824   0.431  12.905  0.4187  0.1430  0.1448
  191DOPC    HA23546   5.868   0.502  12.977 -0.8651  0.0524  1.0501
  191DOPC    HB23547   5.897   0.384  12.836 -0.6019 -0.4921 -0.5444
  191DOPC    C223548   5.769   0.312  12.988  0.2503 -0.1483  0.3322
  191DOPC    HS23549   5.688   0.263  12.930  0.0459 -0.3930  0.8116
  191DOPC   O2123550   5.729   0.369  13.116  0.5587 -0.7459  0.1120
  191DOPC   C2123551   5.613   0.334  13.148  1.1510  0.9995  0.4027
  191DOPC   O2223552   5.525   0.280  13.082  0.3204  0.1457  0.6178
  191DOPC   C2223553   5.598   0.347  13.301 -0.6277 -0.4684 -0.2398
  191DOPC   H2R23554   5.675   0.422  13.327 -0.0629 -0.7764 -0.9847
  191DOPC   H2S23555   5.615   0.251  13.354 -1.4698 -0.1590  0.6345
  191DOPC    C323556   5.880   0.208  13.015  0.2755 -0.4213  0.6886
  191DOPC    HX23557   5.957   0.254  13.079  0.9516  1.7538 -1.5431
  191DOPC    HY23558   5.935   0.181  12.922  0.0658  0.5941  0.2514
  191DOPC   O3123559   5.821   0.092  13.076  0.4569  0.4976 -0.1334
  191DOPC   C3123560   5.790  -0.005  12.996  1.1844  0.3228  0.2843
  191DOPC   O3223561   5.758   0.011  12.877  0.1801 -0.2908 -0.4229
  191DOPC   C3223562   5.786  -0.142  13.078 -0.1133  0.3452  0.1921
  191DOPC   H2X23563   5.840  -0.207  13.006  1.7383  1.2291  0.7026
  191DOPC   H2Y23564   5.845  -0.130  13.172 -1.2490  1.0931  0.8315
  191DOPC   C2323565   5.450   0.388  13.344 -0.7595  0.0318 -0.2138
  191DOPC   H3R23566   5.379   0.324  13.287  1.9678 -1.8122 -1.7896
  191DOPC   H3S23567   5.425   0.493  13.320  0.0735  0.3648  0.3642
  191DOPC   C2423568   5.435   0.363  13.501  0.2499 -0.3721 -0.1743
  191DOPC   H4R23569   5.462   0.257  13.519  0.8565 -0.5879 -2.0621
  191DOPC   H4S23570   5.325   0.374  13.514  0.2168 -1.9409  1.2628
  191DOPC   C2523571   5.514   0.468  13.581  0.5531 -0.7987  0.1651
  191DOPC   H5R23572   5.499   0.566  13.531 -1.2505 -1.1234  0.0038
  191DOPC   H5S23573   5.621   0.438  13.575  0.5693 -0.7624  0.2815
  191DOPC   C2623574   5.472   0.481  13.725  0.3638 -0.1888 -0.6186
  191DOPC   H6R23575   5.364   0.503  13.737  0.2901 -0.2919 -1.0762
  191DOPC   H6S23576   5.526   0.566  13.773  1.0729 -1.3514  0.6939
  191DOPC   C2723577   5.503   0.363  13.823  0.3262  0.3597 -0.0996
  191DOPC   H7R23578   5.609   0.331  13.823  0.4346  0.7117 -0.5684
  191DOPC   H7S23579   5.461   0.271  13.776  1.7354 -0.2007 -0.3249
  191DOPC   C2823580   5.443   0.374  13.966  0.1927  0.1211  0.2330
  191DOPC   H8R23581   5.434   0.272  14.009  0.0841  0.4703  1.0537
  191DOPC   H8S23582   5.338   0.408  13.955  0.0101 -0.5951 -0.2994
  191DOPC   C2923583   5.532   0.472  14.043 -0.2820 -0.1108  0.3651
  191DOPC   H9R23584   5.547   0.566  13.989 -1.6902 -1.3348 -2.3370
  191DOPC  C21023585   5.575   0.461  14.171  0.4730 -0.2651 -0.1863
  191DOPC  H10R23586   5.640   0.540  14.212 -0.5750  0.0650  0.9111
  191DOPC  C21123587   5.538   0.353  14.265 -0.5132  0.6454  0.6004
  191DOPC  H11R23588   5.435   0.311  14.253 -0.4654  0.6698  0.0530
  191DOPC  H11S23589   5.533   0.389  14.370 -0.3497  2.5849 -0.0290
  191DOPC  C21223590   5.622   0.232  14.254 -0.2268  0.0061  0.1927
  191DOPC  H12R23591   5.666   0.204  14.156  1.6844 -2.7963  1.7251
  191DOPC  H12S23592   5.554   0.147  14.277 -0.9337  0.6941  0.6942
  191DOPC  C21323593   5.716   0.212  14.374 -0.5283  0.2115 -0.8216
  191DOPC  H13R23594   5.752   0.107  14.373 -0.9990  0.0279  0.2763
  191DOPC  H13S23595   5.668   0.211  14.474 -0.3489  0.7666 -0.7267
  191DOPC  C21423596   5.842   0.289  14.362  0.4549 -0.0205  0.3814
  191DOPC  H14R23597   5.825   0.396  14.389  0.4724  0.2520 -0.6712
  191DOPC  H14S23598   5.881   0.291  14.258  2.1583 -2.4344  0.9073
  191DOPC  C21523599   5.952   0.234  14.450 -0.2466 -0.0254  0.1987
  191DOPC  H15R23600   5.983   0.139  14.400 -1.5213  1.1173 -3.0686
  191DOPC  H15S23601   5.913   0.226  14.554 -3.6097  2.3353 -0.7029
  191DOPC  C21623602   6.082   0.323  14.438 -0.3713  0.4238  0.2549
  191DOPC  H16R23603   6.062   0.424  14.481  0.3102  0.2673  0.9535
  191DOPC  H16S23604   6.093   0.352  14.331 -1.0128 -0.0899  0.0433
  191DOPC  C21723605   6.217   0.264  14.490 -0.5889  0.4524  0.4352
  191DOPC  H17R23606   6.302   0.336  14.490  2.0053 -2.4264  1.0757
  191DOPC  H17S23607   6.252   0.187  14.418 -0.7409  2.6906 -2.2255
  191DOPC  C21823608   6.207   0.220  14.636 -0.2041  0.0342  0.3547
  191DOPC  H18R23609   6.163   0.295  14.705 -2.1684 -0.4278 -0.3339
  191DOPC  H18S23610   6.306   0.189  14.677  0.7740  0.6461 -1.4263
  191DOPC  H18T23611   6.141   0.130  14.636  2.5036 -2.1184  1.3910
  191DOPC   C3323612   5.643  -0.196  13.094 -0.3355  0.5810 -0.1885
  191DOPC   H3X23613   5.601  -0.225  12.995 -1.2925 -0.0450  0.3789
  191DOPC   H3Y23614   5.572  -0.121  13.137 -0.2608  1.1374 -0.9946
  191DOPC   C3423615   5.644  -0.321  13.187 -0.3977 -0.2630 -0.0856
  191DOPC   H4X23616   5.695  -0.289  13.280 -0.1620  2.0189 -0.9319
  191DOPC   H4Y23617   5.696  -0.407  13.139 -0.8757 -0.1782 -0.7686
  191DOPC   C3523618   5.504  -0.373  13.219  0.7642  0.4674 -0.7028
  191DOPC   H5X23619   5.455  -0.394  13.122  0.2466  0.4771 -0.4484
  191DOPC   H5Y23620   5.438  -0.296  13.265  0.2452 -0.7396  0.6330
  191DOPC   C3623621   5.506  -0.512  13.300 -0.1330 -0.1122  0.3011
  191DOPC   H6X23622   5.565  -0.582  13.237  1.7092 -0.9684  2.8098
  191DOPC   H6Y23623   5.562  -0.492  13.394 -1.9023  2.6000  0.8986
  191DOPC   C3723624   5.370  -0.553  13.349 -0.3380 -0.1737  0.5245
  191DOPC   H7X23625   5.347  -0.481  13.429  1.0121  0.6777  0.1730
  191DOPC   H7Y23626   5.295  -0.538  13.269  1.5833  0.3930 -1.2698
  191DOPC   C3823627   5.352  -0.702  13.399  0.1038  0.1643  0.1963
  191DOPC   H8X23628   5.329  -0.751  13.303  0.1709  2.5130 -1.0937
  191DOPC   H8Y23629   5.263  -0.711  13.466 -1.5072  1.1095 -1.7050
  191DOPC   C3923630   5.475  -0.765  13.463  0.2553 -0.6450 -0.1733
  191DOPC   H9X23631   5.537  -0.821  13.391 -0.9141 -0.0635 -1.6970
  191DOPC  C31023632   5.523  -0.763  13.590 -0.3637  0.1030 -0.0581
  191DOPC  H10X23633   5.617  -0.816  13.610  0.8803  1.5907 -1.6705
  191DOPC  C31123634   5.452  -0.701  13.712 -0.1878 -0.5438 -0.3458
  191DOPC  H11X23635   5.482  -0.755  13.805  0.4512  1.7481  0.8594
  191DOPC  H11Y23636   5.343  -0.723  13.707 -0.1643 -1.1802  1.2675
  191DOPC  C31223637   5.462  -0.549  13.728  0.2051  0.4972 -0.1978
  191DOPC  H12X23638   5.437  -0.502  13.631 -1.8402 -1.3534 -0.6731
  191DOPC  H12Y23639   5.565  -0.515  13.749  0.0141  3.1018 -2.7911
  191DOPC  C31323640   5.368  -0.504  13.842  0.4783  0.2750  1.1946
  191DOPC  H13X23641   5.265  -0.530  13.809  0.1591  1.8972  0.8160
  191DOPC  H13Y23642   5.380  -0.564  13.935 -1.5982  0.9479  1.9543
  191DOPC  C31423643   5.381  -0.362  13.897  0.4487  0.2372  0.7345
  191DOPC  H14X23644   5.485  -0.349  13.932  0.9351 -0.5643 -0.3387
  191DOPC  H14Y23645   5.354  -0.288  13.819  2.0784 -2.4776 -2.6973
  191DOPC  C31523646   5.294  -0.340  14.025 -0.0546  0.2102  0.2098
  191DOPC  H15X23647   5.319  -0.421  14.097 -2.1193 -0.4555  0.2407
  191DOPC  H15Y23648   5.190  -0.370  14.001  0.1171 -1.3598  1.3088
  191DOPC  C31623649   5.304  -0.201  14.090 -0.0162 -0.1402 -0.5511
  191DOPC  H16X23650   5.262  -0.196  14.193  0.2323  0.8120 -0.4814
  191DOPC  H16Y23651   5.408  -0.165  14.106 -0.1640 -0.1575  0.5347
  191DOPC  C31723652   5.233  -0.083  14.016 -0.2798  0.5672 -0.2464
  191DOPC  H17X23653   5.271  -0.068  13.913  2.1099 -1.2704  0.2814
  191DOPC  H17Y23654   5.123  -0.101  14.009  0.1907 -2.6423 -0.7817
  191DOPC  C31823655   5.250   0.049  14.080  1.0774 -0.5211 -0.0947
  191DOPC  H18X23656   5.214   0.042  14.185  0.5990  1.6508 -0.0676
  191DOPC  H18Y23657   5.355   0.085  14.075  0.7106  0.6763  0.4595
  191DOPC  H18Z23658   5.184   0.126  14.034 -0.9476 -1.8880  0.4441
  192DOPC     N23659   0.291   5.697  11.930  0.1788 -0.1955  0.3381
  192DOPC   C1223660   0.172   5.658  12.019 -0.3722 -1.1969  0.3127
  192DOPC  H12A23661   0.163   5.550  12.015 -1.1865 -1.1721  1.1486
  192DOPC  H12B23662   0.081   5.697  11.976  1.2762  1.1163 -1.3494
  192DOPC   C1323663   0.412   5.645  11.991 -0.2447 -0.2895  0.2918
  192DOPC  H13A23664   0.419   5.676  12.094  2.4781  1.2090 -0.2287
  192DOPC  H13B23665   0.421   5.538  11.985 -2.1618 -0.4130 -4.1199
  192DOPC  H13C23666   0.498   5.686  11.939 -2.0249 -0.0576 -2.6470
  192DOPC   C1423667   0.290   5.843  11.933 -0.3295 -0.2293  0.7339
  192DOPC  H14A23668   0.321   5.878  12.030  0.2670  0.8992  0.1519
  192DOPC  H14B23669   0.357   5.876  11.855  1.6680 -1.5211  1.8071
  192DOPC  H14C23670   0.196   5.890  11.909 -1.7923 -3.4487 -0.4240
  192DOPC   C1523671   0.280   5.646  11.786 -0.3786 -0.8722 -0.5285
  192DOPC  H15A23672   0.201   5.703  11.739 -1.3626 -1.7046  0.0665
  192DOPC  H15B23673   0.260   5.541  11.773  1.3215 -1.1212 -1.4773
  192DOPC  H15C23674   0.369   5.662  11.727 -0.1279 -0.7159 -0.1056
  192DOPC   C1123675   0.178   5.695  12.170 -0.0860  0.8142 -0.2167
  192DOPC  H11A23676   0.266   5.649  12.220 -1.8176  0.7547  2.9859
  192DOPC  H11B23677   0.191   5.804  12.189  0.4550  0.7525 -0.2227
  192DOPC     P23678  -0.060   5.750  12.239 -0.0797  0.2513 -0.2400
  192DOPC   O1323679  -0.186   5.686  12.288  0.6556  0.2390 -0.0218
  192DOPC   O1423680  -0.072   5.851  12.129  0.3360  0.0899  0.1861
  192DOPC   O1223681   0.052   5.642  12.212  0.2994  0.1942 -0.2383
  192DOPC   O1123682  -0.010   5.830  12.367 -0.3152  1.0421 -0.1902
  192DOPC    C123683   0.070   5.778  12.472  0.4196  0.2642 -0.6495
  192DOPC    HA23684   0.158   5.844  12.488  2.8454 -2.4777 -1.8496
  192DOPC    HB23685   0.119   5.682  12.448 -1.7882 -0.8657 -0.8925
  192DOPC    C223686  -0.011   5.774  12.604  0.6459  0.2149 -0.6577
  192DOPC    HS23687  -0.098   5.712  12.571  1.5818 -0.4476 -1.9942
  192DOPC   O2123688  -0.042   5.906  12.648 -0.9394  0.3862 -0.2046
  192DOPC   C2123689  -0.152   5.921  12.714  0.4717 -0.3309  0.5025
  192DOPC   O2223690  -0.243   5.840  12.723  0.4601  0.0991 -0.0890
  192DOPC   C2223691  -0.150   6.060  12.773  0.8420  0.2348 -0.2643
  192DOPC   H2R23692  -0.107   6.134  12.702 -1.0954  1.8068  0.1103
  192DOPC   H2S23693  -0.094   6.060  12.869 -1.1860  2.0462  0.9987
  192DOPC    C323694   0.078   5.693  12.705  0.1087 -0.6218  0.6993
  192DOPC    HX23695   0.180   5.738  12.709  0.1213 -0.3971 -1.1072
  192DOPC    HY23696   0.094   5.589  12.667  0.3930 -0.3867  0.1689
  192DOPC   O3123697   0.033   5.695  12.836  0.0132 -0.4424  0.0475
  192DOPC   C3123698  -0.077   5.614  12.862  0.3180 -0.0900  0.2003
  192DOPC   O3223699  -0.138   5.553  12.776 -0.0185 -0.1034 -0.0832
  192DOPC   C3223700  -0.122   5.623  13.006  0.6301  0.1033  0.1352
  192DOPC   H2X23701  -0.214   5.561  13.012  0.2826  0.3280 -2.0683
  192DOPC   H2Y23702  -0.051   5.573  13.075  1.2358  0.5897 -0.1191
  192DOPC   C2323703  -0.283   6.130  12.823 -0.0774 -0.2823 -0.6995
  192DOPC   H3R23704  -0.314   6.083  12.919 -2.5523  2.1736 -0.1645
  192DOPC   H3S23705  -0.362   6.122  12.745 -0.4292 -0.2704 -0.3492
  192DOPC   C2423706  -0.260   6.281  12.858  0.0967 -0.2599  0.9579
  192DOPC   H4R23707  -0.350   6.315  12.914 -0.4165  0.1320 -0.0785
  192DOPC   H4S23708  -0.240   6.333  12.761  3.1959 -0.9984  1.0991
  192DOPC   C2523709  -0.136   6.300  12.939 -0.0593  0.0090 -0.3768
  192DOPC   H5R23710  -0.047   6.268  12.880  1.0011  1.3689  0.4254
  192DOPC   H5S23711  -0.153   6.224  13.019 -0.0950 -0.0183 -0.4109
  192DOPC   C2623712  -0.101   6.439  12.997  0.0670 -0.1748  0.1136
  192DOPC   H6R23713  -0.034   6.427  13.085 -1.4494  0.3322  1.3754
  192DOPC   H6S23714  -0.192   6.492  13.032 -0.1574 -1.2798  1.2886
  192DOPC   C2723715  -0.021   6.520  12.892  0.2507 -0.1367 -0.5173
  192DOPC   H7R23716  -0.087   6.544  12.805 -0.4305  1.4760  0.3829
  192DOPC   H7S23717   0.057   6.451  12.855  0.7066  1.1461 -2.0719
  192DOPC   C2823718   0.041   6.648  12.947  0.0201 -0.6676  0.2390
  192DOPC   H8R23719   0.129   6.675  12.886 -0.2311 -0.1510  0.0906
  192DOPC   H8S23720   0.089   6.624  13.044 -0.9462 -4.3855 -0.0638
  192DOPC   C2923721  -0.047   6.765  12.951 -0.0259 -0.6406  0.2136
  192DOPC   H9R23722  -0.070   6.806  12.852 -2.1878 -3.5953 -0.6464
  192DOPC  C21023723  -0.095   6.833  13.062  0.1720  0.3337 -0.9457
  192DOPC  H10R23724  -0.180   6.902  13.053 -0.6526 -0.6845 -1.1281
  192DOPC  C21123725  -0.056   6.811  13.205 -0.1556  0.4063 -0.4859
  192DOPC  H11R23726  -0.026   6.705  13.219  2.1920  0.7138 -2.4508
  192DOPC  H11S23727  -0.142   6.831  13.272  0.8733  0.0862  0.9781
  192DOPC  C21223728   0.067   6.896  13.239 -0.3556 -0.1846 -0.0475
  192DOPC  H12R23729   0.038   7.001  13.217 -3.1216 -0.5030  1.6365
  192DOPC  H12S23730   0.147   6.861  13.171 -0.6326 -0.4467 -0.2452
  192DOPC  C21323731   0.106   6.862  13.377 -0.0594  0.1336  0.3294
  192DOPC  H13R23732   0.149   6.760  13.363  2.0686  0.9311  0.6496
  192DOPC  H13S23733   0.027   6.852  13.454  0.7694  0.4364  1.2550
  192DOPC  C21423734   0.218   6.942  13.437 -0.2446 -0.4101  0.0169
  192DOPC  H14R23735   0.175   7.045  13.442  2.0899  0.8852 -3.1274
  192DOPC  H14S23736   0.297   6.954  13.360  0.1054  0.8284  0.5305
  192DOPC  C21523737   0.265   6.901  13.577 -0.7171 -0.0729  0.3935
  192DOPC  H15R23738   0.332   6.813  13.570 -0.4028  0.2159 -0.2866
  192DOPC  H15S23739   0.180   6.869  13.641 -1.5148 -1.4794 -1.3013
  192DOPC  C21623740   0.347   7.008  13.649 -0.0474 -0.3516 -0.0493
  192DOPC  H16R23741   0.287   7.100  13.663  0.0779 -0.0718 -1.2623
  192DOPC  H16S23742   0.436   7.041  13.591  1.7845  0.0470  2.8218
  192DOPC  C21723743   0.407   6.970  13.789  0.1907  0.4248  0.0766
  192DOPC  H17R23744   0.458   7.060  13.829 -0.2080  1.2669 -1.2565
  192DOPC  H17S23745   0.486   6.891  13.786 -0.2212  0.0434 -0.9631
  192DOPC  C21823746   0.304   6.912  13.882  0.7795 -0.6044 -0.1339
  192DOPC  H18R23747   0.291   6.802  13.873  0.7192 -0.5886 -0.2308
  192DOPC  H18S23748   0.204   6.956  13.860  0.0143 -2.3215 -0.2653
  192DOPC  H18T23749   0.346   6.943  13.981  0.6744  2.1139 -0.8712
  192DOPC   C3323750  -0.166   5.760  13.059  0.3894  0.3136  0.2890
  192DOPC   H3X23751  -0.243   5.796  12.987  1.2081  0.2993 -0.6071
  192DOPC   H3Y23752  -0.083   5.834  13.062  2.2041 -1.6003 -0.1845
  192DOPC   C3423753  -0.232   5.756  13.204  0.3618 -0.1350 -0.1586
  192DOPC   H4X23754  -0.192   5.670  13.261  0.7783  1.1190  1.5509
  192DOPC   H4Y23755  -0.339   5.733  13.187  0.6191 -1.2400 -0.3311
  192DOPC   C3523756  -0.221   5.875  13.300  0.8219  0.4816  0.4832
  192DOPC   H5X23757  -0.119   5.919  13.303  1.2008 -0.1554 -1.5425
  192DOPC   H5Y23758  -0.231   5.848  13.408  0.4428  0.0617  0.3443
  192DOPC   C3623759  -0.308   5.995  13.265  0.6283  0.2772 -0.0091
  192DOPC   H6X23760  -0.279   6.031  13.164 -0.0414 -1.8546 -1.0070
  192DOPC   H6Y23761  -0.413   5.968  13.245  0.4132  0.2095  1.1576
  192DOPC   C3723762  -0.311   6.104  13.375  0.1529  0.3761  0.7699
  192DOPC   H7X23763  -0.327   6.062  13.477 -1.3475  0.4303  0.5888
  192DOPC   H7Y23764  -0.218   6.162  13.364 -0.1155  0.3884 -2.1095
  192DOPC   C3823765  -0.431   6.198  13.370  0.6037  0.5269 -0.1304
  192DOPC   H8X23766  -0.436   6.244  13.471  2.2551 -1.3560  0.8774
  192DOPC   H8Y23767  -0.525   6.141  13.356  1.0350 -0.0861 -0.5718
  192DOPC   C3923768  -0.428   6.300  13.262 -0.6699  0.2643 -0.2822
  192DOPC   H9X23769  -0.479   6.276  13.168  0.4960  3.1070 -1.7353
  192DOPC  C31023770  -0.353   6.414  13.268  0.1286 -0.0481 -0.0251
  192DOPC  H10X23771  -0.338   6.471  13.175  2.8913  1.7060  1.3658
  192DOPC  C31123772  -0.256   6.456  13.380 -0.1307  0.4826  0.3829
  192DOPC  H11X23773  -0.159   6.473  13.329 -0.4194  0.2177 -0.2728
  192DOPC  H11Y23774  -0.238   6.377  13.456 -0.6890  0.4362  0.4701
  192DOPC  C31223775  -0.311   6.580  13.450  0.1394 -0.4336 -0.2527
  192DOPC  H12X23776  -0.395   6.544  13.513 -0.1665 -0.7074 -0.8205
  192DOPC  H12Y23777  -0.352   6.661  13.386 -0.5067  1.0228  1.8667
  192DOPC  C31323778  -0.205   6.636  13.551  0.1377 -0.3851  0.4439
  192DOPC  H13X23779  -0.117   6.664  13.489  2.2344 -0.2337  3.2870
  192DOPC  H13Y23780  -0.247   6.738  13.570 -0.2389 -0.2932 -0.7601
  192DOPC  C31423781  -0.168   6.549  13.671  0.1411  0.1537  0.6679
  192DOPC  H14X23782  -0.254   6.521  13.734  0.4538 -2.5334  0.0302
  192DOPC  H14Y23783  -0.125   6.456  13.628  1.5142  1.4636 -0.9945
  192DOPC  C31523784  -0.059   6.621  13.746 -0.0036  0.5830  0.0938
  192DOPC  H15X23785  -0.105   6.707  13.799 -2.5420 -1.4240  1.3406
  192DOPC  H15Y23786   0.022   6.644  13.673 -0.4182  1.3982 -0.1212
  192DOPC  C31623787   0.008   6.525  13.842 -0.8025 -0.9523 -0.7031
  192DOPC  H16X23788  -0.045   6.518  13.939  0.4377 -1.0786 -0.0122
  192DOPC  H16Y23789   0.025   6.421  13.805  0.1115 -1.5106  1.1645
  192DOPC  C31723790   0.145   6.583  13.887 -0.1783  0.5582  0.2634
  192DOPC  H17X23791   0.208   6.594  13.795 -0.3634  1.9874  0.2908
  192DOPC  H17Y23792   0.127   6.681  13.936 -0.8675  0.1212  0.8929
  192DOPC  C31823793   0.208   6.482  13.987 -0.0480 -0.6143 -0.3516
  192DOPC  H18X23794   0.292   6.527  14.045  1.2411 -0.0781 -2.5029
  192DOPC  H18Y23795   0.130   6.430  14.047  0.9357 -0.3305  1.2238
  192DOPC  H18Z23796   0.253   6.398  13.930 -0.3114 -0.3432 -0.9664
  193DOPC     N23797   7.532   3.799  12.341  0.4848  0.0301  0.3743
  193DOPC   C1223798   7.488   3.750  12.479  0.7830  0.2583  0.0986
  193DOPC  H12A23799   7.395   3.801  12.500  1.1763  1.1098 -0.1876
  193DOPC  H12B23800   7.553   3.791  12.555  0.2671 -0.3309  0.8771
  193DOPC   C1323801   7.555   3.949  12.354  0.5229  0.3666 -0.2203
  193DOPC  H13A23802   7.463   4.006  12.356 -0.0839 -0.5844 -0.1941
  193DOPC  H13B23803   7.608   3.975  12.444  0.5077  0.4854 -0.2452
  193DOPC  H13C23804   7.606   3.983  12.266  0.6975 -1.5244 -0.8894
  193DOPC   C1423805   7.422   3.763  12.241  0.3197 -0.0653  0.1188
  193DOPC  H14A23806   7.391   3.661  12.250 -0.9398  0.3963  1.3962
  193DOPC  H14B23807   7.337   3.828  12.255  1.2994  1.1154  0.8863
  193DOPC  H14C23808   7.452   3.782  12.139 -1.1624  0.4648 -0.2437
  193DOPC   C1523809   7.661   3.730  12.299 -0.1823 -0.3504 -0.2153
  193DOPC  H15A23810   7.654   3.623  12.303  2.2187 -0.5251  3.1009
  193DOPC  H15B23811   7.732   3.749  12.378  1.7098 -0.5202 -1.8204
  193DOPC  H15C23812   7.703   3.775  12.210 -0.2871  2.8689  1.2049
  193DOPC   C1123813   7.473   3.603  12.501 -0.1195 -0.4992 -0.0294
  193DOPC  H11A23814   7.564   3.542  12.482 -0.4595 -1.2261  0.5862
  193DOPC  H11B23815   7.470   3.594  12.612  2.3651 -0.8133  0.0834
  193DOPC     P23816   7.364   3.392  12.396  0.3390 -0.1911  0.3655
  193DOPC   O1323817   7.443   3.390  12.273 -0.4065  0.1543 -0.3010
  193DOPC   O1423818   7.228   3.335  12.382  0.2619 -0.1290  0.3167
  193DOPC   O1223819   7.354   3.542  12.443 -0.4356 -0.4224  0.4435
  193DOPC   O1123820   7.449   3.319  12.511  0.7144  0.6237  0.2416
  193DOPC    C123821   7.443   3.173  12.534  0.2922 -0.2896  0.1798
  193DOPC    HA23822   7.390   3.115  12.455  1.0709  0.3622 -0.8445
  193DOPC    HB23823   7.385   3.148  12.626  0.5901 -1.0032  0.1862
  193DOPC    C223824   7.593   3.135  12.562  0.4590 -0.1704 -0.1112
  193DOPC    HS23825   7.608   3.035  12.515 -1.2557  0.0163 -1.1641
  193DOPC   O2123826   7.615   3.142  12.698  0.7548  0.0765 -0.4709
  193DOPC   C2123827   7.688   3.046  12.753  0.1227 -0.3791  0.1220
  193DOPC   O2223828   7.734   2.953  12.693 -0.3258 -0.2129 -0.0789
  193DOPC   C2223829   7.696   3.081  12.901  0.2108  0.3034  0.1096
  193DOPC   H2R23830   7.603   3.130  12.936 -0.5053 -0.6273 -0.4131
  193DOPC   H2S23831   7.781   3.150  12.915  2.4773 -2.2273 -0.3243
  193DOPC    C323832   7.689   3.236  12.485  0.5435  0.5014 -0.8555
  193DOPC    HX23833   7.679   3.342  12.520 -0.5318  0.4784 -1.0669
  193DOPC    HY23834   7.656   3.249  12.380  0.9058  0.7199 -0.9457
  193DOPC   O3123835   7.823   3.192  12.492  0.0440  0.1340 -0.7325
  193DOPC   C3123836   7.919   3.284  12.504  0.0489  0.3017  0.2563
  193DOPC   O3223837   7.901   3.403  12.517 -0.3766  0.1321 -0.1161
  193DOPC   C3223838   8.057   3.226  12.515 -0.3730 -0.1007  0.3519
  193DOPC   H2X23839   8.073   3.173  12.418 -2.5219 -0.6154  0.2382
  193DOPC   H2Y23840   8.136   3.304  12.524 -0.2457  0.1168 -1.9924
  193DOPC   C2323841   7.718   2.957  12.995  0.1737 -0.3809 -0.3911
  193DOPC   H3R23842   7.749   3.003  13.092 -0.4533  0.4768 -0.5869
  193DOPC   H3S23843   7.803   2.895  12.959 -0.2570 -1.0824 -0.2020
  193DOPC   C2423844   7.590   2.873  13.010 -0.1053  0.2798  0.1345
  193DOPC   H4R23845   7.603   2.768  13.043 -0.7392  0.2820  0.4067
  193DOPC   H4S23846   7.549   2.850  12.909 -0.4651 -0.2666  0.4043
  193DOPC   C2523847   7.482   2.928  13.103  0.1555  0.0150  0.2435
  193DOPC   H5R23848   7.386   2.872  13.103  0.1776 -0.0239 -0.1550
  193DOPC   H5S23849   7.454   3.028  13.064  0.4142 -0.3440 -0.8819
  193DOPC   C2623850   7.535   2.957  13.241 -0.1542  0.5079 -0.0039
  193DOPC   H6R23851   7.620   3.029  13.241  0.8278 -0.6193 -0.5490
  193DOPC   H6S23852   7.582   2.862  13.273  0.4632  1.7530  3.1128
  193DOPC   C2723853   7.433   3.003  13.350 -0.6468  0.3696 -0.4659
  193DOPC   H7R23854   7.375   2.914  13.382  1.1020 -0.1803  1.3883
  193DOPC   H7S23855   7.358   3.072  13.306 -1.4708  1.5878  2.6133
  193DOPC   C2823856   7.491   3.068  13.476 -0.6768 -0.1353  0.8299
  193DOPC   H8R23857   7.407   3.117  13.529  1.4654  3.5929  1.1566
  193DOPC   H8S23858   7.552   3.152  13.436 -0.2915 -0.6628  0.2818
  193DOPC   C2923859   7.574   2.972  13.557 -0.3655  0.2746 -0.1407
  193DOPC   H9R23860   7.519   2.904  13.625 -1.4334  1.0427 -0.2045
  193DOPC  C21023861   7.711   2.967  13.560  0.1398 -0.0429  0.7070
  193DOPC  H10R23862   7.749   2.892  13.630 -1.6222 -0.7708  0.9480
  193DOPC  C21123863   7.803   3.049  13.476  0.2672  0.8731  0.6069
  193DOPC  H11R23864   7.744   3.111  13.406  1.4983  1.3717 -0.0131
  193DOPC  H11S23865   7.860   2.971  13.420  0.7826  1.0603  0.8737
  193DOPC  C21223866   7.891   3.140  13.555 -0.1521 -0.9783  0.2966
  193DOPC  H12R23867   7.971   3.180  13.489  0.4319 -0.1632  1.4486
  193DOPC  H12S23868   7.946   3.081  13.632 -2.5825 -1.0079  2.1305
  193DOPC  C21323869   7.806   3.253  13.619 -0.6156 -0.3115 -0.1911
  193DOPC  H13R23870   7.753   3.203  13.702  0.6097 -2.9081 -0.8625
  193DOPC  H13S23871   7.732   3.284  13.541  0.1821 -0.7772 -1.1537
  193DOPC  C21423872   7.893   3.366  13.679  0.8567 -0.8569 -0.4351
  193DOPC  H14R23873   7.972   3.317  13.740  0.5543 -0.2572  0.4475
  193DOPC  H14S23874   7.840   3.430  13.753  4.2197  2.5035 -0.6140
  193DOPC  C21523875   7.958   3.468  13.583 -0.9483  0.9247  0.2834
  193DOPC  H15R23876   7.869   3.525  13.549 -2.0570 -0.3848  0.8967
  193DOPC  H15S23877   8.014   3.418  13.501  0.2869  1.4833  0.7502
  193DOPC  C21623878   8.067   3.555  13.650  0.6987 -0.6492  0.1384
  193DOPC  H16R23879   8.163   3.500  13.641  1.1834  0.2824 -0.5488
  193DOPC  H16S23880   8.040   3.567  13.757  1.5614 -1.7023  0.4873
  193DOPC  C21723881   8.076   3.700  13.604  0.2217  0.3236  0.2917
  193DOPC  H17R23882   8.115   3.745  13.698 -1.1811 -0.0860  1.0892
  193DOPC  H17S23883   7.971   3.732  13.595  0.3931  0.5090 -1.4164
  193DOPC  C21823884   8.145   3.729  13.469  0.8048 -0.3234  0.1220
  193DOPC  H18R23885   8.255   3.714  13.460  0.7463 -0.7010 -0.0006
  193DOPC  H18S23886   8.133   3.839  13.464  1.6118 -0.2631 -0.9125
  193DOPC  H18T23887   8.094   3.679  13.384 -0.3562  1.6907 -0.4234
  193DOPC   C3323888   8.057   3.120  12.631  0.0460 -0.5326 -0.4949
  193DOPC   H3X23889   8.148   3.057  12.629 -1.6346 -3.0832 -0.1495
  193DOPC   H3Y23890   7.973   3.048  12.626  0.1753 -0.7718  0.7033
  193DOPC   C3423891   8.051   3.187  12.764  0.2226  0.6998 -0.0597
  193DOPC   H4X23892   7.958   3.240  12.792  0.8825 -0.0428  4.1720
  193DOPC   H4Y23893   8.131   3.265  12.769  0.6583  0.3227 -0.9323
  193DOPC   C3523894   8.072   3.081  12.883 -0.5938 -0.2868 -0.0915
  193DOPC   H5X23895   8.158   3.015  12.856  0.0315  0.7334 -0.6820
  193DOPC   H5Y23896   7.981   3.018  12.882 -1.6348  1.1662 -1.0383
  193DOPC   C3623897   8.085   3.126  13.026  0.1201  0.0641 -0.8969
  193DOPC   H6X23898   7.996   3.193  13.032  0.1612  0.0095  0.7745
  193DOPC   H6Y23899   8.079   3.060  13.116  0.1642 -1.9636 -2.3285
  193DOPC   C3723900   8.197   3.229  13.043  0.2845 -0.2696 -0.2117
  193DOPC   H7X23901   8.296   3.179  13.044 -0.3743 -1.6253 -0.9100
  193DOPC   H7Y23902   8.192   3.306  12.963 -0.1584 -2.0142 -1.9123
  193DOPC   C3823903   8.190   3.316  13.173 -0.6877 -0.6046  0.3096
  193DOPC   H8X23904   8.242   3.255  13.250  0.5814  1.2370  0.9783
  193DOPC   H8Y23905   8.082   3.335  13.193 -0.4219  0.5299  0.7793
  193DOPC   C3923906   8.256   3.451  13.159  0.5882  0.1597 -0.2369
  193DOPC   H9X23907   8.219   3.515  13.077 -0.2851 -0.7648 -0.5779
  193DOPC  C31023908   8.356   3.507  13.235 -0.0943  0.7043 -0.1431
  193DOPC  H10X23909   8.384   3.611  13.213  3.3193 -0.2237 -0.7160
  193DOPC  C31123910   8.417   3.456  13.366 -0.0037 -0.4046 -0.7269
  193DOPC  H11X23911   8.374   3.359  13.401 -2.3546  0.6391 -0.4833
  193DOPC  H11Y23912   8.408   3.533  13.446  1.1220  0.0756 -1.0537
  193DOPC  C31223913   8.568   3.443  13.339 -0.2003  0.5247  0.0562
  193DOPC  H12X23914   8.605   3.406  13.241  1.5068 -0.2812  0.9505
  193DOPC  H12Y23915   8.603   3.365  13.410  1.6859  1.3478  0.0861
  193DOPC  C31323916   8.659   3.563  13.385 -0.5221  0.0679  0.1590
  193DOPC  H13X23917   8.764   3.528  13.377  0.2270  2.0774  0.5886
  193DOPC  H13Y23918   8.637   3.643  13.311  0.4580  0.6872  0.5220
  193DOPC  C31423919   8.630   3.621  13.529 -0.0990  0.7505  0.4138
  193DOPC  H14X23920   8.535   3.678  13.534 -0.2176  0.6816 -0.7132
  193DOPC  H14Y23921   8.618   3.538  13.602 -0.8264  0.0214 -0.5108
  193DOPC  C31523922   8.737   3.719  13.574 -0.2279 -0.7167 -0.6380
  193DOPC  H15X23923   8.737   3.791  13.489 -2.5384 -0.1956 -0.2463
  193DOPC  H15Y23924   8.836   3.669  13.581 -0.3979 -0.8451  1.3025
  193DOPC  C31623925   8.708   3.801  13.705 -0.3999 -0.4704  0.0823
  193DOPC  H16X23926   8.606   3.844  13.703 -1.1910 -2.2918 -1.1715
  193DOPC  H16Y23927   8.705   3.722  13.783  0.3208 -0.8842 -0.2974
  193DOPC  C31723928   8.811   3.912  13.722 -0.1520  0.5728  0.8990
  193DOPC  H17X23929   8.905   3.871  13.679 -1.4533  0.1686 -1.8104
  193DOPC  H17Y23930   8.777   3.993  13.655  4.9241  0.4662 -2.2887
  193DOPC  C31823931   8.830   3.958  13.868  0.3893 -0.3836  0.4092
  193DOPC  H18X23932   8.867   3.873  13.929 -1.6102 -0.9368  0.8984
  193DOPC  H18Y23933   8.902   4.043  13.866 -1.8690  1.6765  1.0359
  193DOPC  H18Z23934   8.738   4.002  13.912  0.5756  0.0007  0.4238
  194DOPC     N23935   1.849   1.968  12.707 -0.1405 -0.6142  0.1227
  194DOPC   C1223936   1.792   1.822  12.725  0.1138 -0.0400 -0.2463
  194DOPC  H12A23937   1.865   1.748  12.697 -0.6469 -1.9254  2.3324
  194DOPC  H12B23938   1.704   1.830  12.662 -0.6015  1.2320  0.8481
  194DOPC   C1323939   1.897   1.981  12.560 -0.6538 -0.2932 -0.7667
  194DOPC  H13A23940   1.982   1.917  12.545 -0.9528 -0.7487 -0.5231
  194DOPC  H13B23941   1.817   1.949  12.495 -1.8946  1.3970 -0.1387
  194DOPC  H13C23942   1.922   2.083  12.535 -1.9184  0.2264 -0.0024
  194DOPC   C1423943   1.972   1.986  12.795  0.3393  0.0919  0.0726
  194DOPC  H14A23944   2.038   1.900  12.794 -3.0393 -2.8659  2.7877
  194DOPC  H14B23945   2.023   2.078  12.772  0.3968  0.5274  1.7987
  194DOPC  H14C23946   1.944   1.980  12.899  2.1712 -2.6429  0.4998
  194DOPC   C1523947   1.749   2.074  12.743 -0.3800 -0.0167 -0.5404
  194DOPC  H15A23948   1.676   2.102  12.669  0.6963  1.2073 -1.1898
  194DOPC  H15B23949   1.799   2.168  12.758  2.7757 -1.9042  1.9906
  194DOPC  H15C23950   1.714   2.047  12.841  0.4784 -0.2947 -0.3029
  194DOPC   C1123951   1.739   1.778  12.864  0.0064 -0.0649 -0.2653
  194DOPC  H11A23952   1.691   1.679  12.850 -2.2444  1.0893 -1.1479
  194DOPC  H11B23953   1.816   1.768  12.944  0.5888  0.5778 -0.7321
  194DOPC     P23954   1.498   1.878  12.842 -0.1872 -0.1197  0.4151
  194DOPC   O1323955   1.503   1.823  12.709 -0.1317  0.6562  0.2433
  194DOPC   O1423956   1.440   2.017  12.849  0.4153 -0.1484 -0.3041
  194DOPC   O1223957   1.635   1.864  12.906 -0.0028 -0.6845  0.2191
  194DOPC   O1123958   1.421   1.782  12.945  1.3757 -0.4345  0.0139
  194DOPC    C123959   1.433   1.818  13.086 -0.0829 -0.1794  0.4234
  194DOPC    HA23960   1.418   1.924  13.112  1.9047  0.4327 -0.6824
  194DOPC    HB23961   1.534   1.789  13.123  0.0671 -0.1907  0.0109
  194DOPC    C223962   1.332   1.728  13.175 -0.1350  0.6014  0.6264
  194DOPC    HS23963   1.279   1.654  13.110 -1.1883 -0.9919  3.1638
  194DOPC   O2123964   1.239   1.808  13.244 -0.2128  0.5832 -0.4378
  194DOPC   C2123965   1.145   1.859  13.160 -0.1808 -0.7125  0.6181
  194DOPC   O2223966   1.122   1.829  13.045 -0.1760  0.2441  0.1233
  194DOPC   C2223967   1.072   1.978  13.223  0.1457  0.5927  0.1659
  194DOPC   H2R23968   1.041   2.039  13.136  1.2229  0.3812 -0.3844
  194DOPC   H2S23969   1.143   2.034  13.288  1.1239 -1.2844  0.7897
  194DOPC    C323970   1.400   1.630  13.280  0.5208 -0.6177 -0.5540
  194DOPC    HX23971   1.441   1.691  13.363 -2.5691  1.1291 -0.1272
  194DOPC    HY23972   1.478   1.585  13.216  0.3561 -1.9362  0.1280
  194DOPC   O3123973   1.294   1.535  13.328  0.7545 -0.7034  0.9152
  194DOPC   C3123974   1.341   1.417  13.351  0.0917 -0.4333 -0.5343
  194DOPC   O3223975   1.453   1.377  13.313 -0.4142  0.1404  0.5222
  194DOPC   C3223976   1.235   1.324  13.415  0.1682 -0.2497  0.4572
  194DOPC   H2X23977   1.267   1.220  13.391  0.9547 -0.3360  1.7588
  194DOPC   H2Y23978   1.241   1.327  13.526  0.5370 -1.7689  0.5088
  194DOPC   C2323979   0.943   1.931  13.307  0.1475 -1.1752 -0.1545
  194DOPC   H3R23980   0.985   1.874  13.393 -0.1800  0.7994  1.3923
  194DOPC   H3S23981   0.875   1.870  13.244  0.2700  0.1941 -1.6822
  194DOPC   C2423982   0.861   2.057  13.347  0.4097 -0.5812  0.5657
  194DOPC   H4R23983   0.787   2.012  13.416  0.3276  0.6318  1.2880
  194DOPC   H4S23984   0.802   2.107  13.268 -0.5312  2.4315  2.9672
  194DOPC   C2523985   0.933   2.161  13.435  0.5568 -1.0783  0.4108
  194DOPC   H5R23986   0.850   2.233  13.454 -1.4764 -3.8487  2.8818
  194DOPC   H5S23987   1.020   2.214  13.389  0.4680  0.8647  2.3150
  194DOPC   C2623988   0.970   2.110  13.575 -0.5485 -0.4451  0.5132
  194DOPC   H6R23989   1.062   2.050  13.563  0.1327  0.7315 -0.3096
  194DOPC   H6S23990   0.891   2.041  13.612 -2.3308  0.5306 -1.2691
  194DOPC   C2723991   0.990   2.230  13.679  0.2209 -0.2216  0.6125
  194DOPC   H7R23992   0.891   2.269  13.712 -1.3879 -3.1677 -0.4266
  194DOPC   H7S23993   1.046   2.316  13.636 -2.2529  0.8666 -0.5941
  194DOPC   C2823994   1.080   2.182  13.790  0.1847  0.6333  0.6096
  194DOPC   H8R23995   1.111   2.275  13.842 -0.1407  0.7332  0.6298
  194DOPC   H8S23996   1.170   2.137  13.744  0.8285  0.9250  1.5587
  194DOPC   C2923997   1.027   2.088  13.901  0.2913 -0.1542 -0.3030
  194DOPC   H9R23998   0.917   2.080  13.909  0.2607 -0.5186 -0.9696
  194DOPC  C21023999   1.107   2.004  13.973 -0.3876 -0.3872 -0.3344
  194DOPC  H10R24000   1.051   1.933  14.036  1.0693 -0.0070  1.4951
  194DOPC  C21124001   1.256   1.984  13.960  0.1468  0.1872  0.9787
  194DOPC  H11R24002   1.305   1.988  14.059 -1.4063 -0.1363  1.8015
  194DOPC  H11S24003   1.299   2.065  13.897  1.2522  1.5409  3.3381
  194DOPC  C21224004   1.291   1.840  13.898 -0.6215 -0.4255 -0.5093
  194DOPC  H12R24005   1.392   1.865  13.859 -0.2963  1.8363  1.5164
  194DOPC  H12S24006   1.223   1.808  13.817 -3.3682  0.3899  1.3413
  194DOPC  C21324007   1.295   1.731  14.012  0.4306  1.1177 -0.2508
  194DOPC  H13R24008   1.193   1.729  14.055  1.3570 -0.8615  2.1093
  194DOPC  H13S24009   1.373   1.762  14.085 -1.2115  1.5636  1.3888
  194DOPC  C21424010   1.333   1.592  13.964 -0.1553  0.4252  0.6680
  194DOPC  H14R24011   1.260   1.558  13.888  0.8224 -0.9339  0.3008
  194DOPC  H14S24012   1.338   1.528  14.054  0.8452  1.1293  1.1372
  194DOPC  C21524013   1.476   1.597  13.892  0.2242  0.0042 -0.8543
  194DOPC  H15R24014   1.548   1.631  13.969 -1.7057  1.5665  0.3662
  194DOPC  H15S24015   1.485   1.665  13.804  0.9779 -0.8818 -1.4880
  194DOPC  C21624016   1.520   1.457  13.860  0.6096 -0.6935  0.1371
  194DOPC  H16R24017   1.483   1.381  13.932 -0.5947 -2.6053 -2.3073
  194DOPC  H16S24018   1.630   1.465  13.871  0.3888  2.4631  0.8857
  194DOPC  C21724019   1.490   1.410  13.713 -0.1556 -0.2846  0.8589
  194DOPC  H17R24020   1.528   1.488  13.644  1.8949  0.1364  2.3710
  194DOPC  H17S24021   1.380   1.410  13.694  0.0353 -1.7932 -0.3800
  194DOPC  C21824022   1.558   1.274  13.680 -0.3347  0.3210  0.3322
  194DOPC  H18R24023   1.664   1.292  13.708 -0.2805 -1.4486  1.4216
  194DOPC  H18S24024   1.531   1.239  13.578 -2.3803  1.7883  0.3043
  194DOPC  H18T24025   1.519   1.202  13.755 -2.7899 -0.1992 -1.3179
  194DOPC   C3324026   1.088   1.334  13.363  0.5736  0.0147  0.2755
  194DOPC   H3X24027   1.047   1.233  13.384 -2.7784  0.7026 -2.1545
  194DOPC   H3Y24028   1.089   1.334  13.252  0.2536  1.4583  0.2533
  194DOPC   C3424029   1.006   1.447  13.410 -0.0792 -0.5518  0.0671
  194DOPC   H4X24030   0.899   1.440  13.381 -0.1385 -0.4097  0.2426
  194DOPC   H4Y24031   1.047   1.536  13.358  1.6820 -1.1249  0.4199
  194DOPC   C3524032   1.011   1.478  13.557  0.4023  0.0735  0.9489
  194DOPC   H5X24033   1.116   1.472  13.593  1.5609  0.2860 -2.0865
  194DOPC   H5Y24034   0.944   1.407  13.610 -2.3222  1.1446 -0.8387
  194DOPC   C3624035   0.960   1.620  13.596  0.5780  0.3851  0.1182
  194DOPC   H6X24036   1.031   1.697  13.560 -0.0830  0.6302 -0.6957
  194DOPC   H6Y24037   0.864   1.639  13.542  1.2678 -0.3806 -1.4262
  194DOPC   C3724038   0.947   1.631  13.745  0.2165  0.1661  0.5425
  194DOPC   H7X24039   0.877   1.552  13.780 -0.9471  0.5865 -0.7464
  194DOPC   H7Y24040   1.036   1.595  13.802 -0.5579  1.6082  2.7550
  194DOPC   C3824041   0.920   1.773  13.801  0.0685  0.1120  0.0035
  194DOPC   H8X24042   0.995   1.845  13.761  0.7834 -1.2824 -1.2654
  194DOPC   H8Y24043   0.947   1.761  13.908  0.5081  2.1889  0.1755
  194DOPC   C3924044   0.778   1.818  13.778  0.3603  0.4973  0.2248
  194DOPC   H9X24045   0.751   1.860  13.680 -2.5772  3.1451  1.9916
  194DOPC  C31024046   0.688   1.830  13.881 -0.4218  0.4159 -0.2694
  194DOPC  H10X24047   0.588   1.872  13.864 -1.6967 -1.8483  1.0088
  194DOPC  C31124048   0.718   1.785  14.029  0.2162 -0.4694 -0.0170
  194DOPC  H11X24049   0.799   1.843  14.078  0.2016 -0.9006  0.5314
  194DOPC  H11Y24050   0.740   1.678  14.012  1.0629 -0.0454 -1.8406
  194DOPC  C31224051   0.590   1.785  14.112  0.0041 -1.1936 -0.1660
  194DOPC  H12X24052   0.609   1.721  14.201  1.1875 -1.9255 -0.9156
  194DOPC  H12Y24053   0.512   1.739  14.048 -1.1566  1.4268 -0.7844
  194DOPC  C31324054   0.555   1.937  14.153  0.2923  0.2464  0.2644
  194DOPC  H13X24055   0.642   1.989  14.200  1.0685 -2.2721  1.7936
  194DOPC  H13Y24056   0.522   1.995  14.064  1.4994 -0.0148 -0.3695
  194DOPC  C31424057   0.441   1.935  14.247 -0.0785 -0.1265 -0.1645
  194DOPC  H14X24058   0.379   2.027  14.244 -0.8656 -0.6243  0.3137
  194DOPC  H14Y24059   0.377   1.850  14.215 -1.8764  1.0265  0.2031
  194DOPC  C31524060   0.480   1.904  14.397  0.0310  0.1909  0.0228
  194DOPC  H15X24061   0.574   1.846  14.397 -0.7047 -1.0468  0.0148
  194DOPC  H15Y24062   0.398   1.846  14.444 -0.1001 -0.5049 -1.0446
  194DOPC  C31624063   0.497   2.028  14.491  0.8554  0.7813 -0.2441
  194DOPC  H16X24064   0.395   2.061  14.519  0.4948 -1.6747  1.7853
  194DOPC  H16Y24065   0.540   1.982  14.583  3.2344 -3.1835 -3.0339
  194DOPC  C31724066   0.576   2.150  14.443  0.1929  0.4004 -0.8544
  194DOPC  H17X24067   0.676   2.108  14.421 -0.6491 -1.8687 -0.6527
  194DOPC  H17Y24068   0.531   2.180  14.346  1.5762 -1.0625 -2.0093
  194DOPC  C31824069   0.584   2.254  14.550 -0.3270  0.0171 -0.3577
  194DOPC  H18X24070   0.498   2.324  14.564  0.0967  0.3757  0.5488
  194DOPC  H18Y24071   0.600   2.203  14.647  0.0573  0.8417  0.0283
  194DOPC  H18Z24072   0.670   2.322  14.528 -0.4754  0.4551  0.4010
  195DOPC     N24073   5.960   7.420  12.608 -0.2445  0.7445  0.3626
  195DOPC   C1224074   5.909   7.358  12.743 -0.1816  0.1754  0.7098
  195DOPC  H12A24075   5.808   7.388  12.763  0.1068 -0.0916  2.7632
  195DOPC  H12B24076   5.973   7.389  12.825  2.0947 -0.8000 -0.5979
  195DOPC   C1324077   5.973   7.567  12.628 -0.3637  0.5158  0.2555
  195DOPC  H13A24078   6.012   7.619  12.541 -1.5795 -1.5110 -1.5880
  195DOPC  H13B24079   5.877   7.607  12.658 -0.7133 -0.1870  0.0959
  195DOPC  H13C24080   6.041   7.587  12.709 -1.1646  2.0477  0.5975
  195DOPC   C1424081   5.880   7.387  12.484  0.2947 -0.1053 -0.1370
  195DOPC  H14A24082   5.778   7.424  12.489  0.5957  0.7673 -0.3008
  195DOPC  H14B24083   5.934   7.431  12.402  1.6764  0.1181  0.8694
  195DOPC  H14C24084   5.872   7.281  12.465  2.2115  0.0257 -2.0291
  195DOPC   C1524085   6.101   7.363  12.586 -0.4951 -0.0563  0.0316
  195DOPC  H15A24086   6.090   7.255  12.583  0.2995 -0.1316 -0.4391
  195DOPC  H15B24087   6.167   7.390  12.667  0.3808 -3.0619  0.4657
  195DOPC  H15C24088   6.141   7.393  12.491 -0.7316 -2.9303 -1.0790
  195DOPC   C1124089   5.919   7.195  12.753 -0.1374 -0.3182  0.3573
  195DOPC  H11A24090   5.862   7.170  12.845  0.7678  0.9340  1.2869
  195DOPC  H11B24091   5.848   7.159  12.675  0.4360 -1.3309  0.2827
  195DOPC     P24092   6.087   7.004  12.669  0.2067  0.1936 -0.2922
  195DOPC   O1324093   6.061   7.028  12.530 -0.3434  0.5473  0.5461
  195DOPC   O1424094   6.017   6.893  12.732 -0.4504  0.2850 -0.1990
  195DOPC   O1224095   6.043   7.131  12.752 -0.3168  0.0944 -0.4508
  195DOPC   O1124096   6.244   6.988  12.686  0.1576 -0.2087 -0.3274
  195DOPC    C124097   6.301   6.922  12.803  0.4068  0.0257 -0.1129
  195DOPC    HA24098   6.353   6.829  12.771  0.9640 -0.0964  1.0821
  195DOPC    HB24099   6.225   6.893  12.879 -0.0645 -0.3829 -0.7322
  195DOPC    C224100   6.386   7.025  12.879  0.2956  0.4899 -1.3598
  195DOPC    HS24101   6.435   6.971  12.963 -1.4699  0.9640  0.0303
  195DOPC   O2124102   6.305   7.130  12.933  0.3489  0.2408  0.0806
  195DOPC   C2124103   6.235   7.091  13.037 -0.7996  0.3071 -1.2329
  195DOPC   O2224104   6.259   6.991  13.104  0.4416 -0.1599  0.8018
  195DOPC   C2224105   6.130   7.192  13.072 -0.8138 -0.1650  0.0245
  195DOPC   H2R24106   6.079   7.231  12.982 -0.7488  0.5349  0.2891
  195DOPC   H2S24107   6.172   7.278  13.129  0.9735 -3.0742  3.5794
  195DOPC    C324108   6.498   7.098  12.795  0.2350  0.4982 -0.0685
  195DOPC    HX24109   6.444   7.154  12.716 -0.8241 -1.2938 -0.6895
  195DOPC    HY24110   6.549   7.020  12.734 -0.5063 -1.2364  1.4287
  195DOPC   O3124111   6.585   7.181  12.879  0.1679  0.5158 -0.5471
  195DOPC   C3124112   6.674   7.108  12.947 -0.0525 -0.1570  0.8058
  195DOPC   O3224113   6.685   6.987  12.941 -0.0981 -0.3056 -0.4440
  195DOPC   C3224114   6.780   7.186  13.026  0.0830 -0.5275  0.6364
  195DOPC   H2X24115   6.877   7.150  12.986 -0.4070 -1.3890  0.2068
  195DOPC   H2Y24116   6.773   7.297  13.015 -0.4599 -0.5793  0.4027
  195DOPC   C2324117   6.018   7.152  13.173  1.2014  0.3490  0.0814
  195DOPC   H3R24118   5.991   7.044  13.165  2.7687 -0.1078  0.4818
  195DOPC   H3S24119   5.931   7.208  13.134 -0.0605 -0.9572  0.9218
  195DOPC   C2424120   6.040   7.187  13.318  0.3683  0.1092 -0.0520
  195DOPC   H4R24121   6.080   7.291  13.318  0.6722  0.0055  0.9170
  195DOPC   H4S24122   6.119   7.118  13.353 -2.3745 -2.2624  1.9780
  195DOPC   C2524123   5.920   7.175  13.411 -0.2821  0.2249 -0.6732
  195DOPC   H5R24124   5.874   7.075  13.401  2.2451 -1.0733  0.0155
  195DOPC   H5S24125   5.840   7.249  13.389 -0.5494  0.0801 -0.2220
  195DOPC   C2624126   5.965   7.198  13.563 -0.1948 -0.3411 -0.3983
  195DOPC   H6R24127   6.044   7.276  13.566  0.9179 -1.3702 -1.5208
  195DOPC   H6S24128   6.011   7.103  13.600  0.8079 -0.2155 -1.2850
  195DOPC   C2724129   5.847   7.240  13.654  0.2233 -0.0539 -0.6580
  195DOPC   H7R24130   5.770   7.161  13.641  1.1543 -1.2130  0.5696
  195DOPC   H7S24131   5.816   7.342  13.624  0.3599  0.8485  2.0285
  195DOPC   C2824132   5.889   7.246  13.801 -0.4399  0.5979 -1.1699
  195DOPC   H8R24133   5.799   7.288  13.851 -1.4408 -0.5355 -1.9544
  195DOPC   H8S24134   5.960   7.330  13.811 -0.5377  0.5385  0.3232
  195DOPC   C2924135   5.938   7.118  13.877  0.0011 -0.2957  0.2430
  195DOPC   H9R24136   5.909   7.022  13.833  0.2915  0.5687 -1.9883
  195DOPC  C21024137   6.031   7.123  13.979 -0.1385 -0.3142  0.4029
  195DOPC  H10R24138   6.059   7.024  14.019  0.0453 -0.6710 -0.5755
  195DOPC  C21124139   6.095   7.245  14.044  0.0842  0.1597  0.2533
  195DOPC  H11R24140   6.010   7.318  14.044 -1.6625 -1.7418  1.7911
  195DOPC  H11S24141   6.185   7.290  13.998 -0.1301  0.1208 -0.2159
  195DOPC  C21224142   6.121   7.231  14.198  0.5148  0.8008  0.2802
  195DOPC  H12R24143   6.023   7.208  14.245  0.0276  2.2398  0.0198
  195DOPC  H12S24144   6.141   7.332  14.239 -2.6739  1.6886 -0.0766
  195DOPC  C21324145   6.237   7.133  14.218 -0.0280  0.1315 -0.0067
  195DOPC  H13R24146   6.334   7.162  14.172  0.6754 -0.1115  1.2873
  195DOPC  H13S24147   6.202   7.036  14.176 -0.2206 -0.3715  1.2892
  195DOPC  C21424148   6.264   7.109  14.368  0.1796 -0.5172  0.4040
  195DOPC  H14R24149   6.165   7.084  14.412 -0.8169 -0.1624 -1.5161
  195DOPC  H14S24150   6.295   7.205  14.414  0.6277 -0.6715  0.4237
  195DOPC  C21524151   6.364   6.991  14.396  0.5442 -0.0775  0.1226
  195DOPC  H15R24152   6.401   7.005  14.500  1.1018  0.5395 -0.1521
  195DOPC  H15S24153   6.444   7.001  14.319  1.3142 -0.7152  0.8151
  195DOPC  C21624154   6.288   6.858  14.383 -0.5907  0.3438  0.1390
  195DOPC  H16R24155   6.262   6.851  14.275  2.5569  0.9104 -0.7721
  195DOPC  H16S24156   6.196   6.861  14.444 -0.1348  0.9960  0.8100
  195DOPC  C21724157   6.371   6.735  14.422  0.8220 -0.3301 -0.5034
  195DOPC  H17R24158   6.452   6.720  14.348 -0.2132 -0.9557 -1.5406
  195DOPC  H17S24159   6.304   6.646  14.414  0.5659 -0.1173 -0.7788
  195DOPC  C21824160   6.430   6.744  14.566  0.5824 -0.3605 -0.7056
  195DOPC  H18R24161   6.504   6.827  14.566 -0.4215  0.6138  1.4730
  195DOPC  H18S24162   6.466   6.646  14.604 -1.0457 -0.7123  0.0181
  195DOPC  H18T24163   6.348   6.773  14.636  0.9864 -2.9556  0.9918
  195DOPC   C3324164   6.775   7.158  13.176  0.3115  0.6538 -0.1590
  195DOPC   H3X24165   6.870   7.179  13.229  0.5704 -1.9168  0.5075
  195DOPC   H3Y24166   6.759   7.048  13.178  0.5499  0.5298 -2.2171
  195DOPC   C3424167   6.672   7.230  13.262  1.1815  0.1860 -0.1637
  195DOPC   H4X24168   6.712   7.333  13.273  0.5545  0.3087  1.1245
  195DOPC   H4Y24169   6.670   7.169  13.355  3.0542 -2.5136 -1.7444
  195DOPC   C3524170   6.529   7.246  13.210  0.4167 -0.3138  0.5462
  195DOPC   H5X24171   6.495   7.140  13.206 -1.2032  0.1034  2.0037
  195DOPC   H5Y24172   6.524   7.288  13.107 -1.9758 -0.0770  0.6838
  195DOPC   C3624173   6.433   7.329  13.295 -0.4915  0.1992 -0.5894
  195DOPC   H6X24174   6.332   7.291  13.270 -0.9094  1.8242 -1.4926
  195DOPC   H6Y24175   6.459   7.322  13.403  1.4669  1.1849 -0.9473
  195DOPC   C3724176   6.444   7.477  13.259  0.4559  0.9918  0.0081
  195DOPC   H7X24177   6.553   7.494  13.241  0.4317  1.3695  0.1966
  195DOPC   H7Y24178   6.396   7.485  13.160  1.5571 -1.1404 -0.7631
  195DOPC   C3824179   6.392   7.571  13.375 -0.5128  0.1882  0.5222
  195DOPC   H8X24180   6.448   7.547  13.468  2.1278  1.4656 -0.6527
  195DOPC   H8Y24181   6.287   7.536  13.384 -0.7803 -0.6433 -3.8002
  195DOPC   C3924182   6.405   7.713  13.333 -0.1531 -0.3630 -0.0012
  195DOPC   H9X24183   6.510   7.745  13.331  0.2542 -1.6607 -0.5816
  195DOPC  C31024184   6.312   7.802  13.291 -0.3493 -0.5884  0.2625
  195DOPC  H10X24185   6.341   7.903  13.257  2.7303 -1.3384  0.3023
  195DOPC  C31124186   6.166   7.766  13.287  0.0929  0.7055  0.3922
  195DOPC  H11X24187   6.144   7.687  13.361 -0.1275 -0.5047 -0.9259
  195DOPC  H11Y24188   6.128   7.731  13.188 -1.2816  0.1388  1.0871
  195DOPC  C31224189   6.079   7.886  13.337 -0.1121 -0.4718  0.5153
  195DOPC  H12X24190   6.074   7.961  13.256  2.7715 -1.5553 -0.7984
  195DOPC  H12Y24191   6.134   7.939  13.418 -2.0934  1.8594  0.4791
  195DOPC  C31324192   5.942   7.846  13.386  0.2968 -0.1973  0.7037
  195DOPC  H13X24193   5.879   7.938  13.383  0.7971  0.1394  0.4294
  195DOPC  H13Y24194   5.899   7.775  13.313  0.2875 -0.0465  0.5635
  195DOPC  C31424195   5.921   7.784  13.528 -0.1749  1.4150 -0.7899
  195DOPC  H14X24196   5.976   7.688  13.534 -1.6033  0.6429  0.5588
  195DOPC  H14Y24197   5.946   7.857  13.608 -1.0761 -0.2525  1.0750
  195DOPC  C31524198   5.773   7.752  13.567 -0.6497  0.0197 -0.0572
  195DOPC  H15X24199   5.721   7.707  13.479 -2.7670 -2.4898  2.2899
  195DOPC  H15Y24200   5.718   7.841  13.606  0.3322  1.8060 -2.5108
  195DOPC  C31624201   5.769   7.647  13.681  0.1233  0.4530 -0.2724
  195DOPC  H16X24202   5.824   7.555  13.651  1.9312  1.5243 -0.4176
  195DOPC  H16Y24203   5.820   7.693  13.768 -0.3720 -0.7597  0.6853
  195DOPC  C31724204   5.625   7.620  13.729  0.3043  0.3451  0.9076
  195DOPC  H17X24205   5.623   7.544  13.810  1.3267 -0.4417  0.2285
  195DOPC  H17Y24206   5.579   7.709  13.778 -3.2684 -0.3195 -0.9088
  195DOPC  C31824207   5.538   7.553  13.626  0.1861  0.6893  0.3729
  195DOPC  H18X24208   5.433   7.537  13.657 -0.1738 -0.0165 -1.1314
  195DOPC  H18Y24209   5.536   7.612  13.532  1.1729 -2.1311 -1.5512
  195DOPC  H18Z24210   5.583   7.458  13.590 -1.0569  0.9432 -2.0038
  196DOPC     N24211   0.719   2.600  12.113 -0.1085 -0.1310 -0.0919
  196DOPC   C1224212   0.677   2.737  12.167 -0.3776  0.3045 -0.0393
  196DOPC  H12A24213   0.719   2.743  12.267  0.6452  1.6006 -0.5133
  196DOPC  H12B24214   0.572   2.752  12.187 -0.4464  0.2910 -0.3794
  196DOPC   C1324215   0.861   2.573  12.108  0.0779 -0.5067  0.2952
  196DOPC  H13A24216   0.878   2.470  12.081  0.3021 -0.5264  0.5133
  196DOPC  H13B24217   0.907   2.641  12.037 -2.8923  1.8556  0.4349
  196DOPC  H13C24218   0.898   2.581  12.209  0.4660 -2.5077  0.3496
  196DOPC   C1424219   0.656   2.589  11.979  0.0077  0.0128 -0.1052
  196DOPC  H14A24220   0.684   2.496  11.932  0.2608  1.2825 -2.6914
  196DOPC  H14B24221   0.550   2.577  11.992 -0.5125  2.7825 -1.0899
  196DOPC  H14C24222   0.678   2.668  11.908  0.6644 -0.4474 -0.4338
  196DOPC   C1524223   0.650   2.508  12.205 -0.3709  0.5160 -0.1755
  196DOPC  H15A24224   0.695   2.503  12.303 -0.6589 -2.7246 -0.1001
  196DOPC  H15B24225   0.662   2.410  12.162  0.6636  0.6043 -0.0962
  196DOPC  H15C24226   0.544   2.522  12.225 -0.5429 -1.3089  0.3996
  196DOPC   C1124227   0.727   2.859  12.092 -0.1677 -0.4828 -0.2885
  196DOPC  H11A24228   0.681   2.864  11.990  2.6942 -1.2765 -1.7318
  196DOPC  H11B24229   0.697   2.954  12.141  4.1085  1.1015 -0.2726
  196DOPC     P24230   0.941   2.967  11.995  0.0146  0.5306  0.1413
  196DOPC   O1324231   0.843   3.059  11.939  0.2247 -0.0483  0.0447
  196DOPC   O1424232   1.046   2.903  11.916 -0.2730 -0.2843  0.9802
  196DOPC   O1224233   0.868   2.850  12.079 -0.2791 -0.6259  0.2841
  196DOPC   O1124234   1.013   3.046  12.110  0.3652 -0.3459  0.2998
  196DOPC    C124235   1.105   2.981  12.204 -0.5633 -0.3646 -0.2002
  196DOPC    HA24236   1.179   3.055  12.241 -0.9277  1.6524 -3.1876
  196DOPC    HB24237   1.174   2.907  12.157 -1.3111 -1.8131  0.8811
  196DOPC    C224238   1.032   2.912  12.330  0.0501 -0.7103  0.2895
  196DOPC    HS24239   0.970   2.825  12.298  1.3137 -1.2055 -0.9155
  196DOPC   O2124240   0.941   3.001  12.400  0.4639 -0.0420 -0.2325
  196DOPC   C2124241   0.828   2.952  12.453  0.7326  0.9011  0.7345
  196DOPC   O2224242   0.801   2.831  12.458  0.1781  0.0620 -0.2032
  196DOPC   C2224243   0.729   3.058  12.509 -0.4015 -0.6172  0.0314
  196DOPC   H2R24244   0.637   3.012  12.553  0.0133 -0.4489  1.1085
  196DOPC   H2S24245   0.706   3.122  12.422  0.9217  1.2048  0.9627
  196DOPC    C324246   1.144   2.869  12.428 -0.0674  0.4693 -0.5976
  196DOPC    HX24247   1.207   2.954  12.465  0.4242 -0.1088 -0.0817
  196DOPC    HY24248   1.205   2.797  12.370 -1.2940 -0.1493 -1.1547
  196DOPC   O3124249   1.084   2.807  12.550  0.0612  0.0806  0.6569
  196DOPC   C3124250   1.171   2.757  12.641 -0.0441 -0.7541 -0.3629
  196DOPC   O3224251   1.289   2.771  12.634 -0.2957 -0.4588  1.1663
  196DOPC   C3224252   1.091   2.690  12.749 -0.0911 -0.1289  0.0307
  196DOPC   H2X24253   0.984   2.705  12.723 -0.2791  0.6982  1.1895
  196DOPC   H2Y24254   1.112   2.581  12.757  0.9147  0.0436 -0.2008
  196DOPC   C2324255   0.784   3.157  12.621  0.0460 -0.6806  0.1338
  196DOPC   H3R24256   0.701   3.222  12.655  0.1711  0.2763 -1.2826
  196DOPC   H3S24257   0.864   3.224  12.583  0.5226 -0.7087  1.0801
  196DOPC   C2424258   0.842   3.075  12.740 -0.3829  0.0442  0.6522
  196DOPC   H4R24259   0.915   3.006  12.693 -0.0654  1.5832 -1.2537
  196DOPC   H4S24260   0.758   3.017  12.785 -0.8020 -1.0090 -1.3734
  196DOPC   C2524261   0.898   3.163  12.847  0.0577 -0.4425  0.2428
  196DOPC   H5R24262   0.825   3.242  12.877  1.4973  0.1630  2.3700
  196DOPC   H5S24263   0.985   3.219  12.804  1.3746 -1.5991  1.3006
  196DOPC   C2624264   0.935   3.082  12.977  0.4086 -0.3727  0.7147
  196DOPC   H6R24265   1.042   3.052  12.977  1.0967  1.7308  2.9457
  196DOPC   H6S24266   0.873   2.990  12.986  0.9116 -0.6860  1.0630
  196DOPC   C2724267   0.915   3.170  13.104 -0.4652 -0.2587 -0.8405
  196DOPC   H7R24268   0.817   3.222  13.094 -0.2270  0.0069 -1.8229
  196DOPC   H7S24269   0.999   3.243  13.106 -0.4850 -0.2364  0.8790
  196DOPC   C2824270   0.933   3.087  13.236 -0.4835 -0.7522 -0.6513
  196DOPC   H8R24271   0.951   3.155  13.321  2.1277 -0.1426 -1.5870
  196DOPC   H8S24272   1.030   3.035  13.216  0.1568 -0.4697  1.5318
  196DOPC   C2924273   0.826   2.989  13.262  0.8752 -0.4899 -0.1635
  196DOPC   H9R24274   0.829   2.906  13.190 -2.9549 -2.1421  1.3080
  196DOPC  C21024275   0.736   2.982  13.363 -1.1565 -0.0702 -0.0809
  196DOPC  H10R24276   0.663   2.900  13.365 -1.5616  0.2936  2.0463
  196DOPC  C21124277   0.729   3.073  13.479  0.2172  0.0724  0.0459
  196DOPC  H11R24278   0.787   3.167  13.479 -1.5054  1.1780  0.0419
  196DOPC  H11S24279   0.759   3.001  13.558 -0.0246  0.2480  0.3000
  196DOPC  C21224280   0.584   3.113  13.521  0.1759 -0.0600 -0.1398
  196DOPC  H12R24281   0.531   3.021  13.554  1.3711 -0.9608 -0.6425
  196DOPC  H12S24282   0.533   3.164  13.437 -1.7772 -0.4073  0.7818
  196DOPC  C21324283   0.577   3.215  13.641  0.1638  0.0536  0.0433
  196DOPC  H13R24284   0.470   3.234  13.663  0.3784 -0.6451  1.8647
  196DOPC  H13S24285   0.618   3.313  13.607 -0.0611  0.9435  2.1540
  196DOPC  C21424286   0.635   3.168  13.779  0.4384 -0.7634 -0.5898
  196DOPC  H14R24287   0.743   3.146  13.767 -0.1127 -3.2678 -1.7865
  196DOPC  H14S24288   0.586   3.072  13.807 -1.8463  0.2427 -0.9404
  196DOPC  C21524289   0.595   3.263  13.898  0.1254  0.2654 -1.2837
  196DOPC  H15R24290   0.505   3.316  13.859 -1.1830 -1.2679 -0.4448
  196DOPC  H15S24291   0.679   3.327  13.933  0.0963 -0.5574  0.3877
  196DOPC  C21624292   0.541   3.177  14.017 -0.0860  0.2003 -0.1064
  196DOPC  H16R24293   0.618   3.106  14.052  0.1712  1.1725  1.3959
  196DOPC  H16S24294   0.450   3.125  13.980  1.3504 -1.1424 -1.9279
  196DOPC  C21724295   0.493   3.267  14.135 -0.6030 -0.3899  0.5676
  196DOPC  H17R24296   0.408   3.329  14.101  0.1957  1.4321  1.7155
  196DOPC  H17S24297   0.579   3.325  14.175 -0.0818 -0.8801  0.1916
  196DOPC  C21824298   0.428   3.183  14.250 -0.1428  0.2335 -0.4601
  196DOPC  H18R24299   0.480   3.087  14.270  1.1840  0.6517 -1.6569
  196DOPC  H18S24300   0.329   3.148  14.213  0.4775 -1.3992 -0.6581
  196DOPC  H18T24301   0.403   3.245  14.339  1.6627  3.6909 -2.1352
  196DOPC   C3324302   1.103   2.776  12.878 -0.6712  0.0033  0.0077
  196DOPC   H3X24303   1.017   2.758  12.945  0.2681 -0.2271  1.1891
  196DOPC   H3Y24304   1.108   2.885  12.857 -2.3675 -0.2844 -2.2887
  196DOPC   C3424305   1.203   2.717  12.984  0.1761  0.1515  0.1907
  196DOPC   H4X24306   1.309   2.739  12.960 -0.0706  0.7738 -0.3779
  196DOPC   H4Y24307   1.184   2.608  12.995  1.2976  0.0870  1.7564
  196DOPC   C3524308   1.187   2.788  13.121 -0.4983  0.1174 -0.0690
  196DOPC   H5X24309   1.086   2.770  13.164 -0.1131  0.0719  0.8381
  196DOPC   H5Y24310   1.194   2.895  13.091  1.1596 -0.0765 -0.4686
  196DOPC   C3624311   1.305   2.773  13.214  0.3694 -0.5151 -0.9032
  196DOPC   H6X24312   1.389   2.829  13.166  2.9183 -3.6181 -0.3646
  196DOPC   H6Y24313   1.277   2.828  13.306  0.7092  2.6610 -2.5423
  196DOPC   C3724314   1.353   2.625  13.248  0.8662  0.6341  0.6667
  196DOPC   H7X24315   1.269   2.571  13.298 -0.3858  1.8485 -0.0435
  196DOPC   H7Y24316   1.379   2.584  13.148 -3.7065  1.5396 -1.1420
  196DOPC   C3824317   1.470   2.632  13.346  0.2041  0.1867 -0.0172
  196DOPC   H8X24318   1.467   2.532  13.396 -3.0005 -0.0758 -0.5159
  196DOPC   H8Y24319   1.448   2.701  13.430  2.3556  0.2370  0.5684
  196DOPC   C3924320   1.595   2.670  13.278 -0.1898 -0.0150  0.0702
  196DOPC   H9X24321   1.581   2.737  13.192  0.3651 -1.4585 -1.1930
  196DOPC  C31024322   1.723   2.632  13.307  0.2275  0.2118  0.9776
  196DOPC  H10X24323   1.803   2.657  13.236  0.1259  0.1783  0.8494
  196DOPC  C31124324   1.759   2.543  13.423  0.3396  0.3977  1.0200
  196DOPC  H11X24325   1.824   2.460  13.389  0.8438  2.0234 -2.3484
  196DOPC  H11Y24326   1.662   2.503  13.461 -1.0750  2.0690 -0.6103
  196DOPC  C31224327   1.824   2.604  13.555 -0.2207 -0.6364  1.1136
  196DOPC  H12X24328   1.909   2.671  13.532 -0.6190 -0.0323  1.3616
  196DOPC  H12Y24329   1.861   2.519  13.616 -0.9481 -0.3203  2.0310
  196DOPC  C31324330   1.735   2.702  13.625 -0.2832  0.2127 -0.2738
  196DOPC  H13X24331   1.715   2.781  13.549 -0.3982 -0.6518 -1.1468
  196DOPC  H13Y24332   1.641   2.649  13.651  0.2429 -0.9528 -0.6951
  196DOPC  C31424333   1.793   2.767  13.745 -0.5409 -0.1157 -0.3451
  196DOPC  H14X24334   1.817   2.697  13.828  0.1854 -3.6944 -3.2946
  196DOPC  H14Y24335   1.892   2.815  13.727  0.0626 -0.5676  1.5273
  196DOPC  C31524336   1.696   2.868  13.805 -0.0428 -0.3325  0.1753
  196DOPC  H15X24337   1.608   2.815  13.845 -0.0706 -2.0141 -1.9474
  196DOPC  H15Y24338   1.676   2.942  13.725  2.7481 -1.7128 -2.0186
  196DOPC  C31624339   1.764   2.937  13.922  0.2173  0.2573 -0.2955
  196DOPC  H16X24340   1.827   2.857  13.967 -1.7134 -1.4191 -0.4213
  196DOPC  H16Y24341   1.821   3.024  13.883  2.0219 -0.1253  1.3609
  196DOPC  C31724342   1.665   2.993  14.035  0.1248  0.4939  0.4767
  196DOPC  H17X24343   1.592   3.052  13.976 -2.2444 -1.4599  1.2902
  196DOPC  H17Y24344   1.617   2.901  14.074  0.8280 -0.7544 -1.4630
  196DOPC  C31824345   1.739   3.070  14.147 -0.1681 -0.4330  0.1200
  196DOPC  H18X24346   1.802   3.008  14.215  1.8544  0.4455 -0.8644
  196DOPC  H18Y24347   1.827   3.131  14.117  1.4228 -1.2165  2.7833
  196DOPC  H18Z24348   1.671   3.135  14.207 -0.2707 -1.3631  1.0567
  197DOPC     N24349   2.327   1.350  12.618  0.1670 -0.9859 -0.0275
  197DOPC   C1224350   2.358   1.289  12.745  0.6355 -0.1497  0.7565
  197DOPC  H12A24351   2.453   1.332  12.772  0.8726 -0.6293  0.6937
  197DOPC  H12B24352   2.383   1.185  12.730 -0.5495 -0.5086  1.1643
  197DOPC   C1324353   2.298   1.502  12.625  1.0071  0.6150  0.3076
  197DOPC  H13A24354   2.270   1.539  12.528 -0.2359 -0.3612  0.2740
  197DOPC  H13B24355   2.214   1.533  12.685  0.3879 -0.6491  0.1170
  197DOPC  H13C24356   2.388   1.556  12.652  1.8915 -0.4325 -0.4368
  197DOPC   C1424357   2.193   1.300  12.566  0.3142  0.3500 -0.0654
  197DOPC  H14A24358   2.168   1.336  12.467 -2.1600 -4.4073 -1.4806
  197DOPC  H14B24359   2.194   1.193  12.548 -1.1694  0.0972  1.2442
  197DOPC  H14C24360   2.114   1.315  12.637 -0.2315  1.0983 -0.8216
  197DOPC   C1524361   2.440   1.344  12.513  0.0910 -0.0056  0.6108
  197DOPC  H15A24362   2.413   1.401  12.425 -1.4723 -0.7786  0.5687
  197DOPC  H15B24363   2.442   1.243  12.476 -1.2029  0.6361 -1.3310
  197DOPC  H15C24364   2.537   1.363  12.558  0.1377  0.8106  0.1880
  197DOPC   C1124365   2.259   1.300  12.861  0.1336  0.4485 -0.1059
  197DOPC  H11A24366   2.314   1.262  12.950  0.7181 -1.2821 -1.1497
  197DOPC  H11B24367   2.236   1.408  12.855 -0.0154  0.3945 -0.5453
  197DOPC     P24368   2.016   1.272  12.876 -0.2002 -0.2682 -0.1526
  197DOPC   O1324369   1.924   1.155  12.894 -0.1777  0.8493  0.0085
  197DOPC   O1424370   1.977   1.367  12.771  0.1527  1.0135  0.5943
  197DOPC   O1224371   2.155   1.206  12.850 -0.3794 -0.3608 -0.3367
  197DOPC   O1124372   2.033   1.337  13.014 -0.1155 -0.1699  0.5398
  197DOPC    C124373   2.071   1.266  13.131 -0.3830  0.1530  0.6066
  197DOPC    HA24374   2.154   1.193  13.119 -1.0363 -1.0551  2.8399
  197DOPC    HB24375   1.987   1.210  13.177 -1.0382  0.6839  0.0831
  197DOPC    C224376   2.111   1.359  13.245  0.4642  0.4858 -0.0586
  197DOPC    HS24377   2.150   1.301  13.331  1.2893  2.2119  0.7927
  197DOPC   O2124378   1.995   1.437  13.274 -0.3276 -0.5051 -0.0770
  197DOPC   C2124379   1.972   1.463  13.397 -0.3768 -0.4325 -0.5814
  197DOPC   O2224380   2.028   1.416  13.494  0.2685  0.0912  0.0086
  197DOPC   C2224381   1.877   1.585  13.410  0.0205  0.0141  0.2981
  197DOPC   H2R24382   1.866   1.626  13.307  0.2482 -1.3070 -0.2704
  197DOPC   H2S24383   1.929   1.661  13.473 -0.7315 -0.5139  1.5898
  197DOPC    C324384   2.223   1.463  13.207  0.1578  0.6656  0.0299
  197DOPC    HX24385   2.172   1.536  13.140 -0.8644  1.3217  1.4553
  197DOPC    HY24386   2.299   1.399  13.158 -0.7750 -1.0191  0.7003
  197DOPC   O3124387   2.284   1.515  13.331 -0.2488  0.2157 -0.0894
  197DOPC   C3124388   2.259   1.635  13.356  0.4125 -0.7848 -0.4488
  197DOPC   O3224389   2.179   1.708  13.301 -0.1196 -0.5212  0.0529
  197DOPC   C3224390   2.330   1.683  13.480  0.0227 -0.4547 -0.5927
  197DOPC   H2X24391   2.326   1.793  13.466 -1.4192 -0.7349 -3.0828
  197DOPC   H2Y24392   2.273   1.648  13.569 -1.3411  3.0261  0.0488
  197DOPC   C2324393   1.747   1.569  13.485  0.5784  0.3989 -0.3341
  197DOPC   H3R24394   1.755   1.494  13.565  0.3087  1.0965  0.3614
  197DOPC   H3S24395   1.674   1.529  13.412  0.1020  2.0814 -0.8318
  197DOPC   C2424396   1.703   1.710  13.544  0.2223  0.2639  0.0403
  197DOPC   H4R24397   1.754   1.745  13.637 -2.1708 -0.7328  1.8208
  197DOPC   H4S24398   1.596   1.697  13.569 -0.4230  0.1388 -2.5615
  197DOPC   C2524399   1.697   1.830  13.449  0.2494 -0.7980 -0.2931
  197DOPC   H5R24400   1.661   1.798  13.348  0.4295 -0.5688 -0.4307
  197DOPC   H5S24401   1.804   1.861  13.443 -0.2403  1.6306  1.8633
  197DOPC   C2624402   1.635   1.958  13.503  0.4536  1.2509 -0.1851
  197DOPC   H6R24403   1.654   2.049  13.441 -0.2181 -0.7102 -3.5179
  197DOPC   H6S24404   1.688   1.975  13.599  1.2202 -0.1925 -0.3298
  197DOPC   C2724405   1.486   1.938  13.523 -0.4232  0.4451  0.4168
  197DOPC   H7R24406   1.468   1.850  13.588  1.7413 -0.1730  0.2720
  197DOPC   H7S24407   1.443   1.910  13.425 -0.3794  2.2086 -0.1512
  197DOPC   C2824408   1.417   2.058  13.588 -0.1545  0.4610  0.1159
  197DOPC   H8R24409   1.478   2.094  13.673 -1.8934 -1.3928  2.2673
  197DOPC   H8S24410   1.320   2.020  13.626 -0.3755 -1.0075 -1.7477
  197DOPC   C2924411   1.402   2.166  13.482 -0.0859  0.3326 -0.0165
  197DOPC   H9R24412   1.372   2.121  13.386  1.8269 -0.3001 -0.3549
  197DOPC  C21024413   1.408   2.299  13.504  0.2990  0.1696 -0.0913
  197DOPC  H10R24414   1.375   2.363  13.420  0.6038  0.8657  0.3128
  197DOPC  C21124415   1.450   2.369  13.631  0.0835  0.3773 -0.0506
  197DOPC  H11R24416   1.542   2.430  13.615  1.3567 -1.5145 -0.3654
  197DOPC  H11S24417   1.477   2.294  13.709  1.2199  0.3538 -0.4454
  197DOPC  C21224418   1.339   2.458  13.681  0.3521 -0.0569  0.1425
  197DOPC  H12R24419   1.249   2.394  13.690 -0.7973  1.6960  2.1119
  197DOPC  H12S24420   1.310   2.537  13.608 -2.2498 -0.3823  0.7161
  197DOPC  C21324421   1.357   2.537  13.811 -0.0858  0.6584 -0.5941
  197DOPC  H13R24422   1.277   2.609  13.838 -1.7648 -0.7593 -1.5768
  197DOPC  H13S24423   1.452   2.594  13.805  0.0917  0.5858  0.9545
  197DOPC  C21424424   1.368   2.453  13.936  0.1157  0.2310  0.1334
  197DOPC  H14R24425   1.425   2.360  13.917 -0.5890 -0.3144  0.6043
  197DOPC  H14S24426   1.269   2.409  13.963 -1.3517  2.5410 -1.1188
  197DOPC  C21524427   1.415   2.531  14.056 -0.3107  0.4427 -0.2351
  197DOPC  H15R24428   1.339   2.605  14.088 -0.1164 -0.3304  2.1624
  197DOPC  H15S24429   1.502   2.597  14.032 -1.0355  2.3338  2.0282
  197DOPC  C21624430   1.455   2.443  14.175 -0.1972  0.5819  0.0910
  197DOPC  H16R24431   1.549   2.391  14.145  0.1034  1.8805 -1.4101
  197DOPC  H16S24432   1.374   2.372  14.201  0.5223 -0.5784 -0.7718
  197DOPC  C21724433   1.487   2.532  14.291  0.0763 -0.0696 -0.0476
  197DOPC  H17R24434   1.391   2.576  14.326 -0.1643 -0.3243 -0.3764
  197DOPC  H17S24435   1.555   2.610  14.249  1.0235 -0.6369  0.4004
  197DOPC  C21824436   1.543   2.459  14.413 -0.8994  0.7514  0.4583
  197DOPC  H18R24437   1.636   2.403  14.386 -0.7553  1.4062 -0.4371
  197DOPC  H18S24438   1.470   2.383  14.449 -1.7063  1.7758  1.0103
  197DOPC  H18T24439   1.576   2.532  14.490 -0.2839 -0.5448  1.4654
  197DOPC   C3324440   2.481   1.642  13.480 -0.1966  0.4304 -0.1435
  197DOPC   H3X24441   2.538   1.694  13.400 -1.5031  0.3472 -1.1669
  197DOPC   H3Y24442   2.482   1.533  13.456 -0.7263  0.3292  0.2757
  197DOPC   C3424443   2.544   1.667  13.620  0.1471 -0.2620  0.1108
  197DOPC   H4X24444   2.496   1.614  13.706 -0.1985 -2.2608 -1.2445
  197DOPC   H4Y24445   2.542   1.775  13.647  0.3217 -0.4721  0.9901
  197DOPC   C3524446   2.688   1.624  13.631  0.5838 -0.5023 -0.1424
  197DOPC   H5X24447   2.686   1.513  13.627 -2.1530 -0.6138  1.5974
  197DOPC   H5Y24448   2.721   1.649  13.735 -3.8483  0.7954  1.1513
  197DOPC   C3624449   2.791   1.689  13.538 -0.1369 -0.0323  0.3595
  197DOPC   H6X24450   2.878   1.620  13.538 -0.8983 -1.0141  0.9347
  197DOPC   H6Y24451   2.741   1.677  13.440 -0.2269 -1.2902  0.5525
  197DOPC   C3724452   2.816   1.841  13.554 -0.8053 -0.1741  0.8073
  197DOPC   H7X24453   2.719   1.894  13.541 -0.1422  0.5034 -1.9199
  197DOPC   H7Y24454   2.859   1.868  13.653  0.1081  1.2833  0.0534
  197DOPC   C3824455   2.916   1.902  13.454 -0.1786 -0.4242 -0.0304
  197DOPC   H8X24456   2.898   2.011  13.443 -1.6463 -0.7146 -0.6776
  197DOPC   H8Y24457   2.889   1.876  13.349  0.1933  3.6656 -1.3246
  197DOPC   C3924458   3.064   1.882  13.483  0.3145 -0.0217  0.1474
  197DOPC   H9X24459   3.116   1.823  13.406  0.6087  1.1794 -0.6065
  197DOPC  C31024460   3.142   1.942  13.579  0.0387 -0.0401  0.2694
  197DOPC  H10X24461   3.242   1.902  13.602 -1.2964 -2.1240  3.0322
  197DOPC  C31124462   3.092   2.033  13.692  0.4323 -0.4341  0.5238
  197DOPC  H11X24463   2.989   2.068  13.667  0.5873 -1.1738 -1.3495
  197DOPC  H11Y24464   3.141   2.133  13.692 -1.3810  0.5875 -1.8177
  197DOPC  C31224465   3.093   1.967  13.830  0.9881  0.5719  0.1440
  197DOPC  H12X24466   3.197   1.946  13.864  0.5688 -2.6638 -0.2210
  197DOPC  H12Y24467   3.037   1.872  13.818  1.4607  0.4626 -1.5023
  197DOPC  C31324468   3.018   2.059  13.925  0.2938  0.5446  0.3985
  197DOPC  H13X24469   3.033   2.011  14.024  0.4896  1.0603  0.6223
  197DOPC  H13Y24470   3.056   2.163  13.920 -1.3960  1.2113  0.6703
  197DOPC  C31424471   2.866   2.064  13.913 -0.6736  0.1603  0.3965
  197DOPC  H14X24472   2.826   2.153  13.965 -0.8007 -0.8370  2.0778
  197DOPC  H14Y24473   2.852   2.079  13.803  0.8449  0.4610  0.2251
  197DOPC  C31524474   2.800   1.947  13.974 -0.3466  0.1343  0.2489
  197DOPC  H15X24475   2.794   1.964  14.084 -3.1027  0.1836  0.1673
  197DOPC  H15Y24476   2.842   1.846  13.956  0.3269  0.7887 -2.1051
  197DOPC  C31624477   2.648   1.918  13.941  0.2642 -0.7242  0.4113
  197DOPC  H16X24478   2.589   2.008  13.972 -0.7108 -0.9650 -0.6560
  197DOPC  H16Y24479   2.640   1.918  13.830 -0.6061  3.4928  0.2874
  197DOPC  C31724480   2.595   1.784  14.008  0.2682 -0.0650  0.0581
  197DOPC  H17X24481   2.639   1.692  13.964  1.0015  0.3775 -0.1436
  197DOPC  H17Y24482   2.630   1.782  14.114 -0.9135  0.3356  0.4811
  197DOPC  C31824483   2.445   1.780  14.006  0.0322  0.1890  0.0986
  197DOPC  H18X24484   2.415   1.682  14.049 -0.0096 -1.1797 -2.8322
  197DOPC  H18Y24485   2.402   1.863  14.067  1.7287 -0.2800  2.0348
  197DOPC  H18Z24486   2.400   1.784  13.905 -2.6800 -1.2449  1.1498
  198DOPC     N24487   6.984   0.963  12.486  1.0562  0.7682 -0.0178
  198DOPC   C1224488   6.966   0.860  12.376 -0.4613 -0.5991  0.0383
  198DOPC  H12A24489   7.030   0.895  12.297 -0.0891 -0.6865  0.2992
  198DOPC  H12B24490   6.863   0.864  12.345 -1.5221  0.4067  3.3125
  198DOPC   C1324491   6.893   0.932  12.608  0.4238 -0.5332  0.2980
  198DOPC  H13A24492   6.900   0.827  12.632 -2.3633 -1.0993 -0.9213
  198DOPC  H13B24493   6.925   0.996  12.689 -0.4131  2.7443 -1.7705
  198DOPC  H13C24494   6.789   0.945  12.582  0.7029 -1.4271 -1.4389
  198DOPC   C1424495   6.946   1.099  12.439 -0.4481  0.0844 -0.3131
  198DOPC  H14A24496   6.844   1.121  12.410 -0.3233  1.1568  0.0032
  198DOPC  H14B24497   6.966   1.180  12.507 -1.2893  2.2507 -2.5054
  198DOPC  H14C24498   7.011   1.124  12.357  1.9307 -2.7724  0.5071
  198DOPC   C1524499   7.127   0.953  12.529  0.7060 -0.4718  0.2559
  198DOPC  H15A24500   7.167   0.855  12.551  0.4083 -0.9023 -1.0440
  198DOPC  H15B24501   7.138   1.008  12.621  0.4305  2.5445 -1.3914
  198DOPC  H15C24502   7.197   0.991  12.457 -1.5337 -0.5684 -2.1068
  198DOPC   C1124503   6.997   0.716  12.418 -0.2630 -0.5763  0.2687
  198DOPC  H11A24504   7.012   0.671  12.318  1.5078  0.6135 -0.0454
  198DOPC  H11B24505   7.095   0.695  12.465  0.5238 -0.4374 -1.2568
  198DOPC     P24506   6.869   0.509  12.517  0.0201  0.0606 -0.0904
  198DOPC   O1324507   6.889   0.451  12.382  0.1571 -0.3169 -0.4113
  198DOPC   O1424508   6.739   0.484  12.579  0.0462  0.0876 -0.1371
  198DOPC   O1224509   6.885   0.664  12.498 -0.3543 -0.0885  0.7518
  198DOPC   O1124510   6.987   0.467  12.612  0.0256 -0.7671  0.2602
  198DOPC    C124511   6.968   0.415  12.740  0.7284 -0.5911 -0.9937
  198DOPC    HA24512   6.874   0.356  12.738 -0.2121  0.7229  0.8646
  198DOPC    HB24513   6.951   0.493  12.818 -0.2810 -0.7118 -1.0775
  198DOPC    C224514   7.083   0.332  12.807  0.4171 -0.0992 -0.0040
  198DOPC    HS24515   7.036   0.259  12.877 -1.0650  1.1900  0.3963
  198DOPC   O2124516   7.186   0.402  12.878  0.4369 -0.0525 -0.3431
  198DOPC   C2124517   7.138   0.444  12.997 -0.9175 -0.2638  0.3670
  198DOPC   O2224518   7.030   0.416  13.039 -0.3687  0.0182 -0.3924
  198DOPC   C2224519   7.253   0.528  13.062 -0.1843 -0.2042 -0.0836
  198DOPC   H2R24520   7.286   0.606  12.991 -0.8565 -0.3863 -0.5988
  198DOPC   H2S24521   7.345   0.469  13.085 -0.8535 -0.9278  0.8168
  198DOPC    C324522   7.152   0.248  12.704 -0.2918  0.0802  0.0571
  198DOPC    HX24523   7.216   0.301  12.630 -1.9816  0.7566 -0.9872
  198DOPC    HY24524   7.070   0.205  12.643  2.2872 -1.8560 -2.2913
  198DOPC   O3124525   7.228   0.153  12.781 -0.4807  0.4940 -0.0451
  198DOPC   C3124526   7.177   0.029  12.806 -0.0443 -0.4192  0.1228
  198DOPC   O3224527   7.074  -0.009  12.745  0.1280 -0.0082 -0.0653
  198DOPC   C3224528   7.247  -0.048  12.917 -0.0963  0.7557 -0.8154
  198DOPC   H2X24529   7.228  -0.155  12.893  0.7539 -0.3585  2.7898
  198DOPC   H2Y24530   7.357  -0.037  12.913 -0.1995  2.5145  0.1591
  198DOPC   C2324531   7.210   0.582  13.200 -0.9363  0.3214 -0.6471
  198DOPC   H3R24532   7.117   0.642  13.190 -1.5264 -0.3153  0.8205
  198DOPC   H3S24533   7.291   0.641  13.247 -1.1771 -0.4797  0.8265
  198DOPC   C2424534   7.194   0.474  13.312  0.7032  0.5067 -0.2328
  198DOPC   H4R24535   7.260   0.389  13.282  1.2274  0.8099  0.0360
  198DOPC   H4S24536   7.088   0.442  13.313  1.6260 -2.8828  0.2475
  198DOPC   C2524537   7.233   0.512  13.457 -0.4872 -0.6938 -0.1080
  198DOPC   H5R24538   7.281   0.612  13.448  0.8090 -1.1810  1.1586
  198DOPC   H5S24539   7.320   0.447  13.480  0.5347  0.4705 -0.5250
  198DOPC   C2624540   7.126   0.520  13.568 -0.4252 -0.0605  0.0636
  198DOPC   H6R24541   7.060   0.433  13.550 -0.9156  0.0128  1.3758
  198DOPC   H6S24542   7.068   0.614  13.560  1.5878  1.1638 -1.0594
  198DOPC   C2724543   7.184   0.503  13.709  0.0064  0.0880 -0.8311
  198DOPC   H7R24544   7.254   0.587  13.731  0.8575 -0.8469  0.1662
  198DOPC   H7S24545   7.234   0.405  13.706  0.5847  0.3940 -1.4492
  198DOPC   C2824546   7.063   0.498  13.813 -0.5248  0.0844 -0.4879
  198DOPC   H8R24547   7.112   0.469  13.909  0.0457 -0.5136 -0.9485
  198DOPC   H8S24548   7.006   0.409  13.779 -1.4571 -0.1461  1.5283
  198DOPC   C2924549   6.965   0.612  13.832  0.3227  0.3852  0.8106
  198DOPC   H9R24550   6.896   0.625  13.747  1.9602 -0.0479 -0.6531
  198DOPC  C21024551   6.955   0.683  13.941  0.3473 -0.2873 -0.4839
  198DOPC  H10R24552   6.886   0.769  13.940  1.2955  0.5417 -3.2563
  198DOPC  C21124553   7.031   0.674  14.073 -0.2912 -0.1496  0.2139
  198DOPC  H11R24554   7.086   0.770  14.087 -0.4095 -0.3660  2.6100
  198DOPC  H11S24555   7.102   0.588  14.066  0.0279  0.1226  0.0650
  198DOPC  C21224556   6.946   0.649  14.196 -0.1298  0.4303  0.6254
  198DOPC  H12R24557   6.876   0.566  14.173  1.1215 -1.0448  1.8848
  198DOPC  H12S24558   6.883   0.738  14.219  0.2338  0.1873  2.7460
  198DOPC  C21324559   7.022   0.597  14.322 -0.3950 -0.0549  0.0025
  198DOPC  H13R24560   7.068   0.500  14.291  1.4240  0.2831  1.4345
  198DOPC  H13S24561   6.943   0.581  14.399 -0.9962 -0.0210 -0.5996
  198DOPC  C21424562   7.117   0.700  14.388  0.3948 -0.0128  0.1192
  198DOPC  H14R24563   7.061   0.794  14.401 -0.5430 -0.5925  0.3683
  198DOPC  H14S24564   7.191   0.728  14.310 -0.1627 -3.2348 -1.7733
  198DOPC  C21524565   7.189   0.659  14.517 -0.1680 -0.1983 -0.1565
  198DOPC  H15R24566   7.232   0.560  14.490 -0.9304 -1.0296  1.5446
  198DOPC  H15S24567   7.126   0.639  14.606 -0.8994 -1.1140 -0.8510
  198DOPC  C21624568   7.293   0.763  14.551  0.2844  0.6896  0.0007
  198DOPC  H16R24569   7.251   0.864  14.572 -0.8680  0.3716 -0.6962
  198DOPC  H16S24570   7.354   0.800  14.466 -0.6965  0.3288 -0.8768
  198DOPC  C21724571   7.383   0.719  14.665 -0.1254 -0.1118 -0.0239
  198DOPC  H17R24572   7.453   0.634  14.645  0.7192  0.3136  1.0264
  198DOPC  H17S24573   7.318   0.694  14.751  0.6553  1.6841  1.1187
  198DOPC  C21824574   7.473   0.833  14.721  0.1035  0.1034  0.5359
  198DOPC  H18R24575   7.537   0.871  14.639 -1.2666  1.2237 -0.0450
  198DOPC  H18S24576   7.540   0.805  14.805  1.2217  0.7472 -0.1123
  198DOPC  H18T24577   7.416   0.919  14.761 -2.2230 -1.2272  0.2737
  198DOPC   C3324578   7.187  -0.009  13.062 -0.5662  0.0047  0.7734
  198DOPC   H3X24579   7.199  -0.090  13.136 -1.6199 -0.8893  0.0037
  198DOPC   H3Y24580   7.078   0.008  13.056 -0.1081  3.2894 -0.5724
  198DOPC   C3424581   7.247   0.116  13.127 -0.1972  0.3328  0.0709
  198DOPC   H4X24582   7.175   0.151  13.204  0.9423 -1.2014  1.9326
  198DOPC   H4Y24583   7.266   0.194  13.051  0.2109 -0.4452 -0.6500
  198DOPC   C3524584   7.368   0.088  13.220 -0.2196  0.9859 -0.2810
  198DOPC   H5X24585   7.435   0.176  13.225  0.8587  0.1366  0.8093
  198DOPC   H5Y24586   7.432   0.002  13.188 -0.1945  1.6353 -2.1180
  198DOPC   C3624587   7.332   0.058  13.366  0.1152 -0.1501  0.9275
  198DOPC   H6X24588   7.282   0.143  13.418  1.0114  0.6633  0.4986
  198DOPC   H6Y24589   7.262  -0.028  13.374 -1.4375  0.9456 -0.3232
  198DOPC   C3724590   7.447   0.030  13.462 -0.9448  0.4771  0.2982
  198DOPC   H7X24591   7.484  -0.072  13.437 -0.6308  0.2179  1.7753
  198DOPC   H7Y24592   7.533   0.099  13.468 -0.6704  0.0915  0.7872
  198DOPC   C3824593   7.400   0.020  13.613  0.3673  0.5900 -0.5591
  198DOPC   H8X24594   7.327   0.104  13.618 -1.1812 -0.4886 -3.2318
  198DOPC   H8Y24595   7.486   0.044  13.680 -0.9348  2.1324  0.6495
  198DOPC   C3924596   7.321  -0.105  13.647 -0.4790  0.7649 -0.0103
  198DOPC   H9X24597   7.348  -0.187  13.580 -2.3835 -0.1578  0.2777
  198DOPC  C31024598   7.221  -0.122  13.731  0.1912 -0.5645  0.1535
  198DOPC  H10X24599   7.177  -0.223  13.738 -0.7591 -0.4877 -2.9451
  198DOPC  C31124600   7.158  -0.026  13.831  0.2925  0.0857 -0.1971
  198DOPC  H11X24601   7.047  -0.029  13.834  0.2130  1.8543 -0.5388
  198DOPC  H11Y24602   7.192   0.077  13.809 -0.1057  0.8265  2.3642
  198DOPC  C31224603   7.207  -0.058  13.974  0.4710 -0.1980 -0.4879
  198DOPC  H12X24604   7.318  -0.056  13.981  0.7195 -0.8625 -3.1097
  198DOPC  H12Y24605   7.196  -0.165  14.004 -1.6180  0.1119 -0.0124
  198DOPC  C31324606   7.151   0.051  14.073 -0.0828  0.3139 -0.1329
  198DOPC  H13X24607   7.172   0.150  14.027 -0.7008  1.4371  1.9138
  198DOPC  H13Y24608   7.041   0.038  14.073 -0.1981  1.2235 -0.4901
  198DOPC  C31424609   7.216   0.041  14.208 -0.0086 -0.2773 -0.3927
  198DOPC  H14X24610   7.207  -0.061  14.251  2.9249  0.4059  2.2234
  198DOPC  H14Y24611   7.325   0.054  14.191  0.2651 -1.6763  0.2014
  198DOPC  C31524612   7.178   0.143  14.318  1.1210 -0.2873  0.1994
  198DOPC  H15X24613   7.068   0.144  14.333  1.1045  0.7497  0.0904
  198DOPC  H15Y24614   7.196   0.244  14.276  1.4727 -0.2053  0.5450
  198DOPC  C31624615   7.257   0.117  14.447 -0.3132 -0.3010 -0.6667
  198DOPC  H16X24616   7.248   0.015  14.488  1.7440  0.5244  2.1360
  198DOPC  H16Y24617   7.366   0.134  14.437 -0.1844 -0.5580  0.2957
  198DOPC  C31724618   7.213   0.214  14.557  0.7170  0.3028  0.7421
  198DOPC  H17X24619   7.221   0.321  14.529  1.2966  0.3452  1.0292
  198DOPC  H17Y24620   7.108   0.184  14.579  0.6542 -0.0401  0.0013
  198DOPC  C31824621   7.304   0.207  14.685  0.5608 -0.2376  0.6436
  198DOPC  H18X24622   7.311   0.100  14.714 -1.0464 -0.2908  0.9431
  198DOPC  H18Y24623   7.406   0.247  14.669  1.9400 -3.1667  1.4685
  198DOPC  H18Z24624   7.249   0.260  14.766 -0.2582 -1.0199  0.6220
  199DOPC     N24625   6.733   1.650  12.169 -0.7603  0.2676  0.0135
  199DOPC   C1224626   6.718   1.659  12.316 -0.6321  0.0908 -0.1261
  199DOPC  H12A24627   6.725   1.758  12.360  2.1746 -0.2589  0.4337
  199DOPC  H12B24628   6.803   1.610  12.362 -0.5629  1.0999  0.8601
  199DOPC   C1324629   6.719   1.504  12.133 -0.4343 -0.3791  0.8857
  199DOPC  H13A24630   6.628   1.467  12.178  0.1116 -2.8851  0.0664
  199DOPC  H13B24631   6.708   1.480  12.029 -2.1281 -0.1242  0.9702
  199DOPC  H13C24632   6.796   1.443  12.178 -1.6734 -1.8633  1.0734
  199DOPC   C1424633   6.863   1.692  12.111 -0.1770  0.3214 -0.1695
  199DOPC  H14A24634   6.952   1.642  12.148 -0.8920  0.3755  1.7011
  199DOPC  H14B24635   6.859   1.672  12.005 -0.4362  1.2291 -0.3384
  199DOPC  H14C24636   6.887   1.796  12.123  1.0388  0.1569 -0.9984
  199DOPC   C1524637   6.619   1.724  12.097  0.4897 -0.2424  1.1930
  199DOPC  H15A24638   6.518   1.693  12.120  0.5336 -1.9553 -0.6281
  199DOPC  H15B24639   6.638   1.705  11.992  2.2668  0.4856  1.3617
  199DOPC  H15C24640   6.621   1.831  12.108  0.7337 -0.0147 -0.6956
  199DOPC   C1124641   6.587   1.610  12.387  0.4175 -0.1942  0.4255
  199DOPC  H11A24642   6.576   1.654  12.488 -1.3794  0.3348  0.0277
  199DOPC  H11B24643   6.493   1.649  12.343  0.9840  2.4633  1.4179
  199DOPC     P24644   6.676   1.391  12.487 -0.1016 -0.2557 -0.2647
  199DOPC   O1324645   6.810   1.450  12.476 -0.6529 -0.1300  0.2124
  199DOPC   O1424646   6.660   1.243  12.466  0.0607  0.5820 -0.0960
  199DOPC   O1224647   6.585   1.467  12.395 -0.4250 -0.1790  0.3694
  199DOPC   O1124648   6.612   1.424  12.625 -0.2552  0.2836  0.1045
  199DOPC    C124649   6.470   1.409  12.645 -0.4245  0.4384  0.4389
  199DOPC    HA24650   6.432   1.317  12.596  0.7086  0.3651 -0.3471
  199DOPC    HB24651   6.408   1.491  12.604  2.7872  1.7844 -2.0844
  199DOPC    C224652   6.446   1.417  12.800 -0.0750  0.2430 -0.4923
  199DOPC    HS24653   6.337   1.434  12.815 -0.2869 -0.8458 -0.6797
  199DOPC   O2124654   6.533   1.513  12.864 -0.4934  0.3750  0.6810
  199DOPC   C2124655   6.523   1.633  12.829  0.2648 -0.0657  0.4620
  199DOPC   O2224656   6.445   1.686  12.756 -0.3504  0.0250  0.9546
  199DOPC   C2224657   6.625   1.717  12.912  0.2206 -0.8134  0.0875
  199DOPC   H2R24658   6.727   1.717  12.868  0.8419  0.1366  1.4792
  199DOPC   H2S24659   6.642   1.664  13.008  0.2294  1.5848  1.4775
  199DOPC    C324660   6.488   1.276  12.849 -0.2950 -0.2331  0.2673
  199DOPC    HX24661   6.598   1.285  12.842 -0.5174  5.4218 -0.6735
  199DOPC    HY24662   6.449   1.199  12.779 -0.9710 -0.2929  0.7000
  199DOPC   O3124663   6.434   1.246  12.972 -0.5077  0.3341 -0.4066
  199DOPC   C3124664   6.512   1.192  13.071 -0.3520  0.3320  0.5263
  199DOPC   O3224665   6.635   1.183  13.069 -0.4060 -1.0058  0.2868
  199DOPC   C3224666   6.436   1.167  13.200 -0.3731 -0.5850  0.9501
  199DOPC   H2X24667   6.485   1.077  13.245  1.3686  0.4996  1.3015
  199DOPC   H2Y24668   6.450   1.254  13.268 -0.4133  1.5243 -1.5992
  199DOPC   C2324669   6.603   1.868  12.941 -0.0632 -0.0528  0.0246
  199DOPC   H3R24670   6.501   1.879  12.984 -0.6951 -1.8384 -0.9286
  199DOPC   H3S24671   6.614   1.921  12.843  0.4647  0.7597  0.5172
  199DOPC   C2424672   6.712   1.932  13.033  0.0793 -0.2359 -0.5539
  199DOPC   H4R24673   6.807   1.936  12.975 -0.1498 -0.1984 -0.9308
  199DOPC   H4S24674   6.729   1.857  13.114 -0.2232 -0.4849 -0.7170
  199DOPC   C2524675   6.675   2.067  13.071  0.0829 -0.8301  0.2535
  199DOPC   H5R24676   6.634   2.121  12.984 -0.1936 -1.9717 -0.3388
  199DOPC   H5S24677   6.766   2.121  13.105  0.0851 -0.2296 -0.6870
  199DOPC   C2624678   6.581   2.078  13.193  0.2794  0.3012 -0.1222
  199DOPC   H6R24679   6.492   2.021  13.160  0.2546  0.3074 -0.0657
  199DOPC   H6S24680   6.555   2.185  13.211 -0.1463  0.0498  0.8163
  199DOPC   C2724681   6.644   2.014  13.318 -0.0727 -0.1759 -0.4399
  199DOPC   H7R24682   6.746   2.055  13.335  1.3423 -2.5027 -2.5982
  199DOPC   H7S24683   6.661   1.907  13.296  0.9562 -0.1148  0.0114
  199DOPC   C2824684   6.569   2.030  13.453  0.4625 -0.5017 -0.3909
  199DOPC   H8R24685   6.491   1.952  13.444  1.0276 -0.9833 -1.1591
  199DOPC   H8S24686   6.511   2.125  13.458 -0.1683 -0.9142  0.4290
  199DOPC   C2924687   6.666   2.000  13.567  0.4469 -0.9367 -0.1951
  199DOPC   H9R24688   6.771   2.029  13.554  0.9692 -2.9758 -0.7620
  199DOPC  C21024689   6.634   1.944  13.689 -0.3123  0.7749 -0.0914
  199DOPC  H10R24690   6.714   1.929  13.762  0.6329  0.9268 -1.0584
  199DOPC  C21124691   6.498   1.902  13.739  0.2636  0.4988  0.7754
  199DOPC  H11R24692   6.435   1.888  13.649  0.2994 -0.2530  0.8591
  199DOPC  H11S24693   6.455   1.989  13.794 -2.4899  0.9698 -1.8851
  199DOPC  C21224694   6.495   1.776  13.824 -0.2517 -0.0273 -0.0879
  199DOPC  H12R24695   6.390   1.753  13.853  0.1382 -0.3791  1.1273
  199DOPC  H12S24696   6.545   1.791  13.922  3.8243 -0.5285 -1.8831
  199DOPC  C21324697   6.567   1.651  13.769 -0.2858 -0.0275  0.2887
  199DOPC  H13R24698   6.663   1.678  13.720  0.3927 -0.8029  1.1770
  199DOPC  H13S24699   6.508   1.618  13.681 -0.6858  1.0317  0.1355
  199DOPC  C21424700   6.575   1.527  13.859 -0.3720  0.0079  0.8848
  199DOPC  H14R24701   6.644   1.553  13.942 -0.7905 -1.1845  1.6234
  199DOPC  H14S24702   6.627   1.446  13.804 -2.0480  0.7838 -2.0886
  199DOPC  C21524703   6.441   1.484  13.919 -0.2733 -0.6337 -0.4582
  199DOPC  H15R24704   6.362   1.477  13.841 -0.0170 -1.1374 -0.6762
  199DOPC  H15S24705   6.408   1.554  13.999  0.4430 -3.0929  2.1384
  199DOPC  C21624706   6.454   1.353  13.998 -0.2646 -0.5032  0.5409
  199DOPC  H16R24707   6.537   1.367  14.070 -0.5960 -1.2546  1.0794
  199DOPC  H16S24708   6.480   1.264  13.936  2.6453  0.5842  0.0397
  199DOPC  C21724709   6.322   1.326  14.075  0.7828 -0.0993 -0.7836
  199DOPC  H17R24710   6.246   1.297  14.000 -0.7865 -1.1707  1.1322
  199DOPC  H17S24711   6.276   1.418  14.116 -0.4642 -0.7794 -0.6117
  199DOPC  C21824712   6.326   1.218  14.178  0.0903 -0.7545  0.6186
  199DOPC  H18R24713   6.416   1.225  14.244 -0.4562  1.3809  1.2406
  199DOPC  H18S24714   6.325   1.116  14.135 -0.5952  0.0290 -1.3361
  199DOPC  H18T24715   6.231   1.212  14.235 -0.3363  0.2541  0.0529
  199DOPC   C3324716   6.285   1.132  13.178 -0.5430  0.2247  0.3999
  199DOPC   H3X24717   6.260   1.063  13.095 -0.9634  0.5718  0.2347
  199DOPC   H3Y24718   6.237   1.228  13.150 -0.9363  0.0785  0.5652
  199DOPC   C3424719   6.214   1.077  13.300 -0.7373  0.6393 -0.2689
  199DOPC   H4X24720   6.270   0.988  13.337  0.6279  1.7383  0.4337
  199DOPC   H4Y24721   6.108   1.060  13.272 -0.3015 -0.4665 -1.3583
  199DOPC   C3524722   6.227   1.176  13.425 -0.3121 -0.5779 -0.3795
  199DOPC   H5X24723   6.172   1.268  13.394  0.3683 -0.2422 -0.6128
  199DOPC   H5Y24724   6.329   1.210  13.451 -0.8443  0.4976  0.4088
  199DOPC   C3624725   6.154   1.118  13.550 -0.5169  0.4008  0.3268
  199DOPC   H6X24726   6.062   1.075  13.505 -0.2180 -0.1690  0.2549
  199DOPC   H6Y24727   6.212   1.038  13.600 -1.7569 -0.7491 -0.0320
  199DOPC   C3724728   6.134   1.225  13.665  0.1996 -0.2139  0.0817
  199DOPC   H7X24729   6.183   1.180  13.753  0.3096  2.1045  1.2942
  199DOPC   H7Y24730   6.183   1.318  13.628  0.3878 -0.9029 -1.5098
  199DOPC   C3824731   5.982   1.249  13.689  0.2277 -0.2070 -0.1329
  199DOPC   H8X24732   5.954   1.285  13.588 -0.8587 -0.8355 -0.0666
  199DOPC   H8Y24733   5.971   1.333  13.761  0.5958  0.5727 -0.9666
  199DOPC   C3924734   5.896   1.147  13.756  0.3322 -0.0494 -0.2339
  199DOPC   H9X24735   5.953   1.090  13.831  0.3320 -0.8942 -0.8520
  199DOPC  C31024736   5.776   1.100  13.723 -0.3096  0.0943 -0.0807
  199DOPC  H10X24737   5.733   1.015  13.777  0.7767 -0.6769 -0.3882
  199DOPC  C31124738   5.693   1.173  13.622  0.4770  0.1676  0.4016
  199DOPC  H11X24739   5.753   1.223  13.543  1.8291  1.5095  2.1976
  199DOPC  H11Y24740   5.635   1.251  13.676 -1.0622  0.6470 -1.7965
  199DOPC  C31224741   5.582   1.086  13.550  0.5628 -0.5135 -0.0309
  199DOPC  H12X24742   5.634   0.996  13.511  1.9648  0.4793 -0.5401
  199DOPC  H12Y24743   5.541   1.144  13.464  1.6761 -1.0263 -0.9332
  199DOPC  C31324744   5.458   1.048  13.635 -0.2374  0.0225 -1.2328
  199DOPC  H13X24745   5.421   0.964  13.572  1.7562 -0.9291 -1.2181
  199DOPC  H13Y24746   5.478   1.003  13.735 -2.2689  1.0104 -0.3294
  199DOPC  C31424747   5.353   1.162  13.649  0.1988 -0.4879 -0.3324
  199DOPC  H14X24748   5.401   1.244  13.707 -1.5934  0.4834 -0.1664
  199DOPC  H14Y24749   5.329   1.209  13.552 -0.1263  3.0113  1.2839
  199DOPC  C31524750   5.219   1.128  13.724 -0.5049  0.1513 -0.5162
  199DOPC  H15X24751   5.233   1.101  13.831 -0.3197  0.4524 -0.4637
  199DOPC  H15Y24752   5.190   1.031  13.679  0.4480 -0.3982  0.0215
  199DOPC  C31624753   5.111   1.242  13.715  0.3746  0.1921 -0.3298
  199DOPC  H16X24754   5.143   1.318  13.789  1.9382 -0.7797  0.0387
  199DOPC  H16Y24755   5.117   1.289  13.615 -0.4628  1.1843  0.0686
  199DOPC  C31724756   4.972   1.196  13.749  0.2548  0.5198 -0.5697
  199DOPC  H17X24757   4.921   1.168  13.654  0.6533  0.7168 -0.8466
  199DOPC  H17Y24758   4.990   1.100  13.803 -0.5492  0.0062 -1.1817
  199DOPC  C31824759   4.894   1.288  13.846  0.2364 -0.0122 -0.1146
  199DOPC  H18X24760   4.887   1.394  13.814 -2.4190  0.8973  2.9336
  199DOPC  H18Y24761   4.794   1.246  13.872 -0.4734  1.7540  0.1893
  199DOPC  H18Z24762   4.946   1.292  13.945  0.1480 -0.1652 -0.0619
  200DOPC     N24763   0.350   1.650  12.402 -0.0005  0.1306 -0.0227
  200DOPC   C1224764   0.403   1.785  12.431 -0.4645  0.0005  0.4380
  200DOPC  H12A24765   0.445   1.787  12.531  0.7941  2.2431 -0.0647
  200DOPC  H12B24766   0.318   1.851  12.433 -1.1854 -0.8611 -0.6262
  200DOPC   C1324767   0.447   1.539  12.407 -0.6954  0.7380  0.1157
  200DOPC  H13A24768   0.525   1.559  12.335 -1.8247 -0.9699 -1.6896
  200DOPC  H13B24769   0.498   1.533  12.502 -1.7270 -2.6912  0.5892
  200DOPC  H13C24770   0.397   1.445  12.390 -2.5383  1.5078  1.0652
  200DOPC   C1424771   0.271   1.647  12.275  0.2742  0.6234  0.2094
  200DOPC  H14A24772   0.336   1.658  12.189  1.1991 -1.0209  0.6476
  200DOPC  H14B24773   0.219   1.553  12.269  1.3509  0.1035 -2.2278
  200DOPC  H14C24774   0.191   1.719  12.279 -0.0974  0.2590 -0.5465
  200DOPC   C1524775   0.255   1.618  12.510  0.7008  0.4744 -0.3521
  200DOPC  H15A24776   0.297   1.632  12.608 -0.2905  0.9007  0.0181
  200DOPC  H15B24777   0.222   1.516  12.502  0.1250  0.5366  0.9842
  200DOPC  H15C24778   0.165   1.677  12.510  0.4525  0.0989 -0.3053
  200DOPC   C1124779   0.519   1.844  12.340  0.6234 -0.0231 -0.6266
  200DOPC  H11A24780   0.492   1.853  12.233  2.4904 -1.3891 -1.2585
  200DOPC  H11B24781   0.535   1.949  12.374 -0.4113 -1.0028  3.4440
  200DOPC     P24782   0.735   1.770  12.462 -0.1542 -0.5844 -0.3911
  200DOPC   O1324783   0.844   1.862  12.416  0.2054 -0.0067  0.2849
  200DOPC   O1424784   0.782   1.639  12.502  0.0529 -0.3122 -0.9385
  200DOPC   O1224785   0.636   1.764  12.339 -0.0523 -0.3385 -0.4496
  200DOPC   O1124786   0.646   1.834  12.575  0.3020 -0.3912  0.0975
  200DOPC    C124787   0.703   1.929  12.660  0.3378 -0.5486  0.6007
  200DOPC    HA24788   0.621   2.002  12.674  0.9198  0.2015  0.1997
  200DOPC    HB24789   0.784   1.989  12.613 -0.4048 -0.5021 -0.6502
  200DOPC    C224790   0.754   1.870  12.791  0.4048  0.6792 -0.1844
  200DOPC    HS24791   0.858   1.841  12.767 -0.0492 -2.7565  1.4269
  200DOPC   O2124792   0.680   1.753  12.826 -0.0171  0.0664  0.4002
  200DOPC   C2124793   0.736   1.668  12.908 -0.5361  0.0894 -0.0652
  200DOPC   O2224794   0.852   1.675  12.938 -0.1203  0.1324  0.1985
  200DOPC   C2224795   0.641   1.567  12.976 -0.2010 -0.3720 -0.0114
  200DOPC   H2R24796   0.664   1.466  12.935  1.7100 -1.7072  3.8277
  200DOPC   H2S24797   0.536   1.582  12.942 -1.6456 -2.2551  3.0917
  200DOPC    C324798   0.751   1.961  12.909 -0.1514 -0.4447 -0.9327
  200DOPC    HX24799   0.806   1.909  12.990  0.1054  0.8164 -0.2693
  200DOPC    HY24800   0.644   1.977  12.934 -0.7596 -0.4471 -3.3480
  200DOPC   O3124801   0.830   2.078  12.876  0.1236 -0.3482  0.3021
  200DOPC   C3124802   0.801   2.185  12.951 -0.0863 -0.5946  0.4964
  200DOPC   O3224803   0.718   2.181  13.042  0.6926  0.0006  0.6691
  200DOPC   C3224804   0.893   2.304  12.909 -0.2283 -0.1162 -0.3664
  200DOPC   H2X24805   0.997   2.268  12.926  0.3440  0.6341 -2.0766
  200DOPC   H2Y24806   0.893   2.319  12.799  3.1803 -1.5742 -0.7074
  200DOPC   C2324807   0.642   1.560  13.133 -0.4982  0.5432 -0.5766
  200DOPC   H3R24808   0.743   1.537  13.173 -0.7541 -0.8496 -0.6838
  200DOPC   H3S24809   0.571   1.480  13.162  1.5759 -1.5804 -0.9835
  200DOPC   C2424810   0.597   1.688  13.196 -0.2897 -0.2663 -0.7118
  200DOPC   H4R24811   0.487   1.702  13.188 -0.5968 -0.8512  1.7458
  200DOPC   H4S24812   0.646   1.776  13.149  1.5409 -0.7661  0.1696
  200DOPC   C2524813   0.619   1.684  13.349 -0.8818 -0.2460 -0.0198
  200DOPC   H5R24814   0.600   1.788  13.385 -0.2796  0.1937 -0.9337
  200DOPC   H5S24815   0.724   1.677  13.384 -0.7343 -0.4153 -0.4965
  200DOPC   C2624816   0.534   1.581  13.425  0.2178  0.0403  0.4934
  200DOPC   H6R24817   0.561   1.475  13.405 -1.2657 -0.5383  1.3337
  200DOPC   H6S24818   0.431   1.599  13.387 -0.6611 -0.9686  2.2951
  200DOPC   C2724819   0.536   1.617  13.578  0.2458 -0.2533  0.2397
  200DOPC   H7R24820   0.524   1.723  13.606 -0.8573 -0.7295  1.7208
  200DOPC   H7S24821   0.634   1.579  13.613  1.0102 -1.3115 -2.7333
  200DOPC   C2824822   0.416   1.546  13.641  0.5559 -0.0109 -0.2985
  200DOPC   H8R24823   0.421   1.442  13.603  0.0893  0.6112 -2.1515
  200DOPC   H8S24824   0.317   1.575  13.601  0.2133 -2.0769 -1.0759
  200DOPC   C2924825   0.416   1.537  13.790 -0.3674 -0.1371 -0.7712
  200DOPC   H9R24826   0.497   1.473  13.829 -0.3257 -1.0077 -2.1785
  200DOPC  C21024827   0.324   1.592  13.871 -0.1355 -0.3055 -0.1286
  200DOPC  H10R24828   0.334   1.582  13.980 -3.1291 -0.3398  0.2165
  200DOPC  C21124829   0.214   1.687  13.822  0.1554  0.6191 -0.5457
  200DOPC  H11R24830   0.120   1.631  13.840  1.3973 -1.0436  1.2528
  200DOPC  H11S24831   0.225   1.710  13.714 -0.2285 -1.7288 -1.1502
  200DOPC  C21224832   0.206   1.828  13.878  0.1636  0.1831  0.3239
  200DOPC  H12R24833   0.139   1.896  13.821  1.1887 -0.4936 -1.7480
  200DOPC  H12S24834   0.307   1.871  13.860 -0.9206  2.6180 -0.3925
  200DOPC  C21324835   0.170   1.846  14.022  0.1279 -0.2001  0.7212
  200DOPC  H13R24836   0.219   1.939  14.057 -1.8736 -0.0484  3.3814
  200DOPC  H13S24837   0.221   1.766  14.080  1.8827  0.0066 -0.4639
  200DOPC  C21424838   0.030   1.856  14.057  0.8672  0.4589 -0.6592
  200DOPC  H14R24839  -0.014   1.754  14.059 -0.4098  1.0047  0.5243
  200DOPC  H14S24840  -0.019   1.912  13.974  2.2333  0.7243 -1.3187
  200DOPC  C21524841   0.010   1.924  14.196  0.0464 -0.4919  0.3082
  200DOPC  H15R24842  -0.098   1.931  14.223  0.0855 -3.0877  1.4072
  200DOPC  H15S24843   0.053   2.027  14.195 -0.0114 -0.4615  0.8472
  200DOPC  C21624844   0.074   1.839  14.309 -0.6739 -0.1114  0.0082
  200DOPC  H16R24845   0.180   1.823  14.283 -0.5902 -0.9378  0.8080
  200DOPC  H16S24846   0.025   1.740  14.317  0.4387 -0.5320  2.3168
  200DOPC  C21724847   0.079   1.905  14.446  0.1910 -0.0928 -0.8733
  200DOPC  H17R24848  -0.012   1.968  14.449 -0.6010 -1.2350 -0.1771
  200DOPC  H17S24849   0.168   1.971  14.444  0.1111  0.2012  1.7863
  200DOPC  C21824850   0.062   1.816  14.573  0.9349  0.0296 -0.6405
  200DOPC  H18R24851   0.048   1.884  14.660  0.0794  1.2254 -1.6901
  200DOPC  H18S24852   0.147   1.747  14.592  0.2674 -0.8628 -0.8555
  200DOPC  H18T24853  -0.028   1.753  14.558  0.0902  1.3238 -1.1324
  200DOPC   C3324854   0.874   2.434  12.993 -0.3238 -0.2951  0.4253
  200DOPC   H3X24855   0.776   2.480  12.965 -1.0374 -2.4872 -0.8763
  200DOPC   H3Y24856   0.953   2.500  12.951 -0.5965  0.4538  1.0495
  200DOPC   C3424857   0.905   2.419  13.143 -0.3055  0.4445 -0.0976
  200DOPC   H4X24858   1.009   2.382  13.156  0.0948  0.7920 -2.0887
  200DOPC   H4Y24859   0.836   2.345  13.190  1.3763 -2.1106 -1.4156
  200DOPC   C3524860   0.889   2.551  13.218 -0.1744  0.1001  0.4779
  200DOPC   H5X24861   0.779   2.565  13.215 -0.2686 -0.6966 -0.3967
  200DOPC   H5Y24862   0.930   2.632  13.154  0.3497  1.0182  1.9180
  200DOPC   C3624863   0.946   2.547  13.361  0.0387 -0.2426  0.0262
  200DOPC   H6X24864   0.894   2.465  13.415 -0.3723  0.6881  1.0941
  200DOPC   H6Y24865   1.050   2.507  13.367 -0.5296 -1.6438  1.2201
  200DOPC   C3724866   0.929   2.680  13.429 -0.1091 -0.2725  0.0637
  200DOPC   H7X24867   0.998   2.750  13.379 -0.1559 -0.5094 -0.3309
  200DOPC   H7Y24868   0.826   2.722  13.429  0.3097  0.8704  1.4461
  200DOPC   C3824869   0.979   2.678  13.575  0.1515  0.3116 -0.0425
  200DOPC   H8X24870   1.089   2.667  13.571  0.0282 -0.8440 -2.4728
  200DOPC   H8Y24871   0.944   2.583  13.619 -1.8936  0.3639 -1.4114
  200DOPC   C3924872   0.939   2.795  13.659  0.2200 -0.0723 -0.5531
  200DOPC   H9X24873   0.963   2.886  13.602  2.3134  1.0948  1.9749
  200DOPC  C31024874   0.908   2.803  13.793 -0.7094 -0.1523  0.2741
  200DOPC  H10X24875   0.883   2.901  13.837 -0.1665  0.2043 -0.1916
  200DOPC  C31124876   0.899   2.683  13.877  0.0167  0.8889 -0.7736
  200DOPC  H11X24877   0.903   2.588  13.818 -1.1999  0.0785  0.4016
  200DOPC  H11Y24878   0.799   2.673  13.923 -0.3950  1.3857 -1.5398
  200DOPC  C31224879   1.008   2.671  13.983  0.2004  0.1166  0.3525
  200DOPC  H12X24880   1.005   2.760  14.049  1.6755  0.9076 -0.5810
  200DOPC  H12Y24881   1.115   2.671  13.951  0.8081  0.7732  2.2606
  200DOPC  C31324882   0.994   2.544  14.074 -0.1454  0.4523  0.0279
  200DOPC  H13X24883   0.886   2.517  14.068 -0.7726  2.4763  1.1324
  200DOPC  H13Y24884   1.046   2.451  14.042 -0.1986 -0.5594  2.6148
  200DOPC  C31424885   1.028   2.577  14.219 -1.2318  0.0162 -0.0902
  200DOPC  H14X24886   1.137   2.597  14.227 -1.2025 -0.9980  3.7025
  200DOPC  H14Y24887   0.966   2.665  14.246 -1.7641 -0.4036  0.0616
  200DOPC  C31524888   0.998   2.459  14.319  0.8841 -0.2164 -0.2665
  200DOPC  H15X24889   1.060   2.372  14.289  1.3605  0.0669 -0.1082
  200DOPC  H15Y24890   0.891   2.442  14.293 -0.4877  2.0031  3.2010
  200DOPC  C31624891   1.012   2.481  14.472  0.1917 -0.0952  0.5872
  200DOPC  H16X24892   0.966   2.396  14.527  2.0633 -0.9449  0.9006
  200DOPC  H16Y24893   1.119   2.488  14.501  0.3057  1.2287 -0.0789
  200DOPC  C31724894   0.943   2.610  14.523  0.3937 -0.3812  0.6577
  200DOPC  H17X24895   0.967   2.621  14.631 -2.4269  0.2961  1.2887
  200DOPC  H17Y24896   0.996   2.692  14.470  0.6562 -0.3341  0.9862
  200DOPC  C31824897   0.791   2.617  14.518 -0.3189 -0.2128  0.4583
  200DOPC  H18X24898   0.756   2.706  14.574  1.0614  0.6192  0.0430
  200DOPC  H18Y24899   0.761   2.615  14.411  0.9840  0.6953  0.0461
  200DOPC  H18Z24900   0.754   2.527  14.571 -1.3133  0.2668  0.5911
  201SOD    SOD24901   7.349   1.769  17.347  0.3759  0.2665 -0.2600
  202SOD    SOD24902   3.458   2.344  11.560 -0.1217 -0.2441  0.0717
  203SOD    SOD24903   1.683   3.238  18.122  0.1406 -0.3429  0.2664
  204SOD    SOD24904   0.106   7.238  10.812  0.3497 -0.4529 -0.3052
  205SOD    SOD24905   4.249   0.214  16.282 -0.0328 -0.5374  0.4963
  206SOD    SOD24906   0.039   7.279  10.274  0.0384 -0.1847 -0.5724
  207SOD    SOD24907   3.384   6.204  10.928 -0.2606  0.1584 -0.6278
  208SOD    SOD24908   6.162   1.133  16.710  0.1621  0.4184  0.6249
  209SOD    SOD24909   1.235   0.837  11.336 -0.1863 -0.0605 -0.5887
  210SOD    SOD24910   3.054   4.674  18.779 -0.0868 -0.2159 -0.1273
  211SOD    SOD24911   6.209   0.361  18.206 -0.4246  0.3822 -0.0315
  212SOD    SOD24912   6.255   6.393  17.402 -0.5176 -0.2298  0.7584
  213SOD    SOD24913   3.378   0.907  12.552 -0.4466  0.5788  0.0388
  214SOD    SOD24914   4.094   5.500  17.012  0.4085 -0.1746 -0.6540
  215SOD    SOD24915   2.877   5.391  17.769 -0.1948 -0.2308  0.1064
  216SOD    SOD24916   1.129   5.272  17.298 -0.6634  0.0048  0.7312
  217SOD    SOD24917   5.193   7.442  11.265 -0.4582 -0.4758 -0.1536
  218SOD    SOD24918   0.719   4.198  17.433  0.2308  0.1308  0.4801
  219SOD    SOD24919   2.392   3.401  17.095 -0.4568 -0.2782  0.2906
  220SOD    SOD24920   1.172   6.175  12.133 -0.0600  0.4475 -0.5175
  221SOD    SOD24921   1.648   2.465  10.906  0.0279 -0.1503 -0.1221
  222SOD    SOD24922   5.506   6.141  17.359 -0.0143 -0.0923  0.0600
  223SOD    SOD24923   3.733   4.054  11.299 -0.2591  0.3620 -0.1596
  224SOD    SOD24924   2.384   6.210  10.417  0.0491 -0.4707 -0.3030
  225SOD    SOD24925   5.069   5.655  11.356  0.4795 -0.3094 -0.3074
  226SOD    SOD24926   0.681   5.998  16.565  0.2125  0.4361  0.5005
  227CLA    CLA24927   3.662   2.491  11.418 -0.3539  0.2227  0.6636
  228CLA    CLA24928   7.570   7.466  11.128 -0.3019 -0.3512  0.2592
  229CLA    CLA24929   5.498   3.566  11.138  0.0354  0.2050  0.1888
  230CLA    CLA24930   5.400   4.119  18.467 -0.0816  0.0183 -0.0541
  231CLA    CLA24931   6.593   6.763  16.563  0.2397 -0.5232 -0.2335
  232CLA    CLA24932   6.297   3.571  17.365  0.0905 -0.0486 -0.5181
  233CLA    CLA24933   3.420   5.394  17.112 -0.2928  0.5207  0.6973
  234CLA    CLA24934   1.617   0.581  18.165  0.1879  0.5491 -0.2239
  235CLA    CLA24935   2.842   7.515  12.095  0.0394 -0.4930 -0.1650
  236CLA    CLA24936   3.587   1.592  17.060  0.1407  0.0579  0.2594
  237CLA    CLA24937   4.769   0.287  16.864 -0.1873  0.4856 -0.1865
  238CLA    CLA24938   1.896   3.864  10.582  0.3525 -0.3116 -0.2136
  239CLA    CLA24939   1.394   6.930  11.309 -0.1151 -0.3826 -0.1629
  240CLA    CLA24940   3.771   6.045  17.039 -0.2142 -0.6090 -0.2195
  241CLA    CLA24941   6.864   5.416  11.347 -0.0301  0.6108 -0.2008
  242CLA    CLA24942   7.648   2.294  17.244 -0.2435 -0.1725  0.0320
  243CLA    CLA24943   5.301   5.852  10.244  0.2014  0.2598  0.0620
  244CLA    CLA24944   2.385   4.406  11.717  0.0919  0.2304  0.2119
  245CLA    CLA24945   1.515   0.689  11.844  0.0007 -0.0035 -0.2441
  246CLA    CLA24946   6.164   7.120  16.761 -0.2577  0.1777  0.2764
  247CLA    CLA24947   6.291   1.948  10.258  0.1241 -0.1494  0.0752
  248CLA    CLA24948   7.357   6.915  10.247  0.0158  0.1813  0.5940
  249CLA    CLA24949   5.822   0.384  11.768 -0.0660  0.0439 -0.2079
  250CLA    CLA24950   7.582   4.067  17.968  0.0749  0.0193 -0.4772
  251CLA    CLA24951   0.480   5.555  17.439  0.3383 -0.0519 -0.3284
  252CLA    CLA24952   3.982   5.335  10.628  0.2343  0.3778 -0.0649
  253TIP3   OH224953   5.048   0.305  16.008  0.1360 -0.4312 -0.5866
  253TIP3    H124954   4.959   0.273  16.024  0.0496  0.3558  0.6218
  253TIP3    H224955   5.041   0.400  16.018  0.9962 -0.3092 -1.0797
  254TIP3   OH224956   5.204   2.271  16.236  0.2873  0.3764 -0.1256
  254TIP3    H124957   5.211   2.200  16.300 -0.6945  0.5244  0.1619
  254TIP3    H224958   5.279   2.258  16.178  0.7402 -0.2374  0.5755
  255TIP3   OH224959   0.188   1.750  16.021  0.4816  0.2562 -0.4663
  255TIP3    H124960   0.112   1.807  16.004 -0.1822 -0.2468  0.7301
  255TIP3    H224961   0.155   1.683  16.080  1.4946 -0.8565 -1.1271
  256TIP3   OH224962   3.464   3.114  17.286  0.6356 -0.2816  0.3650
  256TIP3    H124963   3.538   3.070  17.244  1.4160  2.2673 -1.1603
  256TIP3    H224964   3.483   3.207  17.277  0.0184  0.5289  5.0912
  257TIP3   OH224965   2.984   1.945  16.430  0.3754  0.1533 -0.5856
  257TIP3    H124966   2.974   2.023  16.484 -1.2617  0.4113 -1.2004
  257TIP3    H224967   3.065   1.961  16.381 -0.4087  1.9498 -1.4096
  258TIP3   OH224968   6.155   1.774  18.140  0.6059  0.5973 -0.1237
  258TIP3    H124969   6.100   1.807  18.211 -0.9047 -0.9778 -0.4966
  258TIP3    H224970   6.109   1.799  18.060 -0.3447 -1.8631 -0.4231
  259TIP3   OH224971   4.858   6.202  17.053 -0.1907 -0.1444  0.3474
  259TIP3    H124972   4.859   6.173  17.144 -0.2870 -1.0236  0.0753
  259TIP3    H224973   4.921   6.146  17.009  0.7961  1.1134  0.1018
  260TIP3   OH224974   1.592   1.709  16.980  0.2117  1.0268  0.1791
  260TIP3    H124975   1.656   1.672  16.919 -1.8572 -0.2826 -1.3482
  260TIP3    H224976   1.571   1.795  16.945 -1.1637  0.1751 -1.2079
  261TIP3   OH224977   0.173   4.902  18.026  0.9512 -0.0641  0.1270
  261TIP3    H124978   0.198   4.827  17.971  1.2834  1.0834 -1.3517
  261TIP3    H224979   0.202   4.877  18.114  0.4883 -1.9226 -0.2056
  262TIP3   OH224980   2.323   2.100  18.837 -0.3653  0.2225 -0.3369
  262TIP3    H124981   2.273   2.021  18.859 -0.1476  0.6158  1.7978
  262TIP3    H224982   2.281   2.170  18.888 -0.0443  1.3402 -1.5464
  263TIP3   OH224983   7.474   2.376  17.015 -0.2224  0.4036  0.2975
  263TIP3    H124984   7.537   2.350  17.081 -0.0581 -1.0311 -0.3925
  263TIP3    H224985   7.390   2.375  17.060  0.1547  1.8175  1.0869
  264TIP3   OH224986   4.605   4.518  16.973 -0.1485  0.5630  0.4515
  264TIP3    H124987   4.645   4.506  16.887  0.2944  1.8490  0.4514
  264TIP3    H224988   4.655   4.461  17.031 -0.1010  0.0942 -0.0460
  265TIP3   OH224989   1.350   7.531  18.268  0.2717  0.2680 -0.1738
  265TIP3    H124990   1.397   7.447  18.277 -1.7434 -0.7113  2.0517
  265TIP3    H224991   1.418   7.597  18.282  1.9693 -0.8766 -2.1879
  266TIP3   OH224992   5.263   0.074  16.069  0.3682  0.3280  0.4964
  266TIP3    H124993   5.214   0.098  16.148  0.8194  1.6500  0.3929
  266TIP3    H224994   5.197   0.070  16.000 -0.1173 -1.3439  0.9973
  267TIP3   OH224995   2.840   0.402  18.549  0.0544 -0.4737 -0.2575
  267TIP3    H124996   2.753   0.403  18.510  0.0014  0.0576 -0.1385
  267TIP3    H224997   2.891   0.343  18.494  0.1251  0.6613 -1.4773
  268TIP3   OH224998   5.979   0.111  17.246  0.1165 -0.4694  0.2979
  268TIP3    H124999   5.995   0.136  17.155  0.7753  0.4486  0.6532
  268TIP3    H225000   5.890   0.142  17.264  0.1418 -0.2710  0.0906
  269TIP3   OH225001   1.138   3.328  17.354 -0.3187 -0.5008 -0.4944
  269TIP3    H125002   1.153   3.400  17.293  0.0493 -0.5891 -0.5122
  269TIP3    H225003   1.226   3.302  17.383 -0.4859 -0.5108  0.0142
  270TIP3   OH225004   3.828   0.199  18.282 -0.0530 -0.0236  0.1079
  270TIP3    H125005   3.922   0.205  18.293 -0.0394 -0.1116  0.0431
  270TIP3    H225006   3.792   0.216  18.369  0.0171  0.1139  0.1105
  271TIP3   OH225007   4.347   3.945  17.690 -0.4555 -0.0658  0.3803
  271TIP3    H125008   4.332   3.867  17.636  0.6103  0.2011 -0.3457
  271TIP3    H225009   4.395   4.005  17.632  0.5835  0.2935  1.5752
  272TIP3   OH225010   7.514   2.837  18.391 -0.0430 -0.2054  0.1335
  272TIP3    H125011   7.481   2.845  18.302  1.4697 -0.9505 -0.5323
  272TIP3    H225012   7.458   2.895  18.443 -1.5609 -0.4811 -1.1136
  273TIP3   OH225013   7.111   0.097  16.105  0.3496 -0.1385  0.2893
  273TIP3    H125014   7.039   0.144  16.147  1.3919  1.0417  0.8193
  273TIP3    H225015   7.081   0.080  16.016 -0.6580  0.1320  0.5722
  274TIP3   OH225016   7.121   4.192  19.022  0.1027  0.5087 -0.1257
  274TIP3    H125017   7.045   4.250  19.027 -1.1691 -1.0386 -0.6317
  274TIP3    H225018   7.184   4.240  18.968 -1.9454  0.4058 -2.8495
  275TIP3   OH225019   1.171   4.609  18.231  0.2517  0.0978  0.0361
  275TIP3    H125020   1.169   4.597  18.326  1.8122  0.5475  0.1517
  275TIP3    H225021   1.149   4.523  18.195 -1.0465  0.0947  0.7784
  276TIP3   OH225022   2.115   7.189  17.778  0.5612  0.0724 -0.2237
  276TIP3    H125023   2.195   7.200  17.829  0.6014 -0.2261 -0.2193
  276TIP3    H225024   2.088   7.099  17.796  1.1108 -0.3594 -1.4918
  277TIP3   OH225025   3.718   3.805  17.358 -0.5378 -0.0795  0.0426
  277TIP3    H125026   3.742   3.719  17.392 -0.4362 -0.1793 -0.2728
  277TIP3    H225027   3.779   3.819  17.285  1.1518  1.3589  1.6359
  278TIP3   OH225028   2.576   7.022  16.663 -0.6891 -0.2575  0.3252
  278TIP3    H125029   2.584   6.948  16.603 -0.5486  0.2554 -0.2894
  278TIP3    H225030   2.539   6.983  16.743  2.2590 -1.6181  1.1588
  279TIP3   OH225031   5.578   6.026  17.904 -0.1500  0.3086 -0.6410
  279TIP3    H125032   5.504   6.086  17.897  0.6154  1.2588 -0.8174
  279TIP3    H225033   5.543   5.941  17.874 -0.7650  1.0622 -2.1734
  280TIP3   OH225034   5.723   4.714  18.101  0.3518  0.0324  0.4057
  280TIP3    H125035   5.641   4.762  18.109  0.4076  0.3131 -0.5829
  280TIP3    H225036   5.702   4.625  18.127 -0.4666 -0.0869 -0.6045
  281TIP3   OH225037   2.137   5.109  17.721  0.3857 -0.5063 -0.2266
  281TIP3    H125038   2.063   5.085  17.666 -0.0345  0.7016 -0.2163
  281TIP3    H225039   2.186   5.172  17.669 -0.2938  1.0445  0.9347
  282TIP3   OH225040   5.681   4.814  18.409  0.3751  0.3230 -0.3257
  282TIP3    H125041   5.622   4.789  18.480  1.0691 -0.1030  0.1143
  282TIP3    H225042   5.739   4.739  18.399 -0.5193 -0.1687 -2.2388
  283TIP3   OH225043   0.790   6.596  18.624 -0.1715  0.7763 -0.0381
  283TIP3    H125044   0.839   6.642  18.692 -0.1833  1.6181 -0.5776
  283TIP3    H225045   0.710   6.567  18.667 -1.0706  2.9599 -0.1137
  284TIP3   OH225046   5.205   5.185   9.740  0.3331 -0.0369 -0.0763
  284TIP3    H125047   5.175   5.268   9.778  0.5678  0.2522 -0.5150
  284TIP3    H225048   5.154   5.175   9.660 -2.0321 -1.9276  1.5472
  285TIP3   OH225049   6.925   5.534  10.324 -0.3290  0.0601  0.1854
  285TIP3    H125050   6.861   5.463  10.324  0.5396 -0.7558  1.7017
  285TIP3    H225051   6.999   5.499  10.275  0.1579 -0.1345  1.0601
  286TIP3   OH225052   5.597   5.368  10.701 -0.3449 -0.3647  0.0107
  286TIP3    H125053   5.511   5.367  10.661  0.7911  1.5617 -2.8022
  286TIP3    H225054   5.625   5.460  10.696  2.2190 -1.0769 -0.0431
  287TIP3   OH225055   0.388   0.715  11.160 -0.5668  0.3039  0.1041
  287TIP3    H125056   0.459   0.668  11.117  1.2492  0.9434  2.2267
  287TIP3    H225057   0.324   0.730  11.090  1.1544 -0.6823 -1.7990
  288TIP3   OH225058   6.749   0.213  11.002 -0.0214 -0.2369 -0.2535
  288TIP3    H125059   6.829   0.161  11.011 -0.6944 -1.2020  0.4491
  288TIP3    H225060   6.774   0.287  10.947  1.5910 -0.0092  0.7302
  289TIP3   OH225061   3.316   6.443  10.285  0.0179  0.2608 -0.2745
  289TIP3    H125062   3.243   6.384  10.265 -0.0705 -0.3084  1.4889
  289TIP3    H225063   3.394   6.397  10.255 -0.3335  1.0258 -2.4925
  290TIP3   OH225064   3.037   3.872  10.877  0.2001  0.1246 -0.9579
  290TIP3    H125065   3.103   3.906  10.938 -1.2279  1.3511 -0.0214
  290TIP3    H225066   3.022   3.782  10.906  2.1494 -0.5449 -1.8366
  291TIP3   OH225067   2.457   3.690  11.738  0.2312  0.0818  0.8465
  291TIP3    H125068   2.374   3.675  11.783  0.1515 -0.2332  0.6003
  291TIP3    H225069   2.442   3.771  11.689  0.5399  0.7848  1.8905
  292TIP3   OH225070   5.658   2.104  11.700 -0.6011 -0.2037  0.2680
  292TIP3    H125071   5.592   2.147  11.644  0.5478  0.1228 -0.8797
  292TIP3    H225072   5.619   2.104  11.787 -2.5155 -0.8338 -0.5319
  293TIP3   OH225073   7.615   6.314  11.942 -0.3182 -0.3656  0.0174
  293TIP3    H125074   7.565   6.299  11.862 -0.9173 -1.3590  0.5697
  293TIP3    H225075   7.675   6.239  11.947  2.1178  1.3353 -1.2431
  294TIP3   OH225076   7.494   5.316   9.943 -0.0341  0.4397 -0.6440
  294TIP3    H125077   7.499   5.373   9.867 -0.3541  1.7875  0.3076
  294TIP3    H225078   7.449   5.368  10.009 -3.2776 -2.0084 -0.6947
  295TIP3   OH225079   7.341   7.448   9.938  0.4803 -0.2513  0.3433
  295TIP3    H125080   7.319   7.508  10.009  0.3526  1.4006 -1.0198
  295TIP3    H225081   7.257   7.407   9.915  0.2862  0.1299  0.3521
  296TIP3   OH225082   3.313   4.107  11.752  0.2542 -0.1354  0.0010
  296TIP3    H125083   3.232   4.068  11.784  1.0049 -0.6175  1.3882
  296TIP3    H225084   3.374   4.101  11.826  1.4528  0.5303 -0.8909
  297TIP3   OH225085   2.529   4.843  11.876 -0.1087 -0.0864  0.4696
  297TIP3    H125086   2.574   4.927  11.869 -0.4631  0.2733  2.1556
  297TIP3    H225087   2.438   4.862  11.854  0.3508 -0.7397 -2.5406
  298TIP3   OH225088   0.631   4.370   9.902  0.9243  0.5677 -0.1060
  298TIP3    H125089   0.566   4.311   9.865 -1.1839  1.5619  1.7831
  298TIP3    H225090   0.666   4.323   9.978  2.2437  0.1683 -0.9257
  299TIP3   OH225091   2.387   7.223  12.124 -0.0767  0.1049 -0.2902
  299TIP3    H125092   2.474   7.195  12.096 -0.3178 -0.3731 -0.5840
  299TIP3    H225093   2.403   7.294  12.186  0.4917  0.6694 -1.0661
  300TIP3   OH225094   4.226   5.119  11.663 -0.3857 -0.2276  0.1093
  300TIP3    H125095   4.226   5.192  11.725  0.1165 -0.7135  0.6910
  300TIP3    H225096   4.302   5.135  11.608  0.0679 -0.6189  0.6132
  301TIP3   OH225097   3.116   6.178  10.344 -0.5998  0.2159 -0.1203
  301TIP3    H125098   3.061   6.165  10.267 -0.6671 -2.4267  0.2735
  301TIP3    H225099   3.082   6.116  10.409  1.4135  0.0875  0.9106
  302TIP3   OH225100   0.715   7.458   9.909 -0.2593 -0.2235  0.2106
  302TIP3    H125101   0.645   7.494   9.963  0.4516 -0.2491  1.1631
  302TIP3    H225102   0.726   7.368   9.939  0.6314 -0.0143  0.5404
  303TIP3   OH225103   7.122   0.601  10.145 -0.3358 -0.2161 -0.0572
  303TIP3    H125104   7.187   0.623  10.078 -1.5169  3.0646 -0.2801
  303TIP3    H225105   7.041   0.586  10.096 -0.6719 -0.2323  0.4991
  304TIP3   OH225106   5.487   3.217  10.798 -0.3729  0.3278  0.4468
  304TIP3    H125107   5.464   3.180  10.884  0.6437 -0.0595  0.5660
  304TIP3    H225108   5.471   3.311  10.808  1.2364  0.5195  1.5982
  305TIP3   OH225109   6.421   3.718  11.014 -0.1075  0.2334 -0.2220
  305TIP3    H125110   6.463   3.744  10.932  1.3907  0.4920  0.5877
  305TIP3    H225111   6.355   3.654  10.988  0.0624  0.6032 -1.6593
  306TIP3   OH225112   5.937   6.338  10.002 -0.6724  0.1009 -0.0580
  306TIP3    H125113   5.933   6.414  10.060 -0.4665  0.4440 -0.4928
  306TIP3    H225114   5.870   6.355   9.936 -0.4115  0.0520 -0.3348
  307TIP3   OH225115   1.850   0.215  10.598  0.2017  0.6254  0.3391
  307TIP3    H125116   1.913   0.146  10.577 -0.8831 -0.2165 -0.2569
  307TIP3    H225117   1.798   0.178  10.669 -2.1412 -0.3528 -1.7377
  308TIP3   OH225118   4.233   7.323  11.482  0.2821  0.5441 -0.2676
  308TIP3    H125119   4.301   7.361  11.538 -0.0846 -0.9901  1.3086
  308TIP3    H225120   4.165   7.293  11.543  0.5777 -2.6452 -1.3010
  309TIP3   OH225121   2.072   3.688  11.281 -0.4751  0.4600  0.2705
  309TIP3    H125122   2.013   3.631  11.331 -0.3687  0.0732 -0.0388
  309TIP3    H225123   2.017   3.722  11.210  0.0119 -0.9740 -0.8173
  310TIP3   OH225124   4.249   6.395  10.733 -0.3557 -0.2616 -0.1723
  310TIP3    H125125   4.248   6.334  10.807  0.3373 -1.8037 -1.3752
  310TIP3    H225126   4.337   6.387  10.697 -0.7252  0.3362 -1.2559
  311TIP3   OH225127   1.745   2.600  10.740 -0.4902  0.0244  0.6032
  311TIP3    H125128   1.830   2.607  10.785 -0.5943  0.9826  0.6680
  311TIP3    H225129   1.766   2.561  10.655 -0.1006 -0.4890  0.9245
  312TIP3   OH225130   1.965   0.452  10.491 -0.2648  0.3066  0.7676
  312TIP3    H125131   1.952   0.375  10.546 -2.6783  0.5550  0.6572
  312TIP3    H225132   1.959   0.420  10.401 -0.2584  0.4929  0.6983
  313TIP3   OH225133   5.955   1.632  11.704 -0.5521 -0.0904  0.4270
  313TIP3    H125134   5.961   1.657  11.797  1.3611  2.3613 -0.2472
  313TIP3    H225135   5.881   1.681  11.670 -2.2258 -2.1503  0.8863
  314TIP3   OH225136   5.597   1.783  10.527  0.2015 -0.0164 -0.5214
  314TIP3    H125137   5.501   1.782  10.524  0.2097 -1.3722 -0.8806
  314TIP3    H225138   5.618   1.828  10.609 -0.8015 -2.0729  0.9537
  315TIP3   OH225139   5.794   7.569  11.414  0.6402 -0.5349  0.5612
  315TIP3    H125140   5.769   7.527  11.332  1.8758 -1.3834  0.5794
  315TIP3    H225141   5.847   7.503  11.459  1.1521  0.4251  1.4074
  316TIP3   OH225142   4.599   0.633  11.644 -0.4730 -0.5104  0.1270
  316TIP3    H125143   4.547   0.672  11.574  1.5591  3.8259  0.6369
  316TIP3    H225144   4.684   0.616  11.604 -0.3088 -1.1986  0.7597
  317TIP3   OH225145   5.074   0.352  10.169 -0.4428  0.0306  0.5427
  317TIP3    H125146   5.150   0.295  10.158 -1.2475 -0.7253 -1.6122
  317TIP3    H225147   5.006   0.294  10.204 -0.7194  0.0943  0.1241
  318TIP3   OH225148   3.624   7.282  11.264  0.5483 -0.2248  0.2005
  318TIP3    H125149   3.689   7.321  11.205  0.8502 -1.1572 -0.0898
  318TIP3    H225150   3.658   7.195  11.283 -1.1261 -1.1228 -0.7696
  319TIP3   OH225151   2.739   0.707  11.258 -0.1035  0.4021  0.6038
  319TIP3    H125152   2.720   0.622  11.296 -0.8665  0.4529  0.3470
  319TIP3    H225153   2.695   0.770  11.316 -2.9366  0.3736 -1.3458
  320TIP3   OH225154   7.253   5.880  10.614  0.5578  0.2977 -0.0620
  320TIP3    H125155   7.162   5.872  10.586  0.2156  0.4587  0.9472
  320TIP3    H225156   7.254   5.842  10.702  1.1870  1.4690  0.4626
  321TIP3   OH225157   4.651   7.354  10.488  0.2059 -0.3990 -0.6876
  321TIP3    H125158   4.607   7.280  10.447  0.0157 -0.6648 -0.0235
  321TIP3    H225159   4.587   7.425  10.486 -0.7463 -1.1066  1.3090
  322TIP3   OH225160   1.080   2.127  10.306  0.1985  0.2849  0.4300
  322TIP3    H125161   1.011   2.070  10.272 -0.1627  1.8513 -1.7219
  322TIP3    H225162   1.039   2.214  10.311  1.7411  1.0825 -0.0555
  323TIP3   OH225163   0.663   6.868  18.642 -0.0004  0.1856 -0.4615
  323TIP3    H125164   0.641   6.822  18.561  0.4245 -0.2649 -0.3329
  323TIP3    H225165   0.746   6.912  18.623  0.5482 -0.6213 -0.0232
  324TIP3   OH225166   5.372   4.854  18.896  0.4574  0.3060 -0.4696
  324TIP3    H125167   5.351   4.775  18.945  2.5682 -0.2538 -0.3725
  324TIP3    H225168   5.373   4.924  18.961 -0.3617  0.2541 -0.3829
  325TIP3   OH225169   1.479   2.610  16.134 -0.3496  0.0898  0.3939
  325TIP3    H125170   1.486   2.697  16.173 -0.8716 -0.2553  1.2838
  325TIP3    H225171   1.569   2.581  16.123 -0.1442 -0.5853  3.1777
  326TIP3   OH225172   1.323   4.359  18.559  0.2156  0.1922 -0.0423
  326TIP3    H125173   1.240   4.372  18.514 -0.2465 -0.5236  0.5613
  326TIP3    H225174   1.305   4.385  18.649 -0.0090 -1.9271  0.5918
  327TIP3   OH225175   4.212   4.081  17.897  0.4986  0.1176  0.3883
  327TIP3    H125176   4.150   4.013  17.922 -0.0304  0.3704 -0.2174
  327TIP3    H225177   4.260   4.043  17.823  0.5160  0.2320  0.3409
  328TIP3   OH225178   1.003   6.855  16.831 -0.5644  0.1018  0.0273
  328TIP3    H125179   0.972   6.936  16.871  1.3540  0.3474  1.0831
  328TIP3    H225180   1.072   6.823  16.889  1.2289 -0.3718 -2.2287
  329TIP3   OH225181   1.857   6.630  16.654 -0.3988 -0.1587  0.3436
  329TIP3    H125182   1.869   6.716  16.613  2.0610 -0.3766  0.4490
  329TIP3    H225183   1.791   6.587  16.600  1.2248  0.3320 -2.2287
  330TIP3   OH225184   2.134   7.194  18.331  0.5536 -0.3660  0.2062
  330TIP3    H125185   2.137   7.121  18.393  1.1231  0.6349  1.4078
  330TIP3    H225186   2.087   7.263  18.378  0.1634  0.1045 -0.8453
  331TIP3   OH225187   2.768   6.803  16.402 -0.3848 -0.6807  0.2149
  331TIP3    H125188   2.843   6.852  16.435 -0.7088 -0.4593  0.6329
  331TIP3    H225189   2.776   6.808  16.307 -0.6961  0.6410  0.2391
  332TIP3   OH225190   7.602   6.358  18.851  0.1297  0.6202 -0.4275
  332TIP3    H125191   7.671   6.354  18.916  0.3039  0.2183 -0.6338
  332TIP3    H225192   7.521   6.354  18.902  0.1750 -3.5322 -0.3095
  333TIP3   OH225193   5.631   1.479  16.973  0.1593  0.0626  0.3278
  333TIP3    H125194   5.668   1.564  16.948 -1.5473  0.7245 -0.1588
  333TIP3    H225195   5.706   1.421  16.983  1.2974  1.3429 -0.4534
  334TIP3   OH225196   6.306   6.840  17.674  0.0082 -1.2157  0.5692
  334TIP3    H125197   6.334   6.840  17.582 -2.4235 -0.2130 -0.2594
  334TIP3    H225198   6.226   6.891  17.674 -0.8664 -2.4434  3.0357
  335TIP3   OH225199   5.172   0.102  18.060 -0.0952 -0.1683 -0.3740
  335TIP3    H125200   5.090   0.054  18.051  0.4537 -1.2108 -0.1266
  335TIP3    H225201   5.152   0.191  18.032 -1.2841 -0.4189 -0.3751
  336TIP3   OH225202   3.682   2.386  15.892  0.2985  0.1096 -0.2356
  336TIP3    H125203   3.600   2.403  15.938  0.9522  0.1902  0.9614
  336TIP3    H225204   3.686   2.290  15.885  1.7071 -0.2057  2.9604
  337TIP3   OH225205   5.090   3.560  17.056  0.7613 -0.5062  0.2762
  337TIP3    H125206   5.114   3.487  17.000  0.9057  0.5874 -1.1621
  337TIP3    H225207   5.170   3.613  17.063  0.3223  0.1902  0.1811
  338TIP3   OH225208   6.445   1.148  17.888 -0.3966 -0.5176 -0.0553
  338TIP3    H125209   6.536   1.159  17.916 -0.8643 -0.8601  1.7002
  338TIP3    H225210   6.451   1.112  17.799  1.1573  1.1902 -0.7048
  339TIP3   OH225211   4.890   6.624  18.949 -0.2740 -0.2008  0.1055
  339TIP3    H125212   4.826   6.695  18.949 -2.0154 -1.6524 -1.7775
  339TIP3    H225213   4.860   6.565  19.018 -0.6161 -0.5646 -0.3477
  340TIP3   OH225214   2.294   3.809  17.203 -0.3318 -0.3401  0.3056
  340TIP3    H125215   2.285   3.741  17.137 -1.1414 -0.6472  0.7256
  340TIP3    H225216   2.336   3.882  17.157  0.0704 -0.9297 -0.2736
  341TIP3   OH225217   2.712   1.041  17.775 -0.0740 -0.7206 -0.3469
  341TIP3    H125218   2.703   1.057  17.869  0.7951 -1.5235 -0.1158
  341TIP3    H225219   2.677   1.121  17.735  0.3588  0.0152  0.6748
  342TIP3   OH225220   7.230   4.171  16.738 -0.2831 -0.0224  0.5437
  342TIP3    H125221   7.139   4.139  16.740 -0.5590  0.7252  0.3345
  342TIP3    H225222   7.222   4.263  16.714  0.6828 -0.6196 -2.5080
  343TIP3   OH225223   4.316   6.670  17.696  0.3870  0.7239 -0.0233
  343TIP3    H125224   4.329   6.727  17.772 -3.5508  2.3581 -0.3615
  343TIP3    H225225   4.328   6.727  17.620  0.0712  0.1676 -0.4983
  344TIP3   OH225226   7.256   0.999  17.838 -0.3474 -0.1547 -0.6060
  344TIP3    H125227   7.304   1.074  17.873  0.0723 -0.6178 -0.1709
  344TIP3    H225228   7.286   0.991  17.747  0.3362 -0.3819 -0.3640
  345TIP3   OH225229   5.357   7.394  18.786 -0.2831  1.0807  0.6270
  345TIP3    H125230   5.414   7.466  18.757  0.8118 -0.3560 -0.9730
  345TIP3    H225231   5.402   7.315  18.757 -1.1736 -0.3221  2.7989
  346TIP3   OH225232   0.250   7.408  17.585 -0.0158 -0.5509  0.5542
  346TIP3    H125233   0.236   7.358  17.666  1.8014  1.1559  2.0414
  346TIP3    H225234   0.341   7.391  17.562  0.1796  0.7979  0.2308
  347TIP3   OH225235   5.953   3.337  16.720  0.3794 -0.4215  0.5987
  347TIP3    H125236   5.876   3.387  16.694  0.8658 -0.2882 -0.6798
  347TIP3    H225237   5.918   3.262  16.768 -0.4953  0.0010  0.6434
  348TIP3   OH225238   2.251   6.371  18.761 -0.6457 -0.2559  0.2611
  348TIP3    H125239   2.242   6.319  18.682  1.5535  0.7510 -0.7229
  348TIP3    H225240   2.208   6.454  18.741 -1.0967 -0.4055  0.5735
  349TIP3   OH225241   1.523   3.913  16.747  0.2113 -0.1940 -0.3324
  349TIP3    H125242   1.544   4.006  16.753  2.2832 -0.6802  3.4428
  349TIP3    H225243   1.473   3.895  16.827 -0.1636 -2.3156 -0.9847
  350TIP3   OH225244   2.753   7.053  16.970  0.4758  0.3674  0.6480
  350TIP3    H125245   2.699   7.050  16.891 -0.0497  0.2021  1.0105
  350TIP3    H225246   2.837   7.017  16.942  0.0743 -0.3468  0.3336
  351TIP3   OH225247   6.882   2.201  17.331 -0.0445 -0.1982  0.1000
  351TIP3    H125248   6.848   2.129  17.278 -2.6603  0.0598  1.3008
  351TIP3    H225249   6.870   2.171  17.421  3.6253 -0.3221  0.7110
  352TIP3   OH225250   4.199   1.446  18.816 -0.0635  0.2454  0.1950
  352TIP3    H125251   4.209   1.523  18.759  0.1073  1.1356  1.3877
  352TIP3    H225252   4.172   1.482  18.901  1.5712 -0.8708  1.2461
  353TIP3   OH225253   6.272   5.958  18.224 -0.2988 -0.3962 -0.2264
  353TIP3    H125254   6.358   5.938  18.188 -0.7487  0.7569 -2.0928
  353TIP3    H225255   6.219   5.881  18.202  0.2442 -1.1408  0.9938
  354TIP3   OH225256   5.665   5.709  18.760  0.2029  0.2718 -0.1256
  354TIP3    H125257   5.699   5.673  18.677 -2.6773  0.6577 -1.5810
  354TIP3    H225258   5.679   5.803  18.752  0.6503  0.2354  0.2045
  355TIP3   OH225259   7.379   0.373  18.494 -0.0369  0.2749 -0.0846
  355TIP3    H125260   7.308   0.419  18.540  1.0885 -0.2920  2.4224
  355TIP3    H225261   7.390   0.422  18.413 -1.9360  1.5940  0.3640
  356TIP3   OH225262   1.634   3.272  17.615 -0.3829  0.0903  0.7008
  356TIP3    H125263   1.711   3.320  17.581 -1.6983  0.0559 -2.8031
  356TIP3    H225264   1.670   3.212  17.680  2.1995  1.7020  0.9146
  357TIP3   OH225265   2.467   2.004  17.859  0.0221 -0.2672 -0.4860
  357TIP3    H125266   2.393   2.000  17.797 -0.1992 -0.9819 -0.1824
  357TIP3    H225267   2.461   1.923  17.909  0.0974  0.3761  0.5988
  358TIP3   OH225268   7.354   2.191  16.639  0.5956 -0.0455  0.5400
  358TIP3    H125269   7.421   2.145  16.587  0.2815  1.7170 -1.6201
  358TIP3    H225270   7.402   2.262  16.681  0.2772  0.7763 -0.4228
  359TIP3   OH225271   4.827   1.961  17.667 -0.0603  0.0195  0.5480
  359TIP3    H125272   4.790   2.029  17.611  2.2344  0.3682 -0.6600
  359TIP3    H225273   4.785   1.880  17.639 -0.2685  0.4594 -0.4507
  360TIP3   OH225274   5.677   5.043  18.534 -0.3273  0.7102 -0.4567
  360TIP3    H125275   5.685   4.958  18.491 -0.1947  1.6486 -2.4130
  360TIP3    H225276   5.598   5.036  18.588 -0.3479 -0.6188 -0.6298
  361TIP3   OH225277   4.617   0.776  18.559 -0.7389 -0.1789 -0.1183
  361TIP3    H125278   4.682   0.797  18.626  1.3383 -1.4616 -1.5917
  361TIP3    H225279   4.573   0.859  18.542  0.0995  0.6206  1.3765
  362TIP3   OH225280   6.507   1.091  17.484 -0.0901  0.0470  0.4066
  362TIP3    H125281   6.542   1.053  17.404 -1.8385 -0.4047 -0.1896
  362TIP3    H225282   6.569   1.160  17.507 -0.4928  1.5007 -2.4172
  363TIP3   OH225283   3.814   6.480  17.513 -0.0125  0.3543 -0.0500
  363TIP3    H125284   3.797   6.427  17.591  1.1196  1.4943  1.0052
  363TIP3    H225285   3.902   6.456  17.486 -0.3476  0.0673 -0.9055
  364TIP3   OH225286   4.016   0.338  18.026 -0.2748  0.0872 -0.9999
  364TIP3    H125287   3.951   0.344  17.956 -0.9139  0.8731 -0.3682
  364TIP3    H225288   3.992   0.409  18.086  0.9736  0.1779 -0.5879
  365TIP3   OH225289   6.141   6.655  17.049 -0.2660  0.3609  0.0845
  365TIP3    H125290   6.195   6.733  17.045  0.1203  0.1167  0.4535
  365TIP3    H225291   6.065   6.680  17.102 -0.8388  0.8881 -0.9462
  366TIP3   OH225292   6.924   2.030  17.875  0.4849 -0.0086 -0.1311
  366TIP3    H125293   6.845   2.082  17.891  1.3897  1.1262  0.8704
  366TIP3    H225294   6.956   2.008  17.963  1.2839 -0.4421 -0.5226
  367TIP3   OH225295   2.338   2.394  17.864 -0.6498 -0.0114  0.1205
  367TIP3    H125296   2.307   2.329  17.800 -1.8540 -0.3920  1.0360
  367TIP3    H225297   2.429   2.369  17.881 -0.6320 -0.5288 -0.6636
  368TIP3   OH225298   5.989   6.148  17.132 -0.1407 -0.0776 -0.3816
  368TIP3    H125299   6.049   6.137  17.058 -1.7666  0.1708 -1.8047
  368TIP3    H225300   5.954   6.061  17.148 -2.4214  0.3612 -2.3219
  369TIP3   OH225301   5.891   6.651  17.655  0.1594  0.5613  0.2937
  369TIP3    H125302   5.948   6.639  17.579 -0.3690 -1.3026  0.1367
  369TIP3    H225303   5.950   6.652  17.729  0.6461  1.9904 -0.0775
  370TIP3   OH225304   4.617   4.805  18.347  0.0933 -0.1740 -0.1961
  370TIP3    H125305   4.712   4.798  18.337 -0.0703 -0.8231 -1.5309
  370TIP3    H225306   4.583   4.729  18.300 -1.1184  0.3862 -0.2534
  371TIP3   OH225307   2.301   3.316  16.839 -0.1361  0.4735 -0.2046
  371TIP3    H125308   2.270   3.230  16.810  0.5325  0.6635 -1.5517
  371TIP3    H225309   2.370   3.339  16.777 -0.1033  1.8619  0.3113
  372TIP3   OH225310   1.410   3.297  17.481 -0.1411  0.2466  0.2985
  372TIP3    H125311   1.396   3.203  17.466  1.0029 -0.0186  0.8117
  372TIP3    H225312   1.493   3.302  17.529  0.0560  1.5565 -0.1373
  373TIP3   OH225313   4.660   6.928  17.513 -0.1456 -0.2093 -0.0746
  373TIP3    H125314   4.687   6.854  17.458  1.7037 -0.1948  0.7466
  373TIP3    H225315   4.598   6.976  17.458  2.4879  0.4758 -2.7505
  374TIP3   OH225316   0.937   2.418  17.524  0.0986 -0.0228  0.1743
  374TIP3    H125317   0.863   2.417  17.464  1.1405  0.3360 -1.1637
  374TIP3    H225318   1.003   2.362  17.482  0.4657 -0.6220  1.5044
  375TIP3   OH225319   1.501   4.866  16.372  0.0875  0.2088 -0.1705
  375TIP3    H125320   1.477   4.798  16.309  0.6187  0.4255 -0.6210
  375TIP3    H225321   1.536   4.937  16.318  1.6751 -0.0778  0.4413
  376TIP3   OH225322   1.024   3.664  18.370  0.2148 -0.1767  0.0463
  376TIP3    H125323   1.075   3.652  18.290  0.2800  2.5942 -0.4123
  376TIP3    H225324   0.979   3.748  18.358 -0.6286 -0.2036  2.4661
  377TIP3   OH225325   2.714   4.168  17.710  0.0804  0.6403 -0.1127
  377TIP3    H125326   2.666   4.232  17.763  0.5642  0.8763  0.0473
  377TIP3    H225327   2.708   4.087  17.761  0.2102  0.7742  0.1234
  378TIP3   OH225328   3.157   5.470  18.511  0.5343  0.0593 -0.0469
  378TIP3    H125329   3.169   5.476  18.416 -0.2522  0.7338 -0.1170
  378TIP3    H225330   3.221   5.404  18.539 -0.6690 -1.7321 -1.3168
  379TIP3   OH225331   3.545   2.077  17.262 -0.1186  0.4585 -0.6355
  379TIP3    H125332   3.617   2.081  17.198  1.2202 -0.2316  0.7509
  379TIP3    H225333   3.554   1.991  17.303 -0.3416  1.2240  1.1144
  380TIP3   OH225334   5.826   5.808  16.652 -0.1182  0.0436 -0.2030
  380TIP3    H125335   5.830   5.733  16.711  1.6192  1.1089  1.1158
  380TIP3    H225336   5.733   5.817  16.631 -0.7591 -0.6010  2.0801
  381TIP3   OH225337   1.591   3.567  18.545  0.2079 -0.1170  0.0509
  381TIP3    H125338   1.673   3.592  18.502  0.6193  0.1843  0.9979
  381TIP3    H225339   1.536   3.646  18.537  0.6565  0.2975  0.9702
  382TIP3   OH225340   7.145   3.116  17.771  0.5959  0.3953  0.8758
  382TIP3    H125341   7.184   3.033  17.743  0.5468  0.1889  1.3949
  382TIP3    H225342   7.059   3.091  17.806 -0.9600  1.0793 -2.1467
  383TIP3   OH225343   1.763   3.490  17.473  0.0483 -0.4786 -0.4277
  383TIP3    H125344   1.855   3.497  17.447  0.8352 -0.3182  2.1527
  383TIP3    H225345   1.742   3.574  17.513 -0.6191 -1.1453  0.7055
  384TIP3   OH225346   1.292   1.560  17.422  0.3917 -0.0059 -0.8960
  384TIP3    H125347   1.294   1.646  17.380 -1.4335 -0.5806 -2.2774
  384TIP3    H225348   1.384   1.533  17.424  1.1600  2.4121  0.6235
  385TIP3   OH225349   2.742   6.259  17.590 -0.0055 -0.0683 -0.8135
  385TIP3    H125350   2.685   6.324  17.631  1.1347  0.4090  0.0547
  385TIP3    H225351   2.824   6.305  17.573  0.8838 -1.2936 -0.0558
  386TIP3   OH225352   6.758   0.839  17.483  0.0301  0.0684  0.4326
  386TIP3    H125353   6.741   0.882  17.567  1.2241 -0.4327  0.9458
  386TIP3    H225354   6.826   0.775  17.502 -2.7482 -3.2480  0.0594
  387TIP3   OH225355   3.299   6.981  17.273 -0.0021  0.0674  0.7663
  387TIP3    H125356   3.349   6.917  17.325  0.6217 -0.1467 -0.0765
  387TIP3    H225357   3.267   6.930  17.198  1.1599  0.8815 -0.3334
  388TIP3   OH225358   6.769   5.045  18.554 -0.6342  0.2196 -0.0341
  388TIP3    H125359   6.858   5.074  18.539 -1.0733  2.2173  0.8835
  388TIP3    H225360   6.777   4.974  18.617  0.4799 -1.8536 -2.3551
  389TIP3   OH225361   5.387   3.351  17.044  0.4388  0.5768 -0.5505
  389TIP3    H125362   5.378   3.289  16.972 -0.5346  1.5243 -1.2769
  389TIP3    H225363   5.345   3.309  17.118  1.8891 -0.6268 -0.3504
  390TIP3   OH225364   5.552   1.073  15.725 -0.5477 -0.0199  0.0832
  390TIP3    H125365   5.569   1.058  15.632  1.3244 -1.3758  0.5850
  390TIP3    H225366   5.635   1.052  15.769 -2.8441 -5.5369  2.6703
  391TIP3   OH225367   2.288   0.596  18.116  0.3614 -0.0902  0.1779
  391TIP3    H125368   2.360   0.651  18.148  0.1048  0.7457 -0.6389
  391TIP3    H225369   2.216   0.612  18.177  0.3308  0.3922  0.0220
  392TIP3   OH225370   4.533   0.205  16.668 -0.1163  0.0546 -0.1945
  392TIP3    H125371   4.482   0.137  16.713 -0.5596  1.6015  1.7964
  392TIP3    H225372   4.601   0.229  16.730  1.0407  0.3201 -1.5231
  393TIP3   OH225373   2.906   0.902  18.065  0.3549  0.0710 -0.8979
  393TIP3    H125374   2.895   0.996  18.073 -0.2364  0.0752 -1.6844
  393TIP3    H225375   2.831   0.864  18.111  0.5778 -0.0225 -0.6045
  394TIP3   OH225376   1.956   2.094  16.471 -0.2023  0.2201  0.0536
  394TIP3    H125377   2.035   2.094  16.417 -0.3509 -0.6631 -0.1715
  394TIP3    H225378   1.925   2.004  16.470 -2.0300  0.7914 -1.0623
  395TIP3   OH225379   3.709   1.341  16.067  0.3152 -0.9470  0.2397
  395TIP3    H125380   3.779   1.363  16.129 -1.3437  0.9616  1.5763
  395TIP3    H225381   3.673   1.426  16.041  0.0764 -1.7653 -2.3653
  396TIP3   OH225382   0.336   5.167  17.527 -0.3104 -0.1359  0.9841
  396TIP3    H125383   0.327   5.207  17.441  0.0815 -0.8052  0.6325
  396TIP3    H225384   0.312   5.237  17.588 -0.7838  0.2843  0.3339
  397TIP3   OH225385   3.233   5.431  16.189  0.8234  0.6964 -0.0803
  397TIP3    H125386   3.273   5.347  16.212 -0.8105  0.8034  3.7376
  397TIP3    H225387   3.139   5.418  16.201  0.3664  2.6172 -1.1032
  398TIP3   OH225388   0.319   1.228  17.111 -0.1133  0.0803  0.0663
  398TIP3    H125389   0.365   1.284  17.049 -1.6475  0.9292 -0.3564
  398TIP3    H225390   0.266   1.170  17.056 -0.5311 -0.0133  0.5600
  399TIP3   OH225391   2.081   1.208  16.259 -0.2857  0.1541 -0.3877
  399TIP3    H125392   2.145   1.165  16.203  0.4698 -0.0914  0.6497
  399TIP3    H225393   2.125   1.220  16.342 -1.3374  0.6677  0.1196
  400TIP3   OH225394   6.131   0.298  18.428 -0.3795  0.0012 -0.2925
  400TIP3    H125395   6.035   0.303  18.424 -0.5585 -2.8490 -0.9587
  400TIP3    H225396   6.151   0.313  18.521 -1.5560 -0.4363  0.0515
  401TIP3   OH225397   4.467   2.496  18.010  0.4294 -0.5650  0.1600
  401TIP3    H125398   4.465   2.580  17.965  0.0372 -0.1930  0.8507
  401TIP3    H225399   4.557   2.466  18.001  0.6783  0.1299  0.2669
  402TIP3   OH225400   3.849   1.747  17.206 -0.2997  0.2575  0.1160
  402TIP3    H125401   3.763   1.713  17.179  0.2580 -0.8550 -0.3053
  402TIP3    H225402   3.892   1.673  17.247  0.0255  1.1379  1.4084
  403TIP3   OH225403   4.974   5.091  19.086  0.0671 -0.2450 -0.5103
  403TIP3    H125404   4.912   5.090  19.159  2.8485 -1.1596  2.0387
  403TIP3    H225405   4.987   5.184  19.066 -0.8237  0.0084  0.0410
  404TIP3   OH225406   0.287   2.563  18.537 -0.3494 -0.0586  0.2032
  404TIP3    H125407   0.235   2.516  18.602  0.4986 -0.6966  0.4389
  404TIP3    H225408   0.302   2.499  18.467 -0.3998  0.3140 -0.1538
  405TIP3   OH225409   0.598   5.432  17.177 -0.1848 -0.1122  0.2630
  405TIP3    H125410   0.528   5.369  17.161  0.2068 -0.1904 -1.3991
  405TIP3    H225411   0.571   5.480  17.255 -1.8871 -0.4192 -0.0992
  406TIP3   OH225412   1.535   0.085  17.614  0.4431  0.0197  0.9730
  406TIP3    H125413   1.538   0.106  17.707 -0.6364 -0.6940  1.1939
  406TIP3    H225414   1.569  -0.004  17.608  1.6868  0.5109  0.5103
  407TIP3   OH225415   2.179   0.389  18.492  0.4329 -0.6978 -0.4487
  407TIP3    H125416   2.097   0.390  18.444 -0.5711 -0.6158  1.1879
  407TIP3    H225417   2.224   0.309  18.462  1.1942  0.7359 -3.5312
  408TIP3   OH225418   0.156   4.189  17.903  0.1098  0.1017 -0.4080
  408TIP3    H125419   0.173   4.174  17.810  1.2787 -0.6863 -0.0921
  408TIP3    H225420   0.061   4.188  17.910  0.0180 -0.4810 -1.4954
  409TIP3   OH225421   6.698   6.414  16.979  1.0860 -0.3127  0.1944
  409TIP3    H125422   6.707   6.499  16.936  2.1180 -0.8691 -0.7249
  409TIP3    H225423   6.691   6.435  17.072  1.0828  0.7835 -0.0351
  410TIP3   OH225424   3.676   6.408  19.180 -0.4538 -0.3334 -0.5406
  410TIP3    H125425   3.611   6.475  19.204  1.3296  1.9090 -1.5798
  410TIP3    H225426   3.694   6.425  19.087  0.7557 -1.6729 -0.5735
  411TIP3   OH225427   7.047   5.575  18.435 -0.2324 -0.7370 -0.2096
  411TIP3    H125428   7.055   5.670  18.424  0.9294 -1.1285 -4.1572
  411TIP3    H225429   7.130   5.550  18.477 -1.5640  0.0777  3.2801
  412TIP3   OH225430   1.464   2.145  18.607  0.0088  0.4132 -0.2214
  412TIP3    H125431   1.368   2.150  18.614 -0.1715 -0.6401 -1.4905
  412TIP3    H225432   1.486   2.061  18.648  0.0971 -0.4709 -1.9656
  413TIP3   OH225433   6.584   6.977  17.625 -0.0930 -0.1465 -0.3811
  413TIP3    H125434   6.638   6.966  17.547 -1.1960 -0.6567 -1.0916
  413TIP3    H225435   6.538   6.894  17.635 -0.5905  0.1966  0.3324
  414TIP3   OH225436   0.552   6.280  18.417 -0.2520  0.3794 -0.2490
  414TIP3    H125437   0.631   6.269  18.469  0.2125 -0.6103 -1.1331
  414TIP3    H225438   0.509   6.357  18.455  1.6520  1.5855 -0.3959
  415TIP3   OH225439   5.929   5.218  18.338  0.0214 -0.5165  0.0368
  415TIP3    H125440   5.842   5.228  18.300 -0.0686 -2.2180 -0.2599
  415TIP3    H225441   5.943   5.299  18.387 -1.5613 -0.0588 -0.2230
  416TIP3   OH225442   3.959   6.792  18.811 -0.4056  0.5560 -0.0330
  416TIP3    H125443   3.999   6.869  18.853 -1.3396  0.2265  1.4979
  416TIP3    H225444   3.872   6.821  18.785 -0.2590  0.4051 -0.7244
  417TIP3   OH225445   0.787   6.768  19.060  0.4081 -0.5808 -0.1126
  417TIP3    H125446   0.809   6.845  19.112  0.0137 -0.4649 -0.1129
  417TIP3    H225447   0.764   6.701  19.124 -2.1222  0.1594 -0.1120
  418TIP3   OH225448   5.415   3.937  18.723  0.3078 -0.0734  0.6183
  418TIP3    H125449   5.481   3.889  18.673 -0.1372 -0.5910  0.5190
  418TIP3    H225450   5.378   3.999  18.660  0.0066 -0.4712  0.3979
  419TIP3   OH225451   6.802   1.656  18.234 -0.5406 -0.2829  0.1759
  419TIP3    H125452   6.753   1.634  18.154 -0.1887 -1.9319  0.3939
  419TIP3    H225453   6.851   1.577  18.255 -0.1403  0.3408  1.6908
  420TIP3   OH225454   4.841   1.711  17.477  0.8188  0.2008  0.1871
  420TIP3    H125455   4.868   1.699  17.386  2.9958  0.5873  0.7256
  420TIP3    H225456   4.756   1.669  17.482 -0.5418  2.2597 -2.6142
  421TIP3   OH225457   0.781   5.108  17.600 -0.1068  0.0020 -0.4908
  421TIP3    H125458   0.749   5.080  17.686  0.8240 -1.6053 -0.6262
  421TIP3    H225459   0.737   5.191  17.583 -1.8155 -0.6302  0.6644
  422TIP3   OH225460   4.406   5.015  18.258  0.2716  0.0376  0.3529
  422TIP3    H125461   4.362   5.098  18.238  0.6773  0.1618 -0.0293
  422TIP3    H225462   4.480   5.039  18.314 -0.3448 -0.2117  1.3070
  423TIP3   OH225463   3.148   0.651  18.462  0.6686  0.0502  0.2646
  423TIP3    H125464   3.176   0.639  18.371  1.4904 -1.4019  0.6891
  423TIP3    H225465   3.063   0.694  18.455  0.2821 -0.8811 -1.2301
  424TIP3   OH225466   3.933   5.950  16.546 -0.2487  0.1032 -0.0706
  424TIP3    H125467   3.899   6.039  16.542  0.7335  0.6888  2.6244
  424TIP3    H225468   4.004   5.949  16.481  0.3010  1.5867  0.4593
  425TIP3   OH225469   2.879   0.661  18.367  0.1071  0.0307 -0.4224
  425TIP3    H125470   2.861   0.594  18.434 -1.2822 -0.2546 -1.0378
  425TIP3    H225471   2.807   0.724  18.377  0.3652  0.4380 -1.0941
  426TIP3   OH225472   2.835   3.900  18.300 -0.0689 -0.4070 -0.4253
  426TIP3    H125473   2.793   3.979  18.335 -0.4403 -0.6765 -0.2588
  426TIP3    H225474   2.829   3.910  18.205 -2.6926 -1.5540 -0.4598
  427TIP3   OH225475   4.810   6.570  16.620  0.2422 -0.3878 -0.0215
  427TIP3    H125476   4.787   6.663  16.610  3.2687  0.5923  0.9887
  427TIP3    H225477   4.725   6.526  16.628 -1.3227  2.4163  0.5459
  428TIP3   OH225478   1.737   5.647  16.968  0.0502  0.2034  0.3405
  428TIP3    H125479   1.814   5.701  16.981  0.1876  0.0794  0.0414
  428TIP3    H225480   1.756   5.567  17.017  0.1799  0.1059  0.1294
  429TIP3   OH225481   5.408   1.266  18.340  0.1804  0.3316  0.4515
  429TIP3    H125482   5.500   1.287  18.324  0.4321  0.3566  1.8486
  429TIP3    H225483   5.410   1.207  18.415 -1.0485  1.6364  1.5501
  430TIP3   OH225484   1.534   1.450  17.389  0.3577 -0.1671 -0.6194
  430TIP3    H125485   1.566   1.518  17.449 -0.2932 -0.1249 -0.3038
  430TIP3    H225486   1.565   1.477  17.303 -1.2888  1.4642 -0.7655
  431TIP3   OH225487   1.898   4.198  17.761 -0.0484  0.0773  0.4133
  431TIP3    H125488   1.868   4.281  17.799  0.2625  1.1174 -1.4546
  431TIP3    H225489   1.885   4.209  17.667  0.5200 -1.8086  0.0683
  432TIP3   OH225490   1.831   3.913  16.644 -0.1492 -0.1518  0.4905
  432TIP3    H125491   1.782   3.858  16.583 -0.3724  0.8379 -0.2439
  432TIP3    H225492   1.765   3.963  16.690  0.1240  1.2294 -0.5411
  433TIP3   OH225493   3.389   5.706  17.223 -0.1703 -0.5463 -0.5611
  433TIP3    H125494   3.389   5.615  17.192  0.3771 -0.5662 -0.5030
  433TIP3    H225495   3.373   5.758  17.145  0.4114 -0.6416 -0.7462
  434TIP3   OH225496   0.806   4.634  16.872 -0.0460 -0.1628 -0.0745
  434TIP3    H125497   0.830   4.559  16.816  0.0829 -1.5418  1.7250
  434TIP3    H225498   0.747   4.686  16.818 -0.9863 -2.1255 -1.0460
  435TIP3   OH225499   5.468   5.197  16.825  0.6402  0.1243  0.1362
  435TIP3    H125500   5.453   5.122  16.767 -0.9626 -0.2315  0.9527
  435TIP3    H225501   5.563   5.201  16.835  0.7599 -1.8677  0.1538
  436TIP3   OH225502   3.752   1.501  17.754 -0.6932 -0.3737  0.5785
  436TIP3    H125503   3.715   1.415  17.736 -3.5813  1.3024 -2.5094
  436TIP3    H225504   3.698   1.535  17.825 -1.7060  0.0444 -0.3629
  437TIP3   OH225505   0.984   4.956  16.219  0.3932 -0.1844 -0.1836
  437TIP3    H125506   0.917   4.888  16.209  0.7548 -0.6303  0.3582
  437TIP3    H225507   0.948   5.032  16.173  0.1868 -0.8820 -1.2241
  438TIP3   OH225508   1.587   0.247  17.399 -0.7506  0.1984  0.1917
  438TIP3    H125509   1.582   0.184  17.471 -2.0487 -0.3210 -0.3230
  438TIP3    H225510   1.504   0.237  17.353 -0.0545  0.7325 -1.2128
  439TIP3   OH225511   4.533   5.607  18.923 -0.3069 -0.3811  0.3974
  439TIP3    H125512   4.593   5.543  18.884  0.4247  1.1778 -1.1782
  439TIP3    H225513   4.566   5.620  19.012  0.5755 -0.9355  0.1634
  440TIP3   OH225514   2.531   7.474  18.252 -0.5062  0.0695 -0.3023
  440TIP3    H125515   2.602   7.482  18.189 -1.4266 -1.5122 -1.6335
  440TIP3    H225516   2.558   7.402  18.309 -1.0597 -0.5988 -0.8702
  441TIP3   OH225517   3.538   5.857  16.545  0.0066  0.1047  0.5373
  441TIP3    H125518   3.582   5.893  16.622 -1.6167  0.6442  1.2466
  441TIP3    H225519   3.506   5.771  16.574 -0.7757  0.3924  0.5349
  442TIP3   OH225520   4.738   5.537  18.462  0.5690  0.2026 -0.1288
  442TIP3    H125521   4.771   5.448  18.473 -0.2183 -0.2825 -1.3955
  442TIP3    H225522   4.795   5.591  18.516  1.3726 -1.0067  0.2755
  443TIP3   OH225523   3.640   3.648  17.119  0.3351  0.3206  0.3541
  443TIP3    H125524   3.724   3.642  17.163  0.6274  0.2849 -0.2104
  443TIP3    H225525   3.643   3.729  17.070  1.2993 -1.1555 -2.2122
  444TIP3   OH225526   1.328   7.634  17.788 -0.4825 -0.1204  0.0553
  444TIP3    H125527   1.314   7.710  17.845 -0.1408 -0.1213  0.1478
  444TIP3    H225528   1.306   7.665  17.701 -0.5386  0.0272  0.1218
  445TIP3   OH225529   7.441   1.219  17.903  0.3220 -0.5534 -0.2600
  445TIP3    H125530   7.482   1.213  17.817  1.8952 -1.7007  0.5187
  445TIP3    H225531   7.477   1.300  17.941 -1.5676  0.8013 -1.2208
  446TIP3   OH225532   4.164   4.839  17.756 -0.3570 -0.1146 -0.3472
  446TIP3    H125533   4.093   4.887  17.713  0.0129 -0.4458 -1.3474
  446TIP3    H225534   4.144   4.747  17.740  0.4910 -0.1976 -0.9526
  447TIP3   OH225535   6.636   4.942  16.647  0.5327 -0.4309  0.5500
  447TIP3    H125536   6.570   4.928  16.714  0.0050  0.3217  0.2020
  447TIP3    H225537   6.637   5.037  16.633  0.6892 -0.5620 -0.4496
  448TIP3   OH225538   5.248   5.068  16.954  0.0973  0.0521 -0.2780
  448TIP3    H125539   5.288   4.990  16.916 -0.1493  0.7595 -2.1145
  448TIP3    H225540   5.312   5.137  16.940 -1.3568  1.0449 -2.6343
  449TIP3   OH225541   5.718   2.297  15.960 -0.5026  0.3765  0.2937
  449TIP3    H125542   5.747   2.378  15.919 -0.8926  0.3933  0.0442
  449TIP3    H225543   5.799   2.251  15.983 -0.2786  0.2168 -0.7840
  450TIP3   OH225544   0.066   4.832  18.562  0.3759 -0.6817 -0.1430
  450TIP3    H125545   0.161   4.827  18.570  0.7309  2.6197 -0.6402
  450TIP3    H225546   0.038   4.878  18.642 -0.1676  2.0720 -1.7693
  451TIP3   OH225547   4.681   5.439  17.682 -0.0190 -0.0585  0.2446
  451TIP3    H125548   4.768   5.400  17.677  0.3312  0.8215 -1.0156
  451TIP3    H225549   4.674   5.470  17.772  1.2668  0.5117  0.1656
  452TIP3   OH225550   4.138   6.639  18.364 -0.2174  0.2952  0.2985
  452TIP3    H125551   4.223   6.658  18.402  0.9684 -3.0963 -0.2948
  452TIP3    H225552   4.075   6.665  18.431  1.5151 -0.7564  2.4794
  453TIP3   OH225553   4.934   4.689  18.420  0.3013 -0.2505 -0.8273
  453TIP3    H125554   4.983   4.652  18.493 -0.2534  0.2370 -0.1923
  453TIP3    H225555   4.874   4.620  18.393  0.3557 -0.3587 -0.6695
  454TIP3   OH225556   2.123   4.172  18.252  0.3699  0.0663 -0.1391
  454TIP3    H125557   2.094   4.165  18.343  2.4436 -0.1842  0.5350
  454TIP3    H225558   2.084   4.096  18.209 -0.5820  0.1594  0.5331
  455TIP3   OH225559   1.855   0.474  18.524  0.1439 -0.3096  0.5312
  455TIP3    H125560   1.879   0.555  18.569  1.5426 -1.3470  1.7615
  455TIP3    H225561   1.759   0.477  18.517 -0.0928  0.1476  3.1653
  456TIP3   OH225562   2.723   6.559  17.304 -0.3515  0.2565 -0.0860
  456TIP3    H125563   2.758   6.643  17.274  1.2323  0.2098  1.4552
  456TIP3    H225564   2.631   6.576  17.323 -0.3691  1.2920 -1.0260
  457TIP3   OH225565   2.327   4.325  18.095 -0.7441 -0.1083 -0.3803
  457TIP3    H125566   2.260   4.269  18.133 -0.1332  0.0272  0.9549
  457TIP3    H225567   2.280   4.380  18.033 -1.6190 -0.9670 -0.5114
  458TIP3   OH225568   4.481   7.400  18.551 -0.1413 -0.1086 -0.3620
  458TIP3    H125569   4.543   7.468  18.576 -1.1060  0.0666  1.8644
  458TIP3    H225570   4.496   7.385  18.458  2.3797  0.7533 -0.1552
  459TIP3   OH225571   2.548   3.763  17.335 -0.1396  0.0484 -0.3987
  459TIP3    H125572   2.583   3.822  17.402 -2.7409  1.2963 -0.0096
  459TIP3    H225573   2.504   3.821  17.272 -1.5392 -1.3611 -0.7884
  460TIP3   OH225574   3.024   4.005  17.828  0.1875 -0.6124  0.1812
  460TIP3    H125575   3.074   3.960  17.896  0.1878  0.0263  0.6216
  460TIP3    H225576   3.009   4.093  17.864 -2.4743 -1.1854  0.6837
  461TIP3   OH225577   2.491   7.256  17.002  0.2470 -0.1005  0.3645
  461TIP3    H125578   2.483   7.322  17.071 -1.4233  0.6082 -0.4422
  461TIP3    H225579   2.449   7.296  16.926  0.0802 -1.7180 -0.4378
  462TIP3   OH225580   6.956   0.088  18.149 -0.3031  0.2681 -0.1158
  462TIP3    H125581   7.027   0.150  18.134 -0.8802  1.2105  0.8284
  462TIP3    H225582   6.879   0.130  18.109 -0.4003 -0.5665 -0.8148
  463TIP3   OH225583   4.266   6.030  16.559 -0.4253  0.4180 -0.5840
  463TIP3    H125584   4.344   6.056  16.510  0.8350 -1.6998  0.1975
  463TIP3    H225585   4.212   5.984  16.495 -0.1969  0.3134 -0.7028
  464TIP3   OH225586   7.668   4.893  19.020 -0.3810  0.2116  1.1441
  464TIP3    H125587   7.696   4.909  19.110 -0.3550  2.9943  0.7405
  464TIP3    H225588   7.593   4.834  19.028  1.3808 -1.9607  2.7147
  465TIP3   OH225589   0.613   2.666  17.598 -0.0357 -0.3923 -0.4478
  465TIP3    H125590   0.672   2.706  17.535  1.7744 -0.5309  1.0583
  465TIP3    H225591   0.568   2.597  17.549  2.7456 -1.8190 -1.1943
  466TIP3   OH225592   4.874   5.200  17.281  0.1296 -0.3758 -0.3387
  466TIP3    H125593   4.793   5.221  17.328 -0.2608 -0.3015 -1.0339
  466TIP3    H225594   4.854   5.218  17.190  0.5589 -1.4556 -0.6634
  467TIP3   OH225595   3.996   1.522  17.428 -0.2569 -0.4173  0.4189
  467TIP3    H125596   4.027   1.486  17.511  2.1388 -1.6875 -0.9335
  467TIP3    H225597   3.912   1.563  17.450  0.4268 -0.4118  3.5003
  468TIP3   OH225598   5.195   5.325  18.001  0.1672 -0.0615 -0.0763
  468TIP3    H125599   5.234   5.354  17.919  0.0980  0.0759 -0.0613
  468TIP3    H225600   5.109   5.367  18.004 -0.0025 -0.3990 -0.1319
  469TIP3   OH225601   2.547   1.576  17.583 -0.2498  0.0897 -0.0105
  469TIP3    H125602   2.464   1.600  17.542 -0.7104 -1.5424 -0.1052
  469TIP3    H225603   2.592   1.522  17.517 -0.1839 -1.0209  0.9043
  470TIP3   OH225604   7.217   0.865  17.361  0.3095  0.3900 -0.0594
  470TIP3    H125605   7.209   0.796  17.426  0.5575  0.5123  0.1000
  470TIP3    H225606   7.262   0.824  17.287 -1.3812 -0.2001 -0.8143
  471TIP3   OH225607   3.439   7.243  18.573  0.9144 -0.2265  0.6709
  471TIP3    H125608   3.426   7.163  18.523  0.9320 -0.3608  0.8789
  471TIP3    H225609   3.388   7.310  18.527 -2.9105 -1.2532  2.9600
  472TIP3   OH225610   2.662   6.153  18.933  0.0304  0.3147  0.3048
  472TIP3    H125611   2.623   6.112  19.009  0.6858 -0.0485  0.4482
  472TIP3    H225612   2.611   6.233  18.920  0.1034  0.5339  1.3068
  473TIP3   OH225613   3.815   1.988  17.367 -0.5276  0.1432 -0.0156
  473TIP3    H125614   3.837   1.925  17.298  1.0152  1.1301 -0.4896
  473TIP3    H225615   3.900   2.018  17.400 -1.2165  1.3998  0.7178
  474TIP3   OH225616   7.660   0.748  18.655 -0.2137 -0.3188 -0.1092
  474TIP3    H125617   7.754   0.744  18.642 -0.3080 -1.7961 -0.4921
  474TIP3    H225618   7.649   0.771  18.747  0.5055  0.4543 -0.2100
  475TIP3   OH225619   5.626   5.807  17.599 -0.4945  0.0022  0.8419
  475TIP3    H125620   5.558   5.745  17.571 -0.1377  0.2165 -0.5709
  475TIP3    H225621   5.593   5.892  17.571 -2.1418  0.9013  4.8837
  476TIP3   OH225622   6.319   7.462  16.884 -0.1885 -0.4683  0.2215
  476TIP3    H125623   6.344   7.436  16.795  0.1133 -1.5641  0.6103
  476TIP3    H225624   6.225   7.449  16.888 -0.5557  1.5634 -0.5613
  477TIP3   OH225625   5.587   4.463  17.082  0.2275 -0.3044  0.4622
  477TIP3    H125626   5.535   4.431  17.156  0.1543 -0.0218  0.5319
  477TIP3    H225627   5.647   4.390  17.063 -0.5666 -0.8569  0.0201
  478TIP3   OH225628   5.156   7.233  16.189 -0.1930  0.1522 -0.0266
  478TIP3    H125629   5.209   7.312  16.178 -0.6488  0.5747  0.7850
  478TIP3    H225630   5.098   7.253  16.262 -1.2926 -0.4063 -0.7266
  479TIP3   OH225631   3.323   7.063  16.839  0.8753  0.7886  0.1657
  479TIP3    H125632   3.241   7.103  16.867  0.7716  0.9770 -0.4071
  479TIP3    H225633   3.350   7.114  16.763  0.2569 -0.7948 -1.1649
  480TIP3   OH225634   4.873   0.482  18.723 -0.2957 -0.5796 -0.4848
  480TIP3    H125635   4.808   0.495  18.654  0.2552  0.2276 -0.8600
  480TIP3    H225636   4.867   0.388  18.743 -1.9348 -0.4364 -0.1270
  481TIP3   OH225637   4.726   6.792  17.750  0.2980  0.4179 -0.0421
  481TIP3    H125638   4.711   6.865  17.690 -0.7291  0.0437 -0.2523
  481TIP3    H225639   4.698   6.714  17.701 -0.1792  0.0661  0.7690
  482TIP3   OH225640   3.875   3.606  18.161  0.6683 -0.0458  0.3368
  482TIP3    H125641   3.927   3.570  18.089 -0.8887  0.2798 -1.0171
  482TIP3    H225642   3.794   3.635  18.119 -1.5012 -2.3244  2.5983
  483TIP3   OH225643   6.809   4.724  17.869  0.0697 -0.2977 -0.5578
  483TIP3    H125644   6.875   4.660  17.897  0.2819 -0.3283 -1.1259
  483TIP3    H225645   6.780   4.694  17.783 -1.1896 -0.6634 -0.0228
  484TIP3   OH225646   0.345   6.089  18.398 -0.1036 -0.1028 -0.2350
  484TIP3    H125647   0.430   6.132  18.410  0.1157 -0.4250 -0.6014
  484TIP3    H225648   0.367   5.997  18.385 -0.5649 -0.3165  0.4552
  485TIP3   OH225649   6.821   6.808  17.065  0.0278 -0.5637 -0.2160
  485TIP3    H125650   6.899   6.863  17.066  0.0723 -0.6116  1.6614
  485TIP3    H225651   6.845   6.733  17.119 -0.4141 -1.9262 -1.8275
  486TIP3   OH225652   6.735   0.776  18.084 -0.4055 -0.4404  0.0034
  486TIP3    H125653   6.765   0.774  17.993 -1.9033 -1.2160 -0.5248
  486TIP3    H225654   6.716   0.868  18.101 -0.5904 -0.3481 -0.6604
  487TIP3   OH225655   5.725   0.166  17.260 -0.0820 -0.5220 -0.3987
  487TIP3    H125656   5.653   0.155  17.322 -0.7917  0.7784 -0.9574
  487TIP3    H225657   5.696   0.123  17.180 -0.8585  1.1654 -1.0643
  488TIP3   OH225658   6.900   3.462  17.170  0.1810 -0.3298  0.6700
  488TIP3    H125659   6.986   3.444  17.209  0.9345  0.6954 -0.4410
  488TIP3    H225660   6.900   3.556  17.154 -0.4362 -0.5640 -0.9409
  489TIP3   OH225661   1.947   3.788  18.843 -0.1701  0.3676  0.4283
  489TIP3    H125662   1.897   3.709  18.864 -0.7433  1.0091  1.5677
  489TIP3    H225663   1.889   3.860  18.868  0.9942  1.1394  0.9939
  490TIP3   OH225664   5.469   3.601  16.972  0.3034 -0.0652 -0.0734
  490TIP3    H125665   5.432   3.535  17.030  0.8746  1.1057  1.6965
  490TIP3    H225666   5.452   3.567  16.884 -1.3757 -1.4880  0.7245
  491TIP3   OH225667   6.049   4.331  16.647  0.2454  0.2380 -0.4925
  491TIP3    H125668   6.013   4.302  16.563 -0.7302  0.6504 -0.2225
  491TIP3    H225669   6.051   4.252  16.701  0.0326  0.1509 -0.6126
  492TIP3   OH225670   0.173   1.693  17.265  0.3226 -0.3308 -0.1939
  492TIP3    H125671   0.149   1.624  17.203 -0.2573 -1.1962  0.9546
  492TIP3    H225672   0.090   1.738  17.284 -0.2002 -2.1189  2.3303
  493TIP3   OH225673   6.691   6.605  17.521  0.0052 -0.6190 -0.4663
  493TIP3    H125674   6.711   6.699  17.525  2.2135 -0.9674 -1.9038
  493TIP3    H225675   6.703   6.575  17.611  0.3428  0.2828 -0.1936
  494TIP3   OH225676   5.173   0.177  18.718  0.5043  0.1362  0.1648
  494TIP3    H125677   5.123   0.188  18.637 -1.9774  2.2156  1.8168
  494TIP3    H225678   5.141   0.096  18.756  0.5324 -0.0295 -0.1646
  495TIP3   OH225679   0.041   1.657  16.341 -0.3717 -0.3572  0.0807
  495TIP3    H125680   0.007   1.745  16.355  1.1138 -0.0921  2.6923
  495TIP3    H225681  -0.034   1.600  16.356 -1.1740  0.4191 -0.8640
  496TIP3   OH225682   4.236   3.452  17.226 -0.5578  0.0708  0.0954
  496TIP3    H125683   4.270   3.519  17.166 -0.6333  0.9155  0.9672
  496TIP3    H225684   4.256   3.369  17.183 -1.0018  0.6594 -1.2968
  497TIP3   OH225685   5.345   0.250  17.641  0.1319  0.4027  0.1418
  497TIP3    H125686   5.255   0.277  17.627  0.2866  0.6725 -0.3592
  497TIP3    H225687   5.373   0.298  17.719 -0.1191  0.4097  0.2284
  498TIP3   OH225688   6.660   5.227  17.694  0.1693 -0.3580  0.6522
  498TIP3    H125689   6.607   5.162  17.648  1.8344 -0.1913 -1.6563
  498TIP3    H225690   6.610   5.308  17.687 -0.8188 -0.8579  1.5206
  499TIP3   OH225691   5.983   0.860  16.256 -0.5444  0.5441  0.8410
  499TIP3    H125692   6.018   0.834  16.171 -2.4179 -1.5431  0.6263
  499TIP3    H225693   5.893   0.887  16.238 -0.1408  2.8063  1.8161
  500TIP3   OH225694   0.719   5.635  18.328 -0.2456 -0.1824 -0.3420
  500TIP3    H125695   0.762   5.619  18.244 -0.6141 -0.8936 -0.4067
  500TIP3    H225696   0.666   5.712  18.314  0.5181  0.3379 -0.4433
  501TIP3   OH225697   5.950   2.214  16.087  0.0093 -0.5904  0.5962
  501TIP3    H125698   6.009   2.142  16.063 -0.1052 -0.6298  0.4296
  501TIP3    H225699   6.009   2.284  16.113  0.1714 -0.3101 -0.4682
  502TIP3   OH225700   3.673   7.223  16.381 -0.1598  0.1835  0.2385
  502TIP3    H125701   3.673   7.279  16.459  0.0383  0.9326 -0.2803
  502TIP3    H225702   3.581   7.201  16.367 -0.1386 -0.4157  0.9997
  503TIP3   OH225703   7.481   3.328  17.479  0.6497  0.2430  0.2027
  503TIP3    H125704   7.502   3.420  17.464 -0.7671  0.4506 -0.7215
  503TIP3    H225705   7.404   3.330  17.535  0.9475 -0.3952  0.6442
  504TIP3   OH225706   0.420   0.311  18.230  0.5024 -0.3403  0.6231
  504TIP3    H125707   0.446   0.229  18.188 -0.5876 -1.0229  1.2414
  504TIP3    H225708   0.401   0.288  18.321 -1.8998  0.1249  0.3198
  505TIP3   OH225709   6.741   4.658  17.595  0.2173  0.2448 -0.0838
  505TIP3    H125710   6.682   4.721  17.554 -0.5026 -0.3214  0.0681
  505TIP3    H225711   6.687   4.581  17.610  0.1981  0.7221  2.7793
  506TIP3   OH225712   3.363   2.188  18.122  0.9009 -0.0871  0.0330
  506TIP3    H125713   3.420   2.225  18.055 -0.6836  0.5054 -1.0538
  506TIP3    H225714   3.281   2.237  18.114 -0.4736 -2.2143  0.1396
  507TIP3   OH225715   7.650   6.062  17.438  0.4955 -0.0821 -0.4279
  507TIP3    H125716   7.586   6.100  17.498  1.3147  0.8239 -0.1118
  507TIP3    H225717   7.600   6.047  17.357  0.1474  1.7036 -0.5701
  508TIP3   OH225718   4.793   5.179  19.298  0.3554 -0.0353 -0.1429
  508TIP3    H125719   4.714   5.162  19.350 -0.5656 -0.0344 -1.4843
  508TIP3    H225720   4.766   5.245  19.234  0.4356 -2.3877 -2.7817
  509TIP3   OH225721   4.028   3.970  16.826 -0.0491  0.7073 -0.0545
  509TIP3    H125722   4.003   4.036  16.761 -1.3833 -0.2489 -0.5624
  509TIP3    H225723   3.996   4.005  16.909 -0.8361  0.6785 -0.3345
  510TIP3   OH225724   0.341   2.479  16.405  0.1248 -0.1229 -0.6318
  510TIP3    H125725   0.374   2.560  16.368  0.0336 -0.0268 -0.5045
  510TIP3    H225726   0.329   2.498  16.498  1.0596 -0.5879 -0.4021
  511TIP3   OH225727   4.927   2.742  18.244 -0.2145  0.1910  0.4712
  511TIP3    H125728   4.888   2.818  18.288 -0.7929 -0.4977  1.1805
  511TIP3    H225729   4.909   2.669  18.303 -0.5835 -0.6829 -0.6994
  512TIP3   OH225730   2.306   4.151  17.773 -0.1619  0.2836  0.3603
  512TIP3    H125731   2.354   4.104  17.705  0.2228 -1.3203  1.6737
  512TIP3    H225732   2.260   4.220  17.726  0.2955 -0.5930 -1.4825
  513TIP3   OH225733   6.694   4.576  17.294 -0.6590 -0.1806 -0.0470
  513TIP3    H125734   6.746   4.495  17.290 -0.7565 -0.1899 -2.2866
  513TIP3    H225735   6.672   4.595  17.203 -0.4048  2.5490  0.3669
  514TIP3   OH225736   3.891   4.059  17.064 -0.1265  0.0285 -0.7596
  514TIP3    H125737   3.926   4.015  17.142 -1.4868  0.1879 -0.0245
  514TIP3    H225738   3.924   4.149  17.070 -1.9904  0.6791  0.8891
  515TIP3   OH225739   5.120   7.261  18.709  0.2267  0.0476  0.1846
  515TIP3    H125740   5.063   7.329  18.745  0.5947  1.2149 -1.3322
  515TIP3    H225741   5.208   7.289  18.732  0.3636 -0.1150 -0.1385
  516TIP3   OH225742   7.444   0.206  17.462 -0.2322  0.0529 -0.4728
  516TIP3    H125743   7.456   0.196  17.368 -1.7065  2.1257 -0.9381
  516TIP3    H225744   7.523   0.250  17.493 -0.3431  0.6166 -0.9856
  517TIP3   OH225745   4.217   5.026  17.185 -0.6705 -0.4792  0.0499
  517TIP3    H125746   4.297   4.977  17.206 -1.5899 -2.5495 -0.9587
  517TIP3    H225747   4.150   4.983  17.238 -1.8545 -1.6339 -2.2533
  518TIP3   OH225748   6.378   7.201  17.720 -0.0901 -0.2765 -0.1969
  518TIP3    H125749   6.439   7.139  17.682 -0.4799 -1.0158  0.3441
  518TIP3    H225750   6.303   7.201  17.661 -0.6539 -1.3489  0.4833
  519TIP3   OH225751   3.439   2.574  18.169 -0.6390 -0.4151  0.0057
  519TIP3    H125752   3.376   2.530  18.225 -0.4418 -0.8332 -0.0987
  519TIP3    H225753   3.521   2.525  18.181 -0.2234  0.3713  0.4598
  520TIP3   OH225754   3.418   4.223  17.293 -0.6361  0.3341 -0.2225
  520TIP3    H125755   3.494   4.174  17.259  0.5329  1.9762 -0.0698
  520TIP3    H225756   3.349   4.207  17.228  0.0063 -0.7180 -0.6772
  521TIP3   OH225757   2.795   4.549  19.073 -0.9437  0.1389 -0.1181
  521TIP3    H125758   2.733   4.622  19.076  0.1529  1.1090 -0.5729
  521TIP3    H225759   2.740   4.471  19.083 -1.9850  1.0694  2.1012
  522TIP3   OH225760   6.495   3.639  18.022 -0.1886 -0.3608 -0.2173
  522TIP3    H125761   6.481   3.732  18.007 -0.2615 -0.0582  1.4992
  522TIP3    H225762   6.414   3.597  17.992 -0.2749  0.1584 -0.7167
  523TIP3   OH225763   6.592   5.006  18.374 -0.3499 -0.0162 -0.3290
  523TIP3    H125764   6.654   4.992  18.303  0.8698 -1.2868  0.9274
  523TIP3    H225765   6.644   5.041  18.446 -2.0102  3.9009 -0.7907
  524TIP3   OH225766   3.866   4.594  18.705 -0.1804 -0.1572 -0.0361
  524TIP3    H125767   3.905   4.539  18.637 -1.3078 -0.0246 -0.8219
  524TIP3    H225768   3.879   4.683  18.673  0.6223 -0.0041  0.6766
  525TIP3   OH225769   0.150   7.300  17.291 -0.4487  0.4777 -0.5668
  525TIP3    H125770   0.184   7.235  17.353  1.0662 -0.9753 -2.7655
  525TIP3    H225771   0.055   7.299  17.305 -0.3315 -1.2169  0.4102
  526TIP3   OH225772   3.757   1.525  16.807 -1.0952  0.0886 -0.5592
  526TIP3    H125773   3.764   1.535  16.902  0.7225  1.0728 -0.7767
  526TIP3    H225774   3.698   1.449  16.796 -1.2219 -0.1351  1.3321
  527TIP3   OH225775   6.840   1.114  16.636  0.1975 -0.4343 -0.2579
  527TIP3    H125776   6.891   1.033  16.631  0.1627 -0.6304  1.5676
  527TIP3    H225777   6.894   1.180  16.595  1.3121 -0.9267  0.3702
  528TIP3   OH225778   2.479   0.502  19.022  0.5365 -0.0949  0.4974
  528TIP3    H125779   2.515   0.440  18.959 -0.1594  0.9282 -0.9500
  528TIP3    H225780   2.553   0.522  19.080  0.8647 -1.9747  0.7994
  529TIP3   OH225781   6.744   5.374  17.070 -0.3690  0.4620  0.5376
  529TIP3    H125782   6.718   5.283  17.052 -0.4000  0.3794  0.9809
  529TIP3    H225783   6.818   5.390  17.012  0.1313 -0.1068  0.9955
  530TIP3   OH225784   3.002   1.949  16.038 -0.2658 -0.2322  0.0553
  530TIP3    H125785   3.007   1.918  15.947 -1.1925  0.6585 -0.3146
  530TIP3    H225786   2.964   1.875  16.086  1.3462 -1.1561 -0.0355
  531TIP3   OH225787   1.958   3.813  17.336  0.1315 -0.1630 -0.1472
  531TIP3    H125788   1.863   3.806  17.340  0.1514 -0.4744 -0.2409
  531TIP3    H225789   1.989   3.724  17.318  0.5705 -0.5826  2.3226
  532TIP3   OH225790   0.749   0.534  18.402  0.5545  0.5294  0.0074
  532TIP3    H125791   0.760   0.481  18.481 -0.7962 -0.8673 -0.7045
  532TIP3    H225792   0.767   0.624  18.432  1.4731 -0.1287  1.5623
  533TIP3   OH225793   0.569   7.288  17.075 -0.2570  0.4947  0.0183
  533TIP3    H125794   0.549   7.286  17.169 -2.3555  0.0721 -0.3671
  533TIP3    H225795   0.583   7.196  17.052  0.8580  0.6577  0.0094
  534TIP3   OH225796   4.311   7.192  18.681 -0.1944 -0.7636 -0.2533
  534TIP3    H125797   4.305   7.110  18.632  0.2211  0.0121 -1.6896
  534TIP3    H225798   4.354   7.253  18.620  2.8279 -0.4054  1.9697
  535TIP3   OH225799   6.315   3.298  17.521 -0.2094 -0.1990  0.1527
  535TIP3    H125800   6.311   3.383  17.476 -1.6007 -0.8497 -1.0193
  535TIP3    H225801   6.230   3.288  17.562  0.2258 -0.6933  0.9672
  536TIP3   OH225802   1.582   0.856  18.322  0.1693 -0.3450  0.1924
  536TIP3    H125803   1.578   0.763  18.299  0.3912 -0.3050 -0.0168
  536TIP3    H225804   1.562   0.859  18.415  1.9888 -0.7980  0.6392
  537TIP3   OH225805   2.095   3.061  16.946  0.0967 -0.6137 -0.3329
  537TIP3    H125806   2.148   3.089  16.871 -0.8217 -1.0972 -1.1960
  537TIP3    H225807   2.046   2.985  16.913  0.4163 -1.4677  1.0719
  538TIP3   OH225808   0.429   2.030  18.306 -0.1106  0.5747 -0.0169
  538TIP3    H125809   0.524   2.045  18.306 -0.1963  1.1857  0.4955
  538TIP3    H225810   0.395   2.097  18.246 -0.6118  3.4740  3.1745
  539TIP3   OH225811   4.035   5.649  16.406 -0.1351 -0.5099  0.1731
  539TIP3    H125812   4.023   5.743  16.390 -1.0734 -0.6620 -0.0610
  539TIP3    H225813   4.021   5.638  16.500  2.5250 -0.0547  0.7124
  540TIP3   OH225814   2.926   1.683  16.126  0.5047 -0.2605 -0.0547
  540TIP3    H125815   2.999   1.622  16.112 -0.1911 -0.6868 -2.3752
  540TIP3    H225816   2.852   1.642  16.081 -1.0189  0.4910  1.6554
  541TIP3   OH225817   4.984   5.398  17.071 -0.1607 -0.0685  0.1048
  541TIP3    H125818   4.925   5.474  17.072 -0.6442 -0.4366 -0.0920
  541TIP3    H225819   4.976   5.363  16.982  0.4420 -0.0571  0.0433
  542TIP3   OH225820   3.439   1.299  18.658  0.4031  0.3303 -0.7379
  542TIP3    H125821   3.420   1.222  18.711 -1.0290 -1.1701 -3.1951
  542TIP3    H225822   3.423   1.271  18.568  1.0920  3.1604 -1.8814
  543TIP3   OH225823   4.703   2.828  18.083 -0.3681  0.3061 -0.3491
  543TIP3    H125824   4.774   2.767  18.102 -1.7191 -0.2421  3.8551
  543TIP3    H225825   4.746   2.913  18.075  1.1598 -0.5817 -2.9202
  544TIP3   OH225826   7.028   1.283  16.826 -0.0024 -0.3908  0.4401
  544TIP3    H125827   7.062   1.195  16.812  2.0069  0.4151 -0.0822
  544TIP3    H225828   6.969   1.275  16.901 -0.5047 -2.3034 -0.1108
  545TIP3   OH225829   6.612   2.552  18.244  0.0352  0.6971  0.0043
  545TIP3    H125830   6.674   2.617  18.278  0.7078  0.3789 -0.6015
  545TIP3    H225831   6.644   2.468  18.278  0.2738  0.4628 -0.7978
  546TIP3   OH225832   3.051   5.921  17.704  0.0749 -0.4648  0.2496
  546TIP3    H125833   2.972   5.912  17.757  1.4213 -0.1260  2.3956
  546TIP3    H225834   3.031   5.871  17.624 -2.5445  0.1820  0.3841
  547TIP3   OH225835   5.957   2.207  17.009  0.5386 -0.3365 -0.4614
  547TIP3    H125836   5.964   2.285  17.065 -1.7168 -1.0882  1.0287
  547TIP3    H225837   5.988   2.236  16.923 -0.1053  2.1806  0.0596
  548TIP3   OH225838   5.939   2.179  18.540  0.5924  0.8074  0.2606
  548TIP3    H125839   5.943   2.193  18.446  2.0345 -1.7336 -0.1708
  548TIP3    H225840   6.011   2.118  18.558 -1.1814 -0.7968  2.5725
  549TIP3   OH225841   5.722   0.274  18.749  0.4174 -0.0838  0.2948
  549TIP3    H125842   5.685   0.355  18.716  2.6306  0.5733 -0.7114
  549TIP3    H225843   5.816   0.287  18.746  0.8429 -2.7090  0.0570
  550TIP3   OH225844   5.410   5.795  18.066 -1.0562  0.5307  0.3519
  550TIP3    H125845   5.483   5.842  18.107  0.4513 -1.2095 -0.2013
  550TIP3    H225846   5.374   5.742  18.137 -0.0232 -0.6247  0.0464
  551TIP3   OH225847   5.326   6.879  18.022  0.1994  0.1218 -0.0126
  551TIP3    H125848   5.241   6.853  17.985  0.3674 -1.3684  0.5796
  551TIP3    H225849   5.370   6.925  17.950 -1.9679  3.0696  0.3521
  552TIP3   OH225850   4.944   1.097  18.892 -0.2939 -0.2390  0.2718
  552TIP3    H125851   4.946   1.192  18.902 -0.9650 -0.2909  0.9463
  552TIP3    H225852   5.022   1.066  18.937 -1.3604 -0.1796  2.3046
  553TIP3   OH225853   6.127   4.031  17.615  0.5876  0.1192 -0.5386
  553TIP3    H125854   6.091   4.082  17.687  0.5329 -0.4273 -0.1766
  553TIP3    H225855   6.054   3.979  17.583  0.7706 -0.1105 -0.5816
  554TIP3   OH225856   1.029   1.164  18.563  0.2520  0.6499 -0.8580
  554TIP3    H125857   1.052   1.072  18.548 -0.9203 -0.0963  1.4784
  554TIP3    H225858   0.981   1.190  18.484  0.4225 -0.8000 -1.4669
  555TIP3   OH225859   7.508   4.366  17.999 -0.5691 -0.3757  0.1164
  555TIP3    H125860   7.597   4.392  17.976 -0.7068 -0.3188 -0.3645
  555TIP3    H225861   7.514   4.271  18.012 -0.7065 -0.6101 -1.2981
  556TIP3   OH225862   2.551   7.361  18.747  0.2829 -0.8581 -0.4939
  556TIP3    H125863   2.562   7.322  18.833 -3.0135  1.0570  1.0047
  556TIP3    H225864   2.571   7.454  18.760  0.9189 -0.7402 -2.1128
  557TIP3   OH225865   2.750   1.403  16.607  0.2343  0.8962 -0.0449
  557TIP3    H125866   2.745   1.375  16.516 -1.3140 -0.8402  0.5203
  557TIP3    H225867   2.759   1.498  16.602 -4.7619  1.5746 -2.0717
  558TIP3   OH225868   3.104   7.347  18.409  0.3202  0.1652 -0.2226
  558TIP3    H125869   3.160   7.311  18.340  0.2441 -0.7913  0.1979
  558TIP3    H225870   3.017   7.348  18.371  0.3758  0.2198 -0.3491
  559TIP3   OH225871   1.467   1.882  18.429  0.3123 -0.0995 -0.0210
  559TIP3    H125872   1.499   1.968  18.400 -1.0046  1.4662  2.7737
  559TIP3    H225873   1.506   1.871  18.515 -0.6650 -1.7044  0.2405
  560TIP3   OH225874   4.087   3.290  18.705  0.0936 -0.5571 -0.0729
  560TIP3    H125875   4.078   3.381  18.734 -0.4121 -0.5951 -0.1008
  560TIP3    H225876   4.108   3.241  18.785 -0.7037 -0.5735  0.1290
  561TIP3   OH225877   7.202   0.038  17.443 -0.1444 -0.5725  0.6103
  561TIP3    H125878   7.135   0.069  17.503 -0.8692  1.6521 -1.1826
  561TIP3    H225879   7.276   0.098  17.458 -0.5253  0.3605 -0.9718
  562TIP3   OH225880   0.376   2.186  17.080  0.3938 -0.1781 -0.1403
  562TIP3    H125881   0.292   2.187  17.035  0.8025 -1.3025 -0.9721
  562TIP3    H225882   0.381   2.100  17.121  0.0647  0.7988  2.0553
  563TIP3   OH225883   0.112   1.697  16.678  0.0920  0.2003  0.0269
  563TIP3    H125884   0.092   1.778  16.631 -2.7206 -0.4256 -0.0786
  563TIP3    H225885   0.027   1.669  16.714  0.9867 -2.5542  0.2601
  564TIP3   OH225886   4.737   2.174  18.101 -0.5082 -0.0332  0.2697
  564TIP3    H125887   4.687   2.155  18.021  1.5663  0.8914 -1.3401
  564TIP3    H225888   4.727   2.269  18.112 -2.2877 -0.3922  2.2360
  565TIP3   OH225889   6.019   1.503  16.789 -0.3059  0.2556 -0.0795
  565TIP3    H125890   6.040   1.411  16.771 -0.4646  0.0708  0.6560
  565TIP3    H225891   6.049   1.550  16.711 -0.1854 -0.4150 -0.4421
  566TIP3   OH225892   2.598   7.179  17.905  0.7460 -0.5500 -0.2342
  566TIP3    H125893   2.660   7.252  17.912  0.9165 -0.6594 -0.6022
  566TIP3    H225894   2.650   7.101  17.925  0.2272 -0.4581  1.7483
  567TIP3   OH225895   4.064   5.981  17.151 -0.3814 -0.1013 -0.2491
  567TIP3    H125896   3.976   6.012  17.130 -0.8932 -0.5509  1.1099
  567TIP3    H225897   4.099   6.046  17.212  0.3534  0.2204 -0.9907
  568TIP3   OH225898   6.453   5.816  17.952  0.4099 -0.2548 -0.0419
  568TIP3    H125899   6.474   5.905  17.979 -0.7586 -0.5840  2.1543
  568TIP3    H225900   6.530   5.765  17.974 -0.4317 -0.4790  2.7949
  569TIP3   OH225901   5.890   1.434  17.229  0.3292 -0.9369  0.1934
  569TIP3    H125902   5.979   1.414  17.260  0.4495 -0.8498 -0.0880
  569TIP3    H225903   5.832   1.402  17.298  0.6173 -0.2130  0.7913
  570TIP3   OH225904   0.779   1.316  18.667 -0.3650 -0.1498  0.6876
  570TIP3    H125905   0.784   1.363  18.750 -0.7964  0.6920  0.2499
  570TIP3    H225906   0.856   1.259  18.668 -1.2083 -1.3294  2.3435
  571TIP3   OH225907   6.488   6.254  18.548 -0.1284 -0.3422  0.6347
  571TIP3    H125908   6.435   6.174  18.547  0.1541 -0.5472 -1.3801
  571TIP3    H225909   6.576   6.223  18.567  0.0956 -0.6202 -0.7738
  572TIP3   OH225910   3.779   3.539  17.438  0.4559 -0.3337  0.1739
  572TIP3    H125911   3.718   3.466  17.427 -1.1313  0.8099  0.8614
  572TIP3    H225912   3.862   3.507  17.405 -0.5296 -1.9678 -0.8422
  573TIP3   OH225913   1.272   5.989  17.205 -0.7574 -0.3451 -0.6852
  573TIP3    H125914   1.327   6.014  17.279 -0.4439 -0.9118 -0.7215
  573TIP3    H225915   1.278   5.894  17.201 -1.2626 -0.3677 -1.0644
  574TIP3   OH225916   4.517   6.939  18.249 -0.3705  0.0968 -0.1220
  574TIP3    H125917   4.514   6.859  18.195  2.0695 -0.0558 -0.1547
  574TIP3    H225918   4.607   6.942  18.281 -1.1909  1.3156  2.2808
  575TIP3   OH225919   6.307   2.962  18.054 -0.7915 -0.0789 -0.2218
  575TIP3    H125920   6.389   2.919  18.078 -0.4643  1.1617  1.0219
  575TIP3    H225921   6.308   3.045  18.103 -3.9971 -1.1314  1.9421
  576TIP3   OH225922   5.929   0.354  16.734  0.6387 -0.0569  0.2052
  576TIP3    H125923   5.941   0.436  16.782 -2.2071  1.2302 -1.0474
  576TIP3    H225924   6.006   0.348  16.677  2.0097  0.5041  1.9154
  577TIP3   OH225925   7.380   2.190  17.876 -0.4808 -0.4568 -0.2094
  577TIP3    H125926   7.333   2.259  17.922 -0.3757 -0.6095  0.1314
  577TIP3    H225927   7.463   2.182  17.923 -0.4930 -0.8155 -0.2494
  578TIP3   OH225928   4.785   3.851  18.725 -0.1197 -0.0374 -0.3201
  578TIP3    H125929   4.705   3.821  18.769  0.5771  0.2602  1.2324
  578TIP3    H225930   4.769   3.836  18.632 -1.8859 -0.2002 -0.0198
  579TIP3   OH225931   5.992   4.856  16.833 -0.1088 -0.2505 -0.2789
  579TIP3    H125932   5.953   4.905  16.760 -1.1358 -0.3879  0.1563
  579TIP3    H225933   5.920   4.843  16.895  0.6271 -0.5548  0.5480
  580TIP3   OH225934   3.913   1.905  16.478  0.0042  0.0848  0.3900
  580TIP3    H125935   3.924   1.813  16.454  0.1700  0.2906 -0.3265
  580TIP3    H225936   3.853   1.941  16.413  0.0825  0.5308  0.5586
  581TIP3   OH225937   4.745   1.502  16.944  0.3503  0.0619 -0.0842
  581TIP3    H125938   4.684   1.431  16.926 -0.1213  0.8877 -2.0606
  581TIP3    H225939   4.737   1.560  16.868  1.0615  1.9821  1.2238
  582TIP3   OH225940   6.321   7.196  18.284  0.2659 -0.0209 -0.2780
  582TIP3    H125941   6.301   7.142  18.361 -1.8321  0.6225 -0.2894
  582TIP3    H225942   6.370   7.139  18.226 -0.9860 -1.6133  0.1495
  583TIP3   OH225943   1.442   7.223  16.927  0.4747  0.1530  0.0483
  583TIP3    H125944   1.508   7.250  16.864 -0.7604  0.2877 -1.2357
  583TIP3    H225945   1.455   7.128  16.936  1.8486  0.3954  1.0666
  584TIP3   OH225946   4.403   1.608  16.824  0.1954 -0.3659  0.0839
  584TIP3    H125947   4.434   1.525  16.860  1.3470 -1.3130 -2.7697
  584TIP3    H225948   4.322   1.585  16.778 -0.0081  0.3094  0.0973
  585TIP3   OH225949   1.793   6.157  16.865 -0.0372 -0.0312 -0.5684
  585TIP3    H125950   1.740   6.207  16.803 -1.0121  1.4334  1.3346
  585TIP3    H225951   1.729   6.116  16.923  0.8617 -0.4114  0.1807
  586TIP3   OH225952   6.255   5.839  16.875  0.0124 -0.2337  0.2880
  586TIP3    H125953   6.271   5.828  16.781 -0.3091 -2.0224  0.4003
  586TIP3    H225954   6.339   5.868  16.910 -0.0559  1.1547 -0.6340
  587TIP3   OH225955   4.207   0.290  16.773 -0.0587  1.1341 -0.8977
  587TIP3    H125956   4.221   0.203  16.810 -1.6647  0.7222 -1.1812
  587TIP3    H225957   4.285   0.339  16.797 -0.3059  0.4202  1.6236
  588TIP3   OH225958   7.656   0.802  16.515  0.0508 -0.2991  0.2844
  588TIP3    H125959   7.627   0.892  16.524 -1.6447 -0.9570  1.9291
  588TIP3    H225960   7.599   0.764  16.448  0.5674 -0.2513 -0.1926
  589TIP3   OH225961   3.781   6.854  16.685  0.0982 -0.8043  0.8496
  589TIP3    H125962   3.730   6.879  16.608  3.9087  0.6756 -1.4733
  589TIP3    H225963   3.752   6.765  16.706 -3.4317 -0.0118 -0.0483
  590TIP3   OH225964   0.619   6.539  17.159  0.3007 -0.9573 -0.7103
  590TIP3    H125965   0.659   6.473  17.215  1.4589  0.5911  0.3639
  590TIP3    H225966   0.685   6.558  17.092  1.7531  1.9536  1.3474
  591TIP3   OH225967   4.364   1.041  17.356  0.2165  0.4886 -0.5951
  591TIP3    H125968   4.271   1.065  17.359  0.2263  0.4062  0.6246
  591TIP3    H225969   4.380   0.994  17.438  0.8382 -1.4074 -1.7414
  592TIP3   OH225970   6.323   2.139  16.661  0.5883  0.1841 -0.2161
  592TIP3    H125971   6.398   2.130  16.720  0.7694  2.2087 -0.0639
  592TIP3    H225972   6.337   2.223  16.617 -0.9593  0.0104 -1.1356
  593TIP3   OH225973   3.548   6.273  18.656  0.5504  0.0876  0.3911
  593TIP3    H125974   3.531   6.199  18.597 -1.3818  0.7047  0.0824
  593TIP3    H225975   3.464   6.319  18.661  0.3108 -0.4490  4.4256
  594TIP3   OH225976   4.497   0.012  17.469 -0.1178 -0.2599  0.0065
  594TIP3    H125977   4.576  -0.037  17.492 -0.6421 -0.2551  1.9156
  594TIP3    H225978   4.509   0.034  17.376  0.9464 -2.4510 -0.4387
  595TIP3   OH225979   0.318   5.140  17.951  0.0416 -0.1856 -0.4211
  595TIP3    H125980   0.257   5.212  17.965  0.1914  0.4547 -2.6055
  595TIP3    H225981   0.268   5.061  17.973 -1.7635  0.2988 -2.4283
  596TIP3   OH225982   1.206   4.102  16.678  0.1467 -0.7041  0.0340
  596TIP3    H125983   1.299   4.102  16.659  0.2074 -0.5725  0.3285
  596TIP3    H225984   1.200   4.076  16.770 -0.0106  0.7964  0.4756
  597TIP3   OH225985   5.316   5.016  18.068 -0.5745  0.1374 -0.0241
  597TIP3    H125986   5.299   5.109  18.051  0.3073  0.5107  1.0805
  597TIP3    H225987   5.319   4.976  17.980 -1.7255  0.9968 -0.4777
  598TIP3   OH225988   4.141   6.165  17.899  0.1231  0.4871  0.2082
  598TIP3    H125989   4.111   6.249  17.934  0.6820  0.5967  0.4335
  598TIP3    H225990   4.180   6.121  17.975 -0.4530 -0.1131  0.1665
  599TIP3   OH225991   5.150   6.687  18.282  0.3880  1.0173 -0.0944
  599TIP3    H125992   5.104   6.743  18.219  0.7715  1.6236  0.1613
  599TIP3    H225993   5.229   6.660  18.236 -0.5758 -0.6990 -0.8462
  600TIP3   OH225994   3.307   0.924  17.090 -0.2339  0.5782 -0.2430
  600TIP3    H125995   3.312   0.930  16.994  1.0519 -1.5645 -0.3648
  600TIP3    H225996   3.314   1.015  17.120  1.7680  1.1291 -2.1121
  601TIP3   OH225997   2.753   5.609  16.820  0.0419  0.0009  0.5011
  601TIP3    H125998   2.673   5.612  16.767 -0.9527  0.2356  1.9532
  601TIP3    H225999   2.749   5.525  16.865  1.0582 -0.3548 -0.0371
  602TIP3   OH226000   1.479   4.455  18.332  0.1803  0.4496  0.7119
  602TIP3    H126001   1.433   4.439  18.415  0.9570 -0.1764  1.0312
  602TIP3    H226002   1.466   4.375  18.281  0.8282  0.3119  0.7614
  603TIP3   OH226003   1.063   5.252  17.529  0.7024 -0.6628  0.4921
  603TIP3    H126004   1.047   5.170  17.575 -0.5931 -1.5054 -1.3314
  603TIP3    H226005   1.002   5.314  17.570  0.0058 -1.2329  0.3544
  604TIP3   OH226006   6.354   3.813  18.284  0.1216 -0.3656 -0.1454
  604TIP3    H126007   6.431   3.827  18.228  0.5227 -2.9185 -0.3710
  604TIP3    H226008   6.389   3.820  18.373  0.2122  0.2495 -0.2205
  605TIP3   OH226009   4.567   4.204  18.630  0.5907  0.7480 -0.0629
  605TIP3    H126010   4.514   4.201  18.710 -0.4043 -2.5328 -0.6683
  605TIP3    H226011   4.531   4.278  18.581 -3.2760 -1.0086 -0.2185
  606TIP3   OH226012   2.620   5.311  17.255  0.2355  0.5739 -0.4280
  606TIP3    H126013   2.714   5.328  17.266 -0.0101  1.8803 -0.1892
  606TIP3    H226014   2.577   5.390  17.289 -1.1464 -1.4866  3.2609
  607TIP3   OH226015   4.901   4.048  18.901  0.0134 -0.1621  0.4581
  607TIP3    H126016   4.897   4.140  18.878 -2.2328 -0.0991  0.9012
  607TIP3    H226017   4.891   4.001  18.819 -1.2872  0.0310  0.4871
  608TIP3   OH226018   6.820   4.332  17.652  0.2502 -0.1678 -0.0981
  608TIP3    H126019   6.856   4.356  17.567  0.2213  0.9150  0.1758
  608TIP3    H226020   6.860   4.248  17.673  0.4650 -0.3148 -1.0544
  609TIP3   OH226021   3.830   6.753  16.343 -0.1565 -0.2855 -0.6636
  609TIP3    H126022   3.784   6.759  16.260 -0.5781 -0.3732 -0.4406
  609TIP3    H226023   3.845   6.844  16.369  1.5470 -0.2385 -1.6784
  610TIP3   OH226024   5.736   2.465  18.421 -0.6201 -0.4610 -0.4816
  610TIP3    H126025   5.732   2.391  18.481 -1.8092 -0.2293 -0.2644
  610TIP3    H226026   5.797   2.526  18.461 -2.9171  0.6241  1.5924
  611TIP3   OH226027   3.384   5.946  18.417  0.3892 -0.9037 -0.4399
  611TIP3    H126028   3.340   5.918  18.497 -2.3355  0.3138 -1.4111
  611TIP3    H226029   3.402   6.039  18.430 -1.4070 -0.3273 -1.7220
  612TIP3   OH226030   3.107   3.467  18.451  0.2581 -0.2950 -0.1582
  612TIP3    H126031   3.053   3.538  18.418 -0.1042 -0.7026 -0.4648
  612TIP3    H226032   3.188   3.474  18.401 -0.2147 -0.7911 -1.0290
  613TIP3   OH226033   2.832   2.734  18.536 -0.1574  0.2856  1.4236
  613TIP3    H126034   2.817   2.758  18.445  0.1292 -0.9302  1.0339
  613TIP3    H226035   2.877   2.809  18.574  1.1739  0.1795  0.1273
  614TIP3   OH226036   4.001   4.174  18.128  0.2909 -0.4327 -0.2943
  614TIP3    H126037   4.038   4.088  18.148 -2.9520 -1.5579  1.6519
  614TIP3    H226038   3.958   4.164  18.043  2.5871  0.3401 -1.6473
  615TIP3   OH226039   5.719   7.483  18.863 -0.8178  0.7401  0.5103
  615TIP3    H126040   5.737   7.560  18.810  0.3153  0.1264 -0.0445
  615TIP3    H226041   5.713   7.516  18.952 -1.5216  1.6189  0.1511
  616TIP3   OH226042   1.459   6.164  18.280  0.4312 -0.0414 -0.6102
  616TIP3    H126043   1.407   6.098  18.326  0.7184  0.5280  0.5577
  616TIP3    H226044   1.504   6.212  18.349  1.1156  0.6446 -1.5077
  617TIP3   OH226045   4.312   5.779  17.723 -0.2143 -0.0956  0.3285
  617TIP3    H126046   4.243   5.768  17.789 -0.3586 -0.3645  0.1364
  617TIP3    H226047   4.363   5.854  17.754 -0.1884 -0.3151  0.8250
  618TIP3   OH226048   4.524   3.921  18.573 -0.2233  0.4182 -0.3351
  618TIP3    H126049   4.545   3.999  18.624  0.1974 -0.4886  0.9064
  618TIP3    H226050   4.521   3.850  18.637  2.3076 -1.1382 -1.8091
  619TIP3   OH226051   6.658   3.587  17.428 -0.0409 -0.0560 -0.0380
  619TIP3    H126052   6.603   3.575  17.505 -1.4459 -0.0713 -1.0077
  619TIP3    H226053   6.739   3.541  17.449  0.1473  1.0687  1.9440
  620TIP3   OH226054   7.390   6.089  16.796 -0.2126 -0.9399  0.1003
  620TIP3    H126055   7.422   6.004  16.825  1.6054 -0.5878 -0.7259
  620TIP3    H226056   7.330   6.068  16.724  0.2931 -1.5311 -0.1598
  621TIP3   OH226057   3.543   5.370  17.408  0.2358 -0.2228 -0.3899
  621TIP3    H126058   3.526   5.463  17.425 -0.2710 -0.6815  1.9613
  621TIP3    H226059   3.514   5.356  17.318  0.5277  1.9366 -0.8616
  622TIP3   OH226060   5.225   7.485  18.523 -1.4536 -0.1079  0.4505
  622TIP3    H126061   5.308   7.504  18.568 -0.0505 -2.5097 -0.8727
  622TIP3    H226062   5.217   7.554  18.457 -0.3808  0.0801  0.4969
  623TIP3   OH226063   7.456   0.805  17.666  0.5169 -0.7642  0.2500
  623TIP3    H126064   7.470   0.710  17.672 -2.3721 -1.6824 -3.4220
  623TIP3    H226065   7.531   0.836  17.614 -0.6883 -2.0266 -2.4769
  624TIP3   OH226066   6.505   0.058  15.988 -1.2067  0.5545 -0.4339
  624TIP3    H126067   6.567   0.103  16.046 -0.2506 -0.4467 -0.6508
  624TIP3    H226068   6.471  -0.015  16.040 -2.7633  1.4839 -0.0766
  625TIP3   OH226069   0.517   6.771  17.293  0.0472  0.0517 -0.6650
  625TIP3    H126070   0.577   6.702  17.265 -1.6791 -0.6849 -2.7931
  625TIP3    H226071   0.568   6.852  17.280  0.9645 -0.6090 -1.3666
  626TIP3   OH226072   5.134   3.407  17.314  0.2251 -0.7546  0.0642
  626TIP3    H126073   5.176   3.473  17.368  2.3873 -1.1396 -1.0299
  626TIP3    H226074   5.081   3.457  17.252 -1.2543 -0.2723  1.6418
  627TIP3   OH226075   1.471   5.319  17.846 -0.1767  1.1099  0.2480
  627TIP3    H126076   1.376   5.325  17.854 -0.0483  0.7772  2.6430
  627TIP3    H226077   1.501   5.290  17.932  1.8918 -1.5657 -1.2225
  628TIP3   OH226078   6.960   1.894  16.095  0.2769 -0.4180 -0.0637
  628TIP3    H126079   7.019   1.863  16.163 -0.6962 -1.7891  0.2036
  628TIP3    H226080   7.011   1.891  16.014  1.5416  1.5224  0.5896
  629TIP3   OH226081   7.396   6.773  16.867 -0.3041  0.7172  0.5709
  629TIP3    H126082   7.422   6.705  16.928 -0.6502 -0.8825 -0.9645
  629TIP3    H226083   7.302   6.763  16.858 -0.0579 -0.3586 -1.5654
  630TIP3   OH226084   0.556   2.945  17.061 -0.1068  0.2051  0.3029
  630TIP3    H126085   0.539   2.882  17.131 -1.8593  0.6062  0.2813
  630TIP3    H226086   0.607   3.014  17.103 -1.5388  0.6795  1.3342
  631TIP3   OH226087   5.554   4.301  17.967  0.4043 -0.0821 -0.5574
  631TIP3    H126088   5.630   4.269  18.017 -0.4206  0.4566  1.1459
  631TIP3    H226089   5.578   4.288  17.876  1.9549 -1.2537 -0.0335
  632TIP3   OH226090   0.340   5.337  18.984 -0.3360 -0.9016 -0.3556
  632TIP3    H126091   0.324   5.284  19.062 -0.1518  0.2240  0.4758
  632TIP3    H226092   0.253   5.364  18.954 -0.4280 -1.6400 -0.7681
  633TIP3   OH226093   2.453   5.967  18.416 -0.2796  0.2677 -0.2122
  633TIP3    H126094   2.470   5.876  18.439 -1.4889 -0.1166 -0.7566
  633TIP3    H226095   2.472   6.017  18.495 -0.0997 -0.5131  0.2390
  634TIP3   OH226096   1.413   3.833  16.983  0.6591  0.6118  0.1826
  634TIP3    H126097   1.331   3.879  17.000  1.5738  2.3813  0.0113
  634TIP3    H226098   1.454   3.823  17.069  1.1166  1.4460  0.0758
  635TIP3   OH226099   3.992   1.685  16.953  0.5263  0.0347 -0.2469
  635TIP3    H126100   3.962   1.689  17.044  2.2525 -0.5771  0.3954
  635TIP3    H226101   3.930   1.740  16.905  0.1765  1.2290  1.4707
  636TIP3   OH226102   1.257   6.977  18.016 -0.1669 -0.2063  0.0536
  636TIP3    H126103   1.262   7.053  17.958  0.3878 -0.7372 -0.6006
  636TIP3    H226104   1.291   6.904  17.964  2.6092 -0.2841  1.7888
  637TIP3   OH226105   0.145   6.617  17.522 -0.2782  0.0570  0.4908
  637TIP3    H126106   0.085   6.687  17.547 -0.4023 -0.3177  1.2791
  637TIP3    H226107   0.228   6.640  17.565 -0.0756  0.1628  0.0503
  638TIP3   OH226108   2.206   2.031  18.160 -0.2656  0.0863 -0.8445
  638TIP3    H126109   2.120   1.994  18.139 -0.0299 -0.6600 -0.5064
  638TIP3    H226110   2.205   2.042  18.255 -0.6876  1.8635 -1.0127
  639TIP3   OH226111   3.536   0.801  17.952  0.5476 -0.1715  0.2458
  639TIP3    H126112   3.552   0.813  17.859  1.9635  0.1929  0.5142
  639TIP3    H226113   3.476   0.872  17.975 -0.2258 -0.5705 -0.4691
  640TIP3   OH226114   2.248   1.237  17.218 -0.1494 -0.0861  0.2633
  640TIP3    H126115   2.237   1.315  17.271 -1.8249  0.2147 -0.4793
  640TIP3    H226116   2.228   1.265  17.129  2.9999 -0.4732 -0.7041
  641TIP3   OH226117   4.368   1.682  16.184 -0.2984  0.3158 -0.2959
  641TIP3    H126118   4.290   1.642  16.145 -0.3987 -1.6398  1.6756
  641TIP3    H226119   4.334   1.736  16.255  0.0769 -1.0755  1.0105
  642TIP3   OH226120   3.339   4.547  18.480 -0.2551 -0.4449  0.1670
  642TIP3    H126121   3.393   4.468  18.470 -1.4235 -1.3023  0.3610
  642TIP3    H226122   3.327   4.556  18.574  1.2017  0.9290  0.2556
  643TIP3   OH226123   6.047   6.032  18.363 -0.2000  0.0738  0.2339
  643TIP3    H126124   6.119   5.993  18.314 -0.5291  0.6593 -0.7438
  643TIP3    H226125   5.980   5.964  18.366 -0.7545  0.5058 -1.4225
  644TIP3   OH226126   3.786   5.089  17.355  0.1705 -0.2904  0.2102
  644TIP3    H126127   3.754   5.161  17.300 -2.6614 -1.9163 -0.4853
  644TIP3    H226128   3.805   5.130  17.440 -0.9602  1.3622 -0.2879
  645TIP3   OH226129   7.275   6.101  18.412  0.3554 -0.0488 -0.5428
  645TIP3    H126130   7.275   6.080  18.505 -1.0907  1.8114 -0.0647
  645TIP3    H226131   7.211   6.041  18.374 -0.9593  0.8421  0.1529
  646TIP3   OH226132   5.624   0.047  16.710 -0.3389 -0.3252 -0.3984
  646TIP3    H126133   5.557   0.034  16.643  0.8527 -0.3994 -1.6219
  646TIP3    H226134   5.673  -0.035  16.711  0.6065  0.2230 -0.5488
  647TIP3   OH226135   4.127   0.979  18.804 -0.2152  0.6339  0.0654
  647TIP3    H126136   4.156   1.023  18.724  0.7826  1.7029  0.9878
  647TIP3    H226137   4.204   0.932  18.835 -1.0591 -1.2305 -0.4982
  648TIP3   OH226138   6.845   2.564  17.532 -0.2459 -0.1066  0.0343
  648TIP3    H126139   6.823   2.487  17.585 -2.9766  0.9140  0.5398
  648TIP3    H226140   6.805   2.547  17.447  2.2218 -0.7383 -1.1036
  649TIP3   OH226141   4.969   0.157  17.118  0.1612 -0.0185  0.0358
  649TIP3    H126142   4.930   0.072  17.133  3.2157 -1.9438 -1.8003
  649TIP3    H226143   4.939   0.182  17.030 -0.3756  0.6105  0.3915
  650TIP3   OH226144   0.760   6.150  16.737  0.0298 -0.1034 -0.2269
  650TIP3    H126145   0.756   6.240  16.703 -1.4874  0.1228  0.4760
  650TIP3    H226146   0.815   6.157  16.816  0.5428  0.0450 -0.5877
  651TIP3   OH226147   0.061   3.102  16.801 -0.3029  0.8639 -0.0324
  651TIP3    H126148   0.052   3.035  16.733 -1.5844  1.6583 -0.6847
  651TIP3    H226149   0.067   3.053  16.883 -1.4202 -0.0395 -0.4701
  652TIP3   OH226150   4.718   6.318  16.850  0.0770  0.1423  0.3394
  652TIP3    H126151   4.627   6.288  16.859 -0.3192  1.1556 -0.2423
  652TIP3    H226152   4.762   6.283  16.928 -1.5702  2.4332  2.4365
  653TIP3   OH226153   4.996   7.192  18.473  0.0197  0.3900  0.3686
  653TIP3    H126154   5.056   7.202  18.547 -1.6259 -2.5436  2.3126
  653TIP3    H226155   4.915   7.234  18.501 -0.6513 -0.8178  0.2943
  654TIP3   OH226156   3.306   6.415  18.708  0.1694  0.3377  0.3457
  654TIP3    H126157   3.244   6.342  18.698 -1.5802  1.8271 -0.1467
  654TIP3    H226158   3.263   6.489  18.665  2.0053  1.6177  0.6199
  655TIP3   OH226159   4.566   1.057  18.422  0.3954 -0.0227  0.2646
  655TIP3    H126160   4.605   1.108  18.493  0.6942  2.3841 -1.5321
  655TIP3    H226161   4.508   1.117  18.377 -2.4867 -2.4341  0.4268
  656TIP3   OH226162   6.341   6.525  15.921 -0.3346  0.2145 -0.1685
  656TIP3    H126163   6.278   6.595  15.942 -1.7138 -0.3216 -2.2321
  656TIP3    H226164   6.373   6.546  15.834  0.9603 -0.5346  0.1074
  657TIP3   OH226165   1.810   0.445  17.939  0.4239  0.1870 -0.3560
  657TIP3    H126166   1.796   0.354  17.912  1.1913 -0.5629  1.6276
  657TIP3    H226167   1.746   0.459  18.009  0.7593  0.9595 -0.2029
  658TIP3   OH226168   3.082   5.492  17.211 -0.5164 -1.0281  0.0555
  658TIP3    H126169   3.147   5.443  17.161  0.5542 -0.3101  0.7007
  658TIP3    H226170   3.049   5.558  17.151  1.3829  0.3858  0.4868
  659TIP3   OH226171   3.972   2.169  16.892 -0.7181  0.0383  0.0222
  659TIP3    H126172   3.884   2.149  16.922 -1.6264  2.9576 -0.4183
  659TIP3    H226173   3.962   2.190  16.800  0.4475  0.3658 -0.0476
  660TIP3   OH226174   1.508   2.416  17.164  0.0555  0.1255  0.6161
  660TIP3    H126175   1.583   2.440  17.218  0.1277 -1.3703  1.2126
  660TIP3    H226176   1.478   2.332  17.200 -1.7036  0.5272  0.1883
  661TIP3   OH226177   1.173   2.301  17.431  0.5372  0.4959 -0.7348
  661TIP3    H126178   1.173   2.215  17.473  2.8354  0.3131 -1.0033
  661TIP3    H226179   1.167   2.281  17.337 -0.2740  0.7089 -0.7340
  662TIP3   OH226180   0.223   2.592  17.949 -0.6652  0.2203 -0.2231
  662TIP3    H126181   0.256   2.601  18.038 -0.9241  1.4048 -0.2190
  662TIP3    H226182   0.299   2.563  17.898 -0.3093  0.3164  0.2444
  663TIP3   OH226183   4.116   6.194  17.303 -0.3985 -0.6502 -0.0506
  663TIP3    H126184   4.072   6.279  17.315  1.5195  0.3105  0.5115
  663TIP3    H226185   4.157   6.176  17.388  0.3932 -1.4523 -0.5932
  664TIP3   OH226186   1.659   5.127  17.198 -0.2842 -0.4087  0.1098
  664TIP3    H126187   1.591   5.070  17.165 -0.2555 -0.3280 -0.0914
  664TIP3    H226188   1.734   5.111  17.141 -0.0187 -0.7674  0.5555
  665TIP3   OH226189   0.681   3.527  17.834  0.0273  0.3717  0.1680
  665TIP3    H126190   0.747   3.483  17.781 -0.5942  0.3264 -0.5788
  665TIP3    H226191   0.727   3.551  17.915  0.4875 -1.3040  0.4491
  666TIP3   OH226192   1.006   2.496  17.167  0.4926  0.0554  0.3146
  666TIP3    H126193   0.942   2.567  17.166 -0.0709 -0.4449 -0.3173
  666TIP3    H226194   0.995   2.454  17.252  1.1804  1.0257  0.8952
  667TIP3   OH226195   6.591   2.263  17.329 -0.3406  0.3777 -0.6173
  667TIP3    H126196   6.684   2.275  17.312  0.3575  0.4454  2.5574
  667TIP3    H226197   6.586   2.179  17.373 -1.5190  1.0804  0.6627
  668TIP3   OH226198   2.304   5.830  17.548  0.1808  0.3689 -0.4837
  668TIP3    H126199   2.237   5.766  17.523  0.1818  0.5262 -0.8967
  668TIP3    H226200   2.328   5.806  17.637 -0.2382  0.1500 -0.4268
  669TIP3   OH226201   5.140   0.906  16.904 -0.5895 -0.7359 -0.4725
  669TIP3    H126202   5.123   0.852  16.981 -0.2084 -1.7838 -1.1028
  669TIP3    H226203   5.062   0.897  16.850 -2.2061  2.4156  1.0733
  670TIP3   OH226204   7.452   4.060  18.912  0.1251 -0.4178 -0.2385
  670TIP3    H126205   7.388   4.020  18.971  0.1079  0.1422  0.1270
  670TIP3    H226206   7.407   4.064  18.828 -0.4459  0.2571  0.0840
  671TIP3   OH226207   3.433   2.698  18.712 -0.0783  0.5802 -0.1224
  671TIP3    H126208   3.428   2.669  18.803  1.5982  0.2403 -0.1217
  671TIP3    H226209   3.413   2.619  18.661  2.1336 -0.0855 -0.0713
  672TIP3   OH226210   0.696   1.394  16.719  0.5123 -0.2589  0.0840
  672TIP3    H126211   0.743   1.336  16.658  0.0089  1.1591 -1.7368
  672TIP3    H226212   0.765   1.441  16.765  0.9052 -0.6880 -0.0605
  673TIP3   OH226213   0.473   1.068  17.266  0.0741 -0.2636 -0.2957
  673TIP3    H126214   0.404   1.062  17.332 -0.1318 -0.7454 -0.5534
  673TIP3    H226215   0.459   1.152  17.224 -1.0940 -0.8593 -1.1580
  674TIP3   OH226216   6.743   7.046  17.846 -0.2259 -0.4021 -0.1665
  674TIP3    H126217   6.792   7.121  17.811 -1.0189  0.3293  0.2366
  674TIP3    H226218   6.674   7.030  17.782  0.7466 -1.6864 -0.9313
  675TIP3   OH226219   0.675   5.430  18.664 -0.0398  0.3187 -0.4428
  675TIP3    H126220   0.697   5.432  18.757 -0.1998 -3.0977 -0.2176
  675TIP3    H226221   0.748   5.477  18.622  0.6869  0.8395  1.2721
  676TIP3   OH226222   5.007   7.351  16.730 -0.1462 -0.3348  0.0878
  676TIP3    H126223   5.060   7.426  16.759 -0.4157 -0.4338  0.8792
  676TIP3    H226224   4.941   7.389  16.673  1.5337 -0.3714 -1.9859
  677TIP3   OH226225   1.220   1.565  17.742 -0.9020  0.1812 -0.0564
  677TIP3    H126226   1.214   1.523  17.655 -0.5830 -1.4483  0.6627
  677TIP3    H226227   1.285   1.513  17.789 -0.1153  1.8336  0.7592
  678TIP3   OH226228   4.930   0.456  18.119  0.5432  0.3275 -0.4089
  678TIP3    H126229   4.937   0.483  18.211 -2.3075 -0.9435  0.2886
  678TIP3    H226230   5.019   0.431  18.095  1.2127 -0.3910  2.3768
  679TIP3   OH226231   5.010   6.504  17.999  0.2070  0.0776 -0.5148
  679TIP3    H126232   4.932   6.536  18.045  0.4328  0.7172 -0.5660
  679TIP3    H226233   4.976   6.459  17.922 -0.1769 -1.0053  0.2594
  680TIP3   OH226234   3.846   1.878  18.752 -0.0276  0.1514  0.2758
  680TIP3    H126235   3.874   1.801  18.703  2.1602  0.2644  1.2513
  680TIP3    H226236   3.841   1.848  18.843  3.0701  1.5690  1.0553
  681TIP3   OH226237   4.049   0.581  16.099 -0.0164 -0.3116  0.2248
  681TIP3    H126238   4.079   0.590  16.190 -0.1779 -0.2369  0.2703
  681TIP3    H226239   4.102   0.644  16.050  1.5480 -1.7817 -0.0796
  682TIP3   OH226240   0.060   1.986  18.373 -0.0947  0.1658 -0.1720
  682TIP3    H126241   0.112   2.063  18.399  0.8512 -0.0856 -1.2403
  682TIP3    H226242   0.124   1.927  18.332 -0.4266 -2.0082  2.1750
  683TIP3   OH226243   0.252   0.193  16.321  0.7656 -0.1615  0.1332
  683TIP3    H126244   0.207   0.114  16.293  0.3575  0.0792  0.0984
  683TIP3    H226245   0.339   0.186  16.283  0.8877 -0.8179  0.5298
  684TIP3   OH226246   0.208   4.664  18.255 -0.3957 -0.1956  0.3215
  684TIP3    H126247   0.229   4.755  18.277 -2.4752  0.0736  1.4641
  684TIP3    H226248   0.247   4.614  18.327 -1.4713  0.0679  1.1151
  685TIP3   OH226249   2.067   2.028  18.709 -0.5153  0.2604 -0.0257
  685TIP3    H126250   2.130   2.048  18.640 -2.6682  2.1226 -1.6542
  685TIP3    H226251   2.079   2.098  18.773 -0.1730 -0.0522  0.2553
  686TIP3   OH226252   6.320   6.451  18.633  0.2803  0.0442 -0.1517
  686TIP3    H126253   6.381   6.380  18.611  0.9858  0.2555  1.0086
  686TIP3    H226254   6.314   6.447  18.729  0.0828  1.3524 -0.0972
  687TIP3   OH226255   5.627   1.745  16.176  0.3584  0.3089 -0.2549
  687TIP3    H126256   5.569   1.673  16.152  0.5534  0.3159 -0.7564
  687TIP3    H226257   5.669   1.770  16.094  0.5929  0.7265 -0.0085
  688TIP3   OH226258   2.280   7.510  17.509  0.3341  0.1961 -0.5939
  688TIP3    H126259   2.230   7.531  17.588  0.9171 -0.9977  0.1171
  688TIP3    H226260   2.233   7.554  17.438 -0.9561  0.2018  0.2356
  689TIP3   OH226261   7.395   7.455  16.803  0.2624 -0.2775  0.3113
  689TIP3    H126262   7.439   7.411  16.730 -1.0374 -0.5888 -0.3135
  689TIP3    H226263   7.378   7.543  16.771  0.7533 -0.0362  0.6958
  690TIP3   OH226264   3.208   3.885  17.256 -0.1550 -0.1959 -0.7032
  690TIP3    H126265   3.203   3.975  17.287  0.2295 -1.0705  2.2175
  690TIP3    H226266   3.291   3.853  17.292 -0.3624 -1.7666 -1.5536
  691TIP3   OH226267   3.696   6.794  17.690 -0.2748 -0.2124 -0.6782
  691TIP3    H126268   3.686   6.746  17.772 -2.7667 -0.8185 -1.2571
  691TIP3    H226269   3.714   6.726  17.625  1.3539  0.2316 -0.7332
  692TIP3   OH226270   1.755   2.987  16.920 -0.4241  0.4355  0.5654
  692TIP3    H126271   1.661   2.971  16.927 -0.4299 -0.0655 -0.4314
  692TIP3    H226272   1.792   2.904  16.890  0.1740  0.9436 -0.1552
  693TIP3   OH226273   4.286   6.435  18.780 -0.3051  0.2183  0.2566
  693TIP3    H126274   4.216   6.371  18.770 -0.9932  1.0573 -0.3473
  693TIP3    H226275   4.367   6.385  18.764 -0.9342 -0.0036 -2.8172
  694TIP3   OH226276   4.670   5.997  18.491  0.2690 -0.0097 -0.1375
  694TIP3    H126277   4.734   6.048  18.442 -0.0633 -0.1359 -0.7102
  694TIP3    H226278   4.587   6.043  18.478  0.2065  0.0492  0.4460
  695TIP3   OH226279   7.176   5.663  16.816  0.4643  0.2299 -0.5758
  695TIP3    H126280   7.156   5.676  16.909  1.0258 -1.2719 -0.2245
  695TIP3    H226281   7.129   5.733  16.772  1.1342  1.7039  0.9358
  696TIP3   OH226282   7.302   0.495  17.074  0.3692 -0.1601  0.3669
  696TIP3    H126283   7.315   0.465  16.984 -0.2862  3.3218 -1.0523
  696TIP3    H226284   7.217   0.458  17.099  0.0322 -0.2956 -0.8948
  697TIP3   OH226285   4.705   0.451  18.512 -0.2897  0.0540  0.3686
  697TIP3    H126286   4.641   0.521  18.525 -0.5702  0.0870 -1.0189
  697TIP3    H226287   4.658   0.371  18.533 -0.4877  0.1543  0.3083
  698TIP3   OH226288   5.046   5.565  16.719 -0.5426  0.0023 -0.1305
  698TIP3    H126289   4.989   5.641  16.729  0.0463  0.3931  0.3804
  698TIP3    H226290   4.995   5.492  16.754 -1.3556  0.0357 -1.2025
  699TIP3   OH226291   4.164   0.222  17.332 -0.3269 -1.0956 -0.6395
  699TIP3    H126292   4.095   0.224  17.398  0.0663 -2.2001 -0.1682
  699TIP3    H226293   4.242   0.255  17.379  0.1363 -2.6101 -0.2965
  700TIP3   OH226294   4.328   7.677  16.770 -0.3593 -0.0271  0.4122
  700TIP3    H126295   4.329   7.655  16.863 -1.8858  0.9412  0.7122
  700TIP3    H226296   4.246   7.639  16.738  0.3696 -0.7208 -0.6431
  701TIP3   OH226297   4.085   7.327  18.137  0.6634  0.6496  0.4135
  701TIP3    H126298   3.996   7.346  18.167 -0.3277 -2.9037  0.1794
  701TIP3    H226299   4.095   7.380  18.058 -1.7653  0.1868 -0.2901
  702TIP3   OH226300   6.208   0.300  16.965 -0.1844 -0.1800 -0.3788
  702TIP3    H126301   6.148   0.231  16.936  0.2368 -0.6419 -0.1636
  702TIP3    H226302   6.296   0.266  16.945  0.0908 -0.2281  0.8112
  703TIP3   OH226303   1.366   1.600  16.787  0.0072  0.4526  0.0967
  703TIP3    H126304   1.429   1.625  16.855 -0.7084 -0.0843  0.9779
  703TIP3    H226305   1.287   1.575  16.835 -0.1895 -0.8980 -0.8642
  704TIP3   OH226306   6.507   2.817  18.187  0.9580 -0.5561 -0.0927
  704TIP3    H126307   6.507   2.721  18.184  0.3153 -0.5428 -0.5303
  704TIP3    H226308   6.598   2.841  18.169  0.9952 -1.0632 -0.5983
  705TIP3   OH226309   4.604   2.061  17.860 -0.2289 -0.7225 -0.0582
  705TIP3    H126310   4.555   2.061  17.778  1.0906 -1.0570 -0.8870
  705TIP3    H226311   4.687   2.019  17.837 -0.2508 -1.8058  1.7151
  706TIP3   OH226312   5.958   0.331  17.599 -0.5816 -0.0371  0.2917
  706TIP3    H126313   5.863   0.330  17.583 -0.5123  0.7352 -0.1804
  706TIP3    H226314   5.997   0.327  17.512 -0.1565 -1.2528  0.5122
  707TIP3   OH226315   4.403   5.836  18.101  0.4241  0.4640  0.0825
  707TIP3    H126316   4.325   5.884  18.075  1.3377  2.9556  1.6070
  707TIP3    H226317   4.371   5.750  18.127 -1.6670  1.1089 -0.2171
  708TIP3   OH226318   7.614   2.402  18.252 -0.3179  0.3065  0.5504
  708TIP3    H126319   7.546   2.422  18.187  1.0915  0.6277 -0.8836
  708TIP3    H226320   7.657   2.486  18.268  0.7436 -0.1674  0.2517
  709TIP3   OH226321   2.105   4.257  18.854  0.0612 -0.5381  0.4258
  709TIP3    H126322   2.012   4.275  18.864 -0.1320 -1.1503 -0.1642
  709TIP3    H226323   2.116   4.168  18.888  0.5077 -0.3149  0.8750
  710TIP3   OH226324   5.870   1.064  16.465 -0.4866 -0.2521 -0.0947
  710TIP3    H126325   5.799   1.011  16.501 -2.7915  2.0749 -0.8947
  710TIP3    H226326   5.928   1.001  16.423 -1.7813 -2.3171  1.0345
  711TIP3   OH226327   0.146   0.171  17.505 -0.2887 -0.4049  0.2722
  711TIP3    H126328   0.238   0.156  17.486 -0.1425 -1.8456  1.8365
  711TIP3    H226329   0.123   0.102  17.568 -2.3340  0.1462  0.2139
  712TIP3   OH226330   1.743   2.536  16.158 -0.2808 -0.3341 -0.5608
  712TIP3    H126331   1.817   2.486  16.123  0.5129 -0.1988  0.8179
  712TIP3    H226332   1.784   2.601  16.216 -1.4571  0.0763 -0.1639
  713TIP3   OH226333   6.498   2.704  18.591 -0.3548 -0.1398 -0.2696
  713TIP3    H126334   6.500   2.780  18.650  1.3187  0.1943 -0.6843
  713TIP3    H226335   6.448   2.734  18.515 -0.0293  0.4319 -0.2657
  714TIP3   OH226336   6.785   2.153  16.603 -0.0306 -0.2532  0.4454
  714TIP3    H126337   6.876   2.183  16.601 -0.3867  0.8852 -1.7420
  714TIP3    H226338   6.734   2.233  16.590 -1.4059 -0.7949  2.1250
  715TIP3   OH226339   0.033   2.940  17.018  0.0571 -0.2605  0.0653
  715TIP3    H126340   0.037   2.861  17.072 -0.3213 -3.3692 -3.9789
  715TIP3    H226341  -0.060   2.955  17.002  0.1931  0.0025 -0.5298
  716TIP3   OH226342   6.570   1.099  18.338  0.1145  0.0762  0.1688
  716TIP3    H126343   6.497   1.159  18.323  0.1706 -0.0361 -0.5647
  716TIP3    H226344   6.528   1.021  18.375 -0.1465  0.0051 -0.2677
  717TIP3   OH226345   7.246   2.899  17.634 -0.1542 -0.3261 -0.3359
  717TIP3    H126346   7.173   2.842  17.658  1.1188 -0.7137  3.3759
  717TIP3    H226347   7.322   2.841  17.634  0.4344  0.3257 -2.7761
  718TIP3   OH226348   3.062   1.538  18.722 -0.3530  0.0997  0.1265
  718TIP3    H126349   2.977   1.574  18.745 -1.2534  1.2089 -4.0936
  718TIP3    H226350   3.045   1.483  18.646  2.5339 -0.6526 -0.0911
  719TIP3   OH226351   5.578   5.204  18.823  0.5267 -0.3602 -0.5579
  719TIP3    H126352   5.499   5.183  18.873 -0.0640  3.0818  0.1905
  719TIP3    H226353   5.645   5.221  18.888  0.9232  0.0713 -1.0667
  720TIP3   OH226354   3.692   7.424  16.573  0.3492  0.0887 -0.1102
  720TIP3    H126355   3.690   7.451  16.664  0.9108  2.4890 -0.7452
  720TIP3    H226356   3.642   7.491  16.526  0.6622 -0.7080 -1.6569
  721TIP3   OH226357   4.541   2.223  16.801  0.3599  0.0601  0.0239
  721TIP3    H126358   4.616   2.164  16.789  0.9636  0.8177  0.0126
  721TIP3    H226359   4.528   2.264  16.716 -1.3957 -1.5595 -0.5676
  722TIP3   OH226360   4.282   7.358  16.740 -0.1142 -0.1945 -0.2494
  722TIP3    H126361   4.240   7.344  16.656  0.0849  1.3492 -0.6345
  722TIP3    H226362   4.213   7.395  16.796  0.2722  0.7171 -0.3647
  723TIP3   OH226363   0.313   5.887  17.843 -0.8463 -0.4748 -0.5269
  723TIP3    H126364   0.333   5.821  17.777 -2.1372 -0.6158 -0.8018
  723TIP3    H226365   0.374   5.958  17.824 -1.2202 -0.4858 -1.9386
  724TIP3   OH226366   6.523   5.961  17.525  0.5203 -0.0467  0.2080
  724TIP3    H126367   6.516   6.021  17.451 -1.2171  0.3728  0.6650
  724TIP3    H226368   6.550   5.877  17.486 -2.4750 -0.4532 -1.2973
  725TIP3   OH226369   0.089   0.381  16.846  0.4306 -0.6080 -0.3300
  725TIP3    H126370   0.051   0.333  16.919  2.3962 -1.3720  0.2431
  725TIP3    H226371   0.168   0.332  16.823  1.9715  1.7432 -0.3959
  726TIP3   OH226372   5.379   2.254  18.222  0.6796  0.7541  0.0745
  726TIP3    H126373   5.358   2.323  18.160 -0.5472  1.0603  0.8045
  726TIP3    H226374   5.379   2.174  18.170 -0.4911  0.9813 -0.3048
  727TIP3   OH226375   7.099   2.545  16.444  0.4216  0.0183  0.1100
  727TIP3    H126376   7.193   2.561  16.452  0.1756  1.1864  0.8045
  727TIP3    H226377   7.085   2.536  16.349  1.4854 -1.9869  0.0792
  728TIP3   OH226378   1.888   1.047  16.438 -0.2181 -0.2417  0.3640
  728TIP3    H126379   1.800   1.084  16.447 -0.4204  0.1880 -2.4706
  728TIP3    H226380   1.920   1.083  16.356  3.0687  0.4145  1.7907
  729TIP3   OH226381   5.869   3.720  18.825 -0.4280  0.6156 -0.3261
  729TIP3    H126382   5.960   3.743  18.807  0.4276 -1.6256  0.7569
  729TIP3    H226383   5.825   3.804  18.840  1.6986  1.6999  0.1983
  730TIP3   OH226384   2.953   3.574  18.060  0.0317 -0.1537  0.0706
  730TIP3    H126385   2.921   3.625  18.133 -3.4239 -0.0182 -1.3545
  730TIP3    H226386   2.897   3.497  18.058  0.6551 -0.6203 -1.8688
  731TIP3   OH226387   3.566   0.484  16.296 -0.2111  0.1352 -0.0858
  731TIP3    H126388   3.503   0.414  16.278 -0.8800  0.6978  0.0316
  731TIP3    H226389   3.513   0.563  16.306  0.2897  0.2406  2.2697
  732TIP3   OH226390   4.675   1.232  16.626 -0.1915  0.2417  0.6521
  732TIP3    H126391   4.619   1.156  16.610  0.7107 -0.2784 -0.1560
  732TIP3    H226392   4.728   1.207  16.701  0.4605 -0.1564  0.0752
  733TIP3   OH226393   7.164   6.879  17.879  0.0435 -0.3026  0.8140
  733TIP3    H126394   7.085   6.891  17.932 -0.3425  0.6427  0.0604
  733TIP3    H226395   7.236   6.901  17.938 -0.3818  0.7776  0.9460
  734TIP3   OH226396   2.749   6.978  17.998  0.1560  0.3672  0.1906
  734TIP3    H126397   2.835   6.974  18.039 -0.5956  1.1965  1.9475
  734TIP3    H226398   2.689   6.949  18.067 -0.9383 -0.6250 -1.1457
  735TIP3   OH226399   6.672   4.646  19.286 -0.2562  0.3254 -0.2509
  735TIP3    H126400   6.593   4.698  19.273 -0.1423  0.2387 -1.4624
  735TIP3    H226401   6.653   4.589  19.360 -0.6000  1.6614  0.7245
  736TIP3   OH226402   2.359   2.091  17.404  0.9477  0.0716  0.1836
  736TIP3    H126403   2.446   2.102  17.442  0.0182  2.7334  1.8535
  736TIP3    H226404   2.348   2.165  17.345 -0.8191  0.9636  1.5114
  737TIP3   OH226405   7.154   0.195  17.698 -0.3274 -0.3240  0.0008
  737TIP3    H126406   7.232   0.231  17.739 -0.0761 -0.1875 -0.5922
  737TIP3    H226407   7.100   0.272  17.677 -0.5809 -0.4113  0.3278
  738TIP3   OH226408   7.524   7.333  16.411  0.0533  0.3346 -0.1018
  738TIP3    H126409   7.559   7.372  16.331  0.7822  0.8463  0.4560
  738TIP3    H226410   7.571   7.251  16.421  1.4240  1.2009  0.8530
  739TIP3   OH226411   0.287   5.532  17.838 -0.4947  0.1684  0.1414
  739TIP3    H126412   0.265   5.597  17.771  0.1507  1.0617  0.7623
  739TIP3    H226413   0.376   5.504  17.816 -0.5549 -0.0689  0.2028
  740TIP3   OH226414   6.273   3.231  18.248 -0.0487 -0.0267  0.0777
  740TIP3    H126415   6.342   3.298  18.247 -0.0743  0.0537 -2.8510
  740TIP3    H226416   6.294   3.177  18.325  0.7627  2.4574  1.7419
  741TIP3   OH226417   2.586   1.934  18.261 -0.1477 -0.1085 -0.3936
  741TIP3    H126418   2.642   1.871  18.215  0.1483 -0.6373  0.6630
  741TIP3    H226419   2.565   2.000  18.195  2.4225  0.5817 -0.6169
  742TIP3   OH226420   2.713   4.295  17.309  0.1215 -0.0650  0.7028
  742TIP3    H126421   2.714   4.390  17.296  0.8010  0.0235  1.3946
  742TIP3    H226422   2.755   4.260  17.230 -1.6056  0.0856 -0.3542
  743TIP3   OH226423   0.567   5.533  16.179  0.3488  0.1481 -0.0369
  743TIP3    H126424   0.564   5.606  16.118 -1.9139 -0.4638 -0.7517
  743TIP3    H226425   0.510   5.466  16.140 -0.0546 -0.8191  2.0458
  744TIP3   OH226426   7.351   2.534  16.556 -0.4339 -0.5575 -0.7996
  744TIP3    H126427   7.299   2.516  16.634 -0.2867 -2.1289 -1.0480
  744TIP3    H226428   7.412   2.461  16.550  0.6113  0.3471 -1.5144
  745TIP3   OH226429   5.926   4.859  18.721 -0.2551 -0.6629  0.7349
  745TIP3    H126430   5.838   4.888  18.745 -0.8243 -0.7125 -1.1585
  745TIP3    H226431   5.961   4.929  18.666 -0.0700 -1.6879 -0.5156
  746TIP3   OH226432   1.622   6.796  16.718  0.0142  0.1276  0.0488
  746TIP3    H126433   1.576   6.770  16.638 -0.2320  0.2477  0.1483
  746TIP3    H226434   1.662   6.880  16.696  0.8600 -0.3466 -0.2934
  747TIP3   OH226435   1.223   2.050  17.753  0.6224 -0.5281 -0.5786
  747TIP3    H126436   1.238   1.956  17.759  0.1785 -0.5538  0.2227
  747TIP3    H226437   1.161   2.060  17.681 -0.8225 -1.0331  0.5509
  748TIP3   OH226438   3.838   2.577  17.728  0.1639 -0.5059 -0.0678
  748TIP3    H126439   3.808   2.497  17.771 -1.5206  0.4520  0.6369
  748TIP3    H226440   3.905   2.612  17.787  0.5981 -1.1612 -0.1624
  749TIP3   OH226441   3.364   5.865  16.989  0.0074  1.0401 -0.7248
  749TIP3    H126442   3.305   5.908  16.927 -0.3880  0.1730 -0.9532
  749TIP3    H226443   3.389   5.935  17.050 -1.8428  1.2462 -0.1630
  750TIP3   OH226444   4.642   6.538  17.608  0.3493  0.3923 -0.5964
  750TIP3    H126445   4.735   6.514  17.615 -0.0678 -1.1129  0.2222
  750TIP3    H226446   4.625   6.541  17.514  1.1127  0.1577 -0.7530
  751TIP3   OH226447   7.217   4.476  17.640 -0.1017 -0.0202  0.0115
  751TIP3    H126448   7.253   4.392  17.613  0.0185  0.0371 -0.0102
  751TIP3    H226449   7.132   4.482  17.597 -0.0315 -0.0501 -0.1307
  752TIP3   OH226450   1.132   0.348  18.084  0.0170  0.4878 -0.2577
  752TIP3    H126451   1.183   0.427  18.102  2.2160 -1.1478  1.3584
  752TIP3    H226452   1.086   0.329  18.165  0.6629 -0.6032 -0.1125
  753TIP3   OH226453   5.368   1.313  17.344 -0.3632 -0.3144 -0.3005
  753TIP3    H126454   5.436   1.367  17.305 -0.3813  1.1386  1.5668
  753TIP3    H226455   5.403   1.224  17.339  0.5140  0.0706 -1.6813
  754TIP3   OH226456   4.492   2.799  17.342 -0.1097 -0.1214 -0.2714
  754TIP3    H126457   4.436   2.806  17.419  1.4054  1.0712  0.7951
  754TIP3    H226458   4.554   2.872  17.351  1.4957 -1.2546 -1.4657
  755TIP3   OH226459   1.587   6.995  18.187  0.3495 -0.0117  0.3119
  755TIP3    H126460   1.569   6.901  18.178  0.1149  0.1159 -0.6494
  755TIP3    H226461   1.673   7.007  18.145 -0.6663  0.5674 -1.7384
  756TIP3   OH226462   4.863   3.215  16.924 -1.0397 -0.0570 -0.0433
  756TIP3    H126463   4.810   3.294  16.919 -0.4133  0.3295 -0.8243
  756TIP3    H226464   4.811   3.149  16.879 -1.3008  0.0600  0.0844
  757TIP3   OH226465   1.335   7.155  18.519  0.1452  0.0382 -0.2389
  757TIP3    H126466   1.371   7.228  18.568 -1.3024  0.0168  0.9178
  757TIP3    H226467   1.358   7.174  18.428  1.7241  0.7611  0.2683
  758TIP3   OH226468   3.680   7.503  16.843 -0.1397 -0.1575  0.1623
  758TIP3    H126469   3.691   7.594  16.815 -3.3182  0.4465  0.5173
  758TIP3    H226470   3.659   7.510  16.936 -0.7986 -1.1935  0.1046
  759TIP3   OH226471   2.273   3.553  17.373  0.2843 -0.0979 -0.2578
  759TIP3    H126472   2.351   3.520  17.418 -0.7202 -2.1893  0.0399
  759TIP3    H226473   2.254   3.636  17.416  0.1080 -1.4076  2.3462
  760TIP3   OH226474   3.520   4.482  16.656 -0.1200 -1.0039 -0.2059
  760TIP3    H126475   3.439   4.431  16.648 -1.1974  0.6337 -0.0165
  760TIP3    H226476   3.510   4.553  16.593  0.5113  0.0766  0.8884
  761TIP3   OH226477   3.052   2.615  18.166  0.8652 -0.1921 -0.5889
  761TIP3    H126478   3.010   2.588  18.085  0.9983  0.5596 -0.9124
  761TIP3    H226479   3.047   2.711  18.166  0.6138 -0.1903  0.4236
  762TIP3   OH226480   6.169   0.754  16.908 -0.0932 -0.4459 -0.1934
  762TIP3    H126481   6.206   0.770  16.995 -0.5098  0.5042 -0.1747
  762TIP3    H226482   6.082   0.794  16.911 -0.3312 -0.8917 -0.8732
  763TIP3   OH226483   1.328   5.318  17.432 -0.2442 -0.0422 -0.2844
  763TIP3    H126484   1.409   5.331  17.383  0.4842  0.8075  1.0810
  763TIP3    H226485   1.357   5.286  17.518 -1.4712 -1.3444 -0.3310
  764TIP3   OH226486   1.735   0.928  16.722 -0.2801  0.3639 -0.3975
  764TIP3    H126487   1.819   0.883  16.715 -0.2950  0.2844 -0.0534
  764TIP3    H226488   1.697   0.920  16.634  0.0534  0.3688 -0.5403
  765TIP3   OH226489   4.524   5.476  16.344 -0.0610  0.8184  0.3181
  765TIP3    H126490   4.477   5.412  16.398  1.2609  0.7486  1.4481
  765TIP3    H226491   4.601   5.500  16.397  0.4136  2.0000 -0.8493
  766TIP3   OH226492   7.239   1.966  16.539 -0.0963  0.2206  0.5063
  766TIP3    H126493   7.276   1.994  16.455 -1.2356 -0.9630 -0.4293
  766TIP3    H226494   7.252   2.042  16.596  1.0829  0.9086 -0.6000
  767TIP3   OH226495   6.141   7.554  19.010  0.3252 -0.0039  0.4799
  767TIP3    H126496   6.084   7.542  19.086  0.5062  1.6464  0.9184
  767TIP3    H226497   6.149   7.467  18.971  0.9803 -1.1021  2.8787
  768TIP3   OH226498   7.055   7.326  16.854 -0.7530 -0.0958 -0.3118
  768TIP3    H126499   7.148   7.311  16.873 -0.9035 -0.2384  0.3408
  768TIP3    H226500   7.017   7.239  16.852 -1.2263  0.0258  1.3764
  769TIP3   OH226501   1.986   2.457  16.552 -0.6408  0.6899  0.7543
  769TIP3    H126502   1.907   2.506  16.573 -0.8525  0.5603  0.2721
  769TIP3    H226503   2.017   2.423  16.636 -1.0970  0.7360  0.9394
  770TIP3   OH226504   5.937   1.128  16.815 -0.2467 -0.4895 -0.0650
  770TIP3    H126505   5.926   1.036  16.838  0.4881 -0.0648  2.3108
  770TIP3    H226506   5.856   1.170  16.843  0.3442 -0.0826  1.1125
  771TIP3   OH226507   7.400   3.555  18.161  0.3869  0.1670  0.2500
  771TIP3    H126508   7.357   3.559  18.075 -1.1492 -1.8508  0.8409
  771TIP3    H226509   7.327   3.555  18.223  0.9648 -4.6369  1.2801
  772TIP3   OH226510   2.590   1.668  17.854 -0.6547  0.0150 -0.4652
  772TIP3    H126511   2.501   1.634  17.843 -0.0691 -1.6245 -0.4933
  772TIP3    H226512   2.623   1.679  17.765 -0.5325 -0.2348 -0.4518
  773TIP3   OH226513   6.050   1.888  17.485 -0.0785 -0.0314 -0.1145
  773TIP3    H126514   6.007   1.912  17.567 -0.9569  1.2065 -0.9085
  773TIP3    H226515   6.029   1.959  17.424  0.8548 -0.7380 -1.3227
  774TIP3   OH226516   6.962   1.635  16.825  0.2794  0.2065 -0.1907
  774TIP3    H126517   6.960   1.541  16.807  0.5352  0.4009 -1.3650
  774TIP3    H226518   6.891   1.670  16.771 -1.9699  0.3561  2.6365
  775TIP3   OH226519   1.331   0.021  16.621  0.0384 -0.4253 -0.4910
  775TIP3    H126520   1.318  -0.017  16.708  1.3759  0.6616  0.2255
  775TIP3    H226521   1.320  -0.052  16.561 -2.1998 -0.9683  0.4583
  776TIP3   OH226522   6.975   1.943  16.773  0.0334  0.0210  0.2143
  776TIP3    H126523   6.897   1.980  16.731  1.5476  1.7856 -1.1815
  776TIP3    H226524   7.032   1.917  16.700  2.4599  2.5621  1.0535
  777TIP3   OH226525   0.176   0.870  16.725 -0.5628 -0.4716 -0.7976
  777TIP3    H126526   0.231   0.891  16.650 -0.8996  0.0491 -0.9047
  777TIP3    H226527   0.086   0.870  16.690 -0.6740 -0.8152 -0.5203
  778TIP3   OH226528   2.689   2.407  17.097  0.3490 -0.0776 -0.3859
  778TIP3    H126529   2.625   2.336  17.102  1.0517 -0.7623 -0.8074
  778TIP3    H226530   2.732   2.407  17.182  1.0991 -0.8928 -0.7554
  779TIP3   OH226531   7.164   3.756  17.756 -0.1114  0.8292 -0.2361
  779TIP3    H126532   7.078   3.717  17.738  0.6145 -0.2823 -1.4522
  779TIP3    H226533   7.194   3.788  17.671  0.4935  1.6417  0.2594
  780TIP3   OH226534   0.319   1.515  16.643 -0.4658  0.1299  0.0722
  780TIP3    H126535   0.254   1.582  16.665 -0.9052 -0.1499 -0.3339
  780TIP3    H226536   0.267   1.439  16.617  0.0171  0.1607 -1.0518
  781TIP3   OH226537   5.177   6.871  16.870  0.4229  0.3034 -0.6070
  781TIP3    H126538   5.249   6.922  16.832  0.0645  0.4028 -1.1591
  781TIP3    H226539   5.107   6.875  16.805  0.3626 -0.8515 -0.6415
  782TIP3   OH226540   5.762   6.805  18.042  0.0190 -0.1570 -0.3293
  782TIP3    H126541   5.855   6.822  18.024  0.4034 -0.9902  0.7371
  782TIP3    H226542   5.739   6.733  17.982 -0.0493  0.3061 -0.8621
  783TIP3   OH226543   3.475   5.339  16.580 -0.0036  0.4121 -0.0776
  783TIP3    H126544   3.521   5.255  16.587  0.9553  0.9102 -0.3705
  783TIP3    H226545   3.394   5.325  16.629  0.2047 -0.6423  0.0004
  784TIP3   OH226546   6.316   1.801  17.600  0.1399  0.9753 -0.1506
  784TIP3    H126547   6.311   1.715  17.558  0.3449  0.3976  0.9659
  784TIP3    H226548   6.226   1.834  17.597 -0.8396 -0.9763  2.7574
  785TIP3   OH226549   6.407   1.918  18.146 -1.0568 -0.0073  0.0285
  785TIP3    H126550   6.338   1.852  18.147 -0.3616 -0.8290 -1.8930
  785TIP3    H226551   6.463   1.893  18.072  1.1346  0.7882  1.3243
  786TIP3   OH226552   2.947   2.267  18.382  0.5418 -0.3044  0.7692
  786TIP3    H126553   2.896   2.344  18.407 -0.9720 -1.3320  0.9863
  786TIP3    H226554   2.999   2.247  18.460 -0.7797 -0.8256  1.5579
  787TIP3   OH226555   4.318   1.253  16.403 -0.2222 -0.1752  0.4572
  787TIP3    H126556   4.225   1.236  16.421 -0.4766  2.2563  1.9326
  787TIP3    H226557   4.364   1.179  16.444 -1.4559 -0.8690  0.6429
  788TIP3   OH226558   1.579   7.348  17.474  0.1863  0.5825 -0.4151
  788TIP3    H126559   1.538   7.284  17.532 -0.8256  0.0030 -1.7187
  788TIP3    H226560   1.583   7.428  17.526 -2.5792  0.6506 -0.1535
  789TIP3   OH226561   1.068   0.328  17.013  0.4016  0.1880  0.5451
  789TIP3    H126562   1.106   0.240  17.017  1.3551  0.4754 -1.1202
  789TIP3    H226563   0.995   0.326  17.074 -0.3308 -2.1225 -0.3235
  790TIP3   OH226564   0.896   2.747  16.171 -0.0607  0.0995 -0.0426
  790TIP3    H126565   0.917   2.735  16.078 -0.9336 -0.3737 -0.1854
  790TIP3    H226566   0.810   2.708  16.182  0.5227 -0.9257  1.2244
  791TIP3   OH226567   0.822   4.004  16.871  0.3549  0.1235  0.8724
  791TIP3    H126568   0.734   4.010  16.835 -0.0479 -0.2303  1.7733
  791TIP3    H226569   0.876   4.053  16.810 -0.5188  0.6275  0.4872
  792TIP3   OH226570   7.318   3.882  17.152 -0.3808 -0.0021 -0.1711
  792TIP3    H126571   7.323   3.928  17.068 -0.6410  0.2487 -0.0495
  792TIP3    H226572   7.268   3.803  17.132 -2.6276  1.2494  0.2652
  793TIP3   OH226573   4.486   3.187  18.947 -0.2187  0.5133  0.7466
  793TIP3    H126574   4.483   3.184  18.852 -0.9102  2.0639  0.6819
  793TIP3    H226575   4.407   3.142  18.975  1.4146 -2.5926  0.7481
  794TIP3   OH226576   2.239   0.856  18.780 -0.3184 -0.0924  0.1098
  794TIP3    H126577   2.255   0.796  18.853 -0.6036  0.5528  0.7138
  794TIP3    H226578   2.307   0.835  18.716  0.5615  0.0070  0.9878
  795TIP3   OH226579   6.507   4.768  17.415 -0.2114 -0.6891  0.9841
  795TIP3    H126580   6.553   4.694  17.376  1.8109  1.6990 -1.5775
  795TIP3    H226581   6.417   4.760  17.383  0.8906 -0.0094 -2.6152
  796TIP3   OH226582   2.460   3.432  17.549  0.2108 -0.0105  0.1094
  796TIP3    H126583   2.434   3.342  17.566 -0.1899  0.0416 -0.2051
  796TIP3    H226584   2.534   3.448  17.608 -1.3283  0.2879  2.0828
  797TIP3   OH226585   1.079   5.577  16.851  0.4941 -0.0223  0.1492
  797TIP3    H126586   1.073   5.537  16.937  0.9670 -0.7066 -0.1278
  797TIP3    H226587   0.996   5.557  16.809  1.6539 -3.1108 -0.9751
  798TIP3   OH226588   7.653   1.878  17.773  0.0089  0.3522  0.4003
  798TIP3    H126589   7.738   1.835  17.763 -1.0658 -1.7161 -0.5949
  798TIP3    H226590   7.623   1.893  17.683 -0.5324  1.4275  0.7375
  799TIP3   OH226591   5.943   1.044  17.295 -0.1378 -0.7404  0.5160
  799TIP3    H126592   5.993   1.058  17.215  0.2056  0.1459  0.8720
  799TIP3    H226593   5.914   0.953  17.290 -0.2926 -0.6306 -0.6991
  800TIP3   OH226594   5.619   4.654  18.670  0.0685  0.3424 -0.4443
  800TIP3    H126595   5.624   4.595  18.745 -1.8784 -1.2830 -1.4878
  800TIP3    H226596   5.648   4.739  18.704  2.5665 -1.0385  1.2314
  801TIP3   OH226597   0.558   4.869  18.861  0.1293 -0.0832 -0.1848
  801TIP3    H126598   0.520   4.914  18.786  0.2493 -0.1311 -0.2720
  801TIP3    H226599   0.549   4.932  18.933  0.3704  0.1129 -0.3251
  802TIP3   OH226600   1.567   4.773  18.548  0.0466  0.2294 -0.0605
  802TIP3    H126601   1.556   4.698  18.490  0.3845  0.1885 -0.0748
  802TIP3    H226602   1.588   4.846  18.489  0.4894  0.1666  0.0106
  803TIP3   OH226603   4.750   1.863  16.960  0.1243  0.1136 -0.5402
  803TIP3    H126604   4.841   1.846  16.937 -0.2750 -1.2581 -1.2447
  803TIP3    H226605   4.706   1.877  16.876 -0.4463  0.0065 -0.2679
  804TIP3   OH226606   0.887   3.386  17.232 -0.2915  0.1457  0.1888
  804TIP3    H126607   0.825   3.374  17.303  0.8322  0.3529  1.2314
  804TIP3    H226608   0.967   3.344  17.262  0.2986  0.4867 -0.8344
  805TIP3   OH226609   0.449   5.962  17.331  0.5664 -0.0507  0.6527
  805TIP3    H126610   0.451   5.876  17.288  1.4384  0.2436  0.0684
  805TIP3    H226611   0.371   5.959  17.386 -1.1824 -0.0908 -1.6702
  806TIP3   OH226612   7.564   3.968  16.887  0.3561  0.0243 -0.1068
  806TIP3    H126613   7.658   3.966  16.867  0.3267 -1.1628 -0.2057
  806TIP3    H226614   7.548   4.057  16.918  1.6437  0.0574  0.5422
  807TIP3   OH226615   2.524   2.197  16.964  0.5167  0.1531 -0.0773
  807TIP3    H126616   2.432   2.185  16.985  0.6404 -2.6416 -0.7474
  807TIP3    H226617   2.570   2.130  17.015  2.0019  0.4598 -0.9345
  808TIP3   OH226618   7.312   3.047  18.530  0.3463 -0.3213 -0.1484
  808TIP3    H126619   7.345   3.068  18.442 -1.3010 -1.0792 -0.9918
  808TIP3    H226620   7.362   3.104  18.588  0.3214  1.4336 -1.7337
  809TIP3   OH226621   2.397   0.444  18.350 -0.0015  0.0652 -0.4375
  809TIP3    H126622   2.340   0.521  18.357 -0.5958 -0.3904 -0.1983
  809TIP3    H226623   2.350   0.375  18.396  0.0542 -0.7158 -1.5088
  810TIP3   OH226624   2.135   3.754  17.774 -0.6323 -0.2962 -0.1225
  810TIP3    H126625   2.177   3.758  17.688  1.0487 -1.5245  0.6065
  810TIP3    H226626   2.085   3.836  17.779 -0.8789 -0.2519 -2.2945
  811TIP3   OH226627   6.757   5.355  18.840  0.2494  0.2331  0.2463
  811TIP3    H126628   6.821   5.370  18.770  0.7180  2.9843  1.1499
  811TIP3    H226629   6.682   5.409  18.817 -0.3470 -0.2573  0.9703
  812TIP3   OH226630   6.460   6.344  17.931  0.2018 -0.3488  0.3083
  812TIP3    H126631   6.518   6.290  17.985  0.4571 -2.0212 -1.5241
  812TIP3    H226632   6.373   6.306  17.942 -0.1639  0.7074  1.2392
  813TIP3   OH226633   0.327   4.916  18.298  0.4643 -0.0110 -0.1326
  813TIP3    H126634   0.379   4.995  18.282 -2.6284  2.0809 -0.5431
  813TIP3    H226635   0.311   4.917  18.393 -1.6335  1.3489 -0.4397
  814TIP3   OH226636   7.301   6.668  18.305 -0.0425  0.0490  0.1799
  814TIP3    H126637   7.395   6.686  18.309  0.1427 -1.0309  1.7986
  814TIP3    H226638   7.289   6.592  18.363 -2.0711  0.8752  0.9176
  815TIP3   OH226639   1.426   5.514  18.412 -0.6642 -0.0179 -0.1449
  815TIP3    H126640   1.432   5.497  18.506 -1.4594 -0.5608 -0.1866
  815TIP3    H226641   1.511   5.551  18.389 -0.2320 -0.4898  0.6628
  816TIP3   OH226642   0.272   6.419  17.841  0.3786  0.0447  0.7239
  816TIP3    H126643   0.247   6.461  17.923 -1.0474  0.0954  0.2966
  816TIP3    H226644   0.189   6.405  17.795  1.1602  0.3089 -0.8520
  817TIP3   OH226645   6.836   5.754  18.257  0.1223  0.3424 -0.1633
  817TIP3    H126646   6.820   5.792  18.170  2.4943 -0.6423 -1.1222
  817TIP3    H226647   6.784   5.673  18.258  1.0655 -0.2985 -1.2089
  818TIP3   OH226648   6.347   1.574  17.214 -0.4984  0.2453 -1.1106
  818TIP3    H126649   6.437   1.602  17.233 -0.0927 -1.0245 -1.0741
  818TIP3    H226650   6.294   1.651  17.234  0.1666 -0.0303  2.3853
  819TIP3   OH226651   7.409   4.027  17.378 -0.4882  0.5323  0.1842
  819TIP3    H126652   7.382   3.993  17.292  0.2695  1.0670 -0.2746
  819TIP3    H226653   7.418   3.949  17.432  0.5411  0.0207 -0.6672
  820TIP3   OH226654   1.090   5.346  16.609 -1.0131  0.4543  0.0698
  820TIP3    H126655   1.060   5.436  16.597 -1.3247  0.1260 -2.2687
  820TIP3    H226656   1.165   5.338  16.549 -0.3128 -0.5455  1.0535
  821TIP3   OH226657   4.850   0.236  16.584 -0.5148  0.6361  0.1896
  821TIP3    H126658   4.823   0.236  16.676  0.7178 -1.5618  0.6471
  821TIP3    H226659   4.883   0.324  16.568  1.0103  0.5756  2.4865
  822TIP3   OH226660   5.292   6.390  17.926 -0.0930  0.5211 -0.0933
  822TIP3    H126661   5.314   6.438  17.846 -0.1628  0.9938  0.1653
  822TIP3    H226662   5.212   6.432  17.958 -0.1826  0.1986  0.1115
  823TIP3   OH226663   6.618   7.443  17.574 -0.1479 -0.3630  0.2154
  823TIP3    H126664   6.713   7.457  17.576 -0.2710  0.8118 -0.7379
  823TIP3    H226665   6.597   7.434  17.481 -0.9836 -0.5398  0.4171
  824TIP3   OH226666   3.462   5.880  18.755 -0.3485  0.1161  0.0046
  824TIP3    H126667   3.417   5.811  18.804 -0.0848 -1.0175 -1.2884
  824TIP3    H226668   3.459   5.957  18.812 -2.2011 -0.4670  0.7458
  825TIP3   OH226669   6.093   6.203  16.673 -0.0781 -0.0973 -0.0248
  825TIP3    H126670   6.134   6.286  16.699  1.3959 -0.5775 -0.6945
  825TIP3    H226671   6.097   6.203  16.577  1.7468 -1.7687 -0.0067
  826TIP3   OH226672   6.506   5.318  17.311 -0.3524 -0.6874 -0.5861
  826TIP3    H126673   6.432   5.298  17.253 -1.8708 -1.3712  1.4785
  826TIP3    H226674   6.477   5.289  17.398  0.6355  2.8664  1.1186
  827TIP3   OH226675   6.471   1.850  17.234  0.2009  0.4606  0.1269
  827TIP3    H126676   6.375   1.850  17.228  0.2459 -0.6253 -1.0330
  827TIP3    H226677   6.499   1.907  17.163  0.4283 -0.5636 -0.6341
  828TIP3   OH226678   4.834   2.891  18.434  0.4113  0.0991 -0.3199
  828TIP3    H126679   4.895   2.901  18.507  1.7679 -0.3001 -1.3555
  828TIP3    H226680   4.784   2.812  18.456  0.3879  0.3144  0.4419
  829TIP3   OH226681   6.930   2.679  16.815  0.4201  0.0599 -0.0392
  829TIP3    H126682   6.929   2.617  16.742  1.1091 -0.3507  0.2866
  829TIP3    H226683   6.971   2.758  16.779  0.9773 -0.2237 -0.0410
  830TIP3   OH226684   1.226   6.484  17.398  0.3635  0.0380  0.1535
  830TIP3    H126685   1.320   6.469  17.388  0.5738  0.9535  0.6623
  830TIP3    H226686   1.187   6.396  17.391  1.4277 -0.6082  1.7145
  831TIP3   OH226687   7.619   0.990  17.108 -0.5769 -0.2385  0.1141
  831TIP3    H126688   7.649   0.999  17.199 -0.6158 -1.5121  0.2706
  831TIP3    H226689   7.693   1.021  17.056  0.3187 -1.5718  0.5438
  832TIP3   OH226690   0.979   6.447  16.976 -0.5859  0.2770  0.1604
  832TIP3    H126691   0.917   6.411  17.040 -1.1207  0.7623 -0.0728
  832TIP3    H226692   1.064   6.440  17.018 -0.8994  0.3477  0.8147
  833TIP3   OH226693   7.427   1.137  18.556  0.5021 -0.1085 -0.5826
  833TIP3    H126694   7.478   1.061  18.585 -2.0759 -1.4879  0.6788
  833TIP3    H226695   7.341   1.101  18.536 -1.2246  2.6429  1.2875
  834TIP3   OH226696   3.089   5.884  18.763  0.3845  0.5230  0.1231
  834TIP3    H126697   3.022   5.890  18.831 -1.2191  0.2848 -1.3702
  834TIP3    H226698   3.148   5.816  18.793 -0.9252 -0.3737  0.7580
  835TIP3   OH226699   1.128   2.221  17.153  0.2055  0.1924 -0.0834
  835TIP3    H126700   1.174   2.158  17.098 -1.2452 -1.2629  0.2960
  835TIP3    H226701   1.037   2.220  17.121 -0.2761  0.6135  1.1900
  836TIP3   OH226702   5.480   7.285  18.359 -0.3205 -0.0152  0.5303
  836TIP3    H126703   5.504   7.265  18.269  0.2633 -0.3909  0.7585
  836TIP3    H226704   5.395   7.241  18.372 -0.2328 -0.2619  0.2709
  837TIP3   OH226705   6.820   1.291  16.999 -0.5768 -0.0588 -0.0696
  837TIP3    H126706   6.767   1.275  16.922 -2.1925 -1.0061  1.1741
  837TIP3    H226707   6.854   1.204  17.023 -0.1268  0.2134  0.3061
  838TIP3   OH226708   2.096   2.703  16.956  0.0096  0.2028 -0.0720
  838TIP3    H126709   2.073   2.613  16.978 -0.7205  0.5194  0.5358
  838TIP3    H226710   2.066   2.754  17.031 -0.0847  1.0083 -0.6385
  839TIP3   OH226711   0.307   6.159  17.503 -0.3615 -0.0315 -1.0742
  839TIP3    H126712   0.250   6.085  17.523 -0.9581  0.5953 -0.3862
  839TIP3    H226713   0.248   6.235  17.502  0.5140  0.6982  0.1002
  840TIP3   OH226714   1.097   0.098  17.553 -0.4139  0.6040 -0.1290
  840TIP3    H126715   1.036   0.115  17.481 -1.2629 -0.5319  0.2927
  840TIP3    H226716   1.114   0.185  17.590  0.4426  1.2776 -1.9794
  841TIP3   OH226717   2.550   1.975  17.152 -0.2400  0.1542 -0.1628
  841TIP3    H126718   2.457   2.000  17.156 -0.5522 -0.4525 -2.0842
  841TIP3    H226719   2.575   1.961  17.243 -2.1756 -0.0952  0.3916
  842TIP3   OH226720   0.100   0.417  16.383 -0.5004  0.5195 -0.1062
  842TIP3    H126721   0.075   0.436  16.293 -1.8741  1.5753  0.4521
  842TIP3    H226722   0.166   0.348  16.376 -1.2756 -0.0936 -1.8492
  843TIP3   OH226723   4.091   1.965  17.433  0.0895 -0.5236  0.5316
  843TIP3    H126724   4.151   1.937  17.363 -2.1165 -2.3286 -0.7656
  843TIP3    H226725   4.105   1.902  17.503 -1.3836 -2.0773 -0.4646
  844TIP3   OH226726   0.313   3.467  18.762  0.5760 -0.2659 -0.2662
  844TIP3    H126727   0.263   3.388  18.785 -0.0665  0.4461  0.8733
  844TIP3    H226728   0.249   3.538  18.770  1.8585  0.7309  1.6900
  845TIP3   OH226729   4.342   2.252  18.194 -0.1029 -0.5899  0.6146
  845TIP3    H126730   4.367   2.342  18.213  0.1811 -0.3525 -0.8050
  845TIP3    H226731   4.258   2.240  18.238 -0.9144  0.8685 -0.4769
  846TIP3   OH226732   1.920   1.495  16.570  0.4313  0.2515  0.2095
  846TIP3    H126733   1.910   1.448  16.487 -3.8291 -0.3049  0.8189
  846TIP3    H226734   1.938   1.426  16.634  0.6220  0.3001  0.2101
  847TIP3   OH226735   1.855   4.412  16.966 -0.2431 -0.5860  0.1327
  847TIP3    H126736   1.795   4.446  17.032 -0.0172  0.3926 -0.1463
  847TIP3    H226737   1.820   4.445  16.883  0.3424 -0.5200 -0.0876
  848TIP3   OH226738   4.870   7.097  17.636 -0.0714 -0.3123  0.1214
  848TIP3    H126739   4.925   7.121  17.561  0.2503  1.6166  0.9110
  848TIP3    H226740   4.801   7.043  17.599  0.8499 -0.5306 -1.3421
  849TIP3   OH226741   0.297   0.070  18.408 -0.3960  0.1870  0.4853
  849TIP3    H126742   0.291   0.004  18.338 -1.0319  0.9563 -0.2148
  849TIP3    H226743   0.209   0.074  18.445 -0.1079 -0.0752  1.2125
  850TIP3   OH226744   5.057   5.191  16.402  0.3557  0.2787  0.0691
  850TIP3    H126745   4.991   5.249  16.440  0.8270  1.3395 -0.6903
  850TIP3    H226746   5.122   5.179  16.471 -0.1630 -0.0292  0.5093
  851TIP3   OH226747   6.145   2.489  18.336  0.0208 -0.2461  0.1936
  851TIP3    H126748   6.224   2.521  18.291 -0.2476 -0.4099 -0.4107
  851TIP3    H226749   6.162   2.506  18.428  0.4267  0.4536  0.0039
  852TIP3   OH226750   5.306   2.067  18.649  0.4983 -0.1201  0.2966
  852TIP3    H126751   5.322   2.105  18.736  0.8506  0.6106 -0.0782
  852TIP3    H226752   5.345   2.130  18.588 -0.4545 -0.2211 -0.4367
  853TIP3   OH226753   7.475   5.811  16.802 -0.9572  0.8220  0.0302
  853TIP3    H126754   7.506   5.829  16.713  1.0069  0.1602  0.5297
  853TIP3    H226755   7.438   5.723  16.797 -0.5059  0.6363 -0.0564
  854TIP3   OH226756   7.449   5.387  17.968  0.1715  0.1898  0.1566
  854TIP3    H126757   7.418   5.456  18.026  1.5614  1.4064 -0.4866
  854TIP3    H226758   7.463   5.312  18.026 -0.5176  0.7064  1.0212
  855TIP3   OH226759   6.641   2.554  17.777 -0.8545 -0.6916  0.4155
  855TIP3    H126760   6.571   2.607  17.739 -1.3071 -1.8579 -0.4064
  855TIP3    H226761   6.634   2.469  17.734  0.2552 -1.2399  1.2576
  856TIP3   OH226762   7.178   0.023  18.456 -0.5371  0.1413  0.0342
  856TIP3    H126763   7.166   0.108  18.498 -0.8024  0.1543 -0.0640
  856TIP3    H226764   7.090  -0.004  18.432 -0.6317 -0.8684  1.4273
  857TIP3   OH226765   6.821   4.295  16.255 -0.1193  0.6093 -0.2142
  857TIP3    H126766   6.906   4.285  16.298  0.4771  0.6265 -1.3523
  857TIP3    H226767   6.757   4.294  16.327  0.7421 -0.5964  0.5635
  858TIP3   OH226768   5.462   2.425  17.627  0.1270  0.7428  0.2879
  858TIP3    H126769   5.515   2.469  17.693  0.4382  2.0056 -0.7709
  858TIP3    H226770   5.391   2.487  17.607  0.2985  0.5801 -0.8869
  859TIP3   OH226771   7.336   2.664  16.997  0.3046  0.0858 -0.7619
  859TIP3    H126772   7.245   2.634  17.002  0.6638 -1.0441 -0.5102
  859TIP3    H226773   7.355   2.698  17.085 -0.0477  0.8897 -0.9907
  860TIP3   OH226774   2.302   4.494  17.488 -0.0475  0.0171 -0.1710
  860TIP3    H126775   2.271   4.574  17.446 -1.4282 -0.2747  0.2307
  860TIP3    H226776   2.312   4.431  17.416 -0.3231  0.1475 -0.3239
  861TIP3   OH226777   4.049   5.611  16.795  0.1700 -0.3520 -0.1410
  861TIP3    H126778   3.993   5.585  16.722 -2.0236 -0.4210  1.4914
  861TIP3    H226779   4.024   5.701  16.813  0.2479 -0.5347  0.9122
  862TIP3   OH226780   4.994   5.812  18.250 -0.4029  0.4603 -1.0196
  862TIP3    H126781   4.945   5.869  18.310 -0.3899 -2.1289  1.6684
  862TIP3    H226782   5.080   5.802  18.291 -0.0612 -0.6417 -1.9601
  863TIP3   OH226783   0.034   4.658  17.727 -0.0053 -0.0913  0.0698
  863TIP3    H126784  -0.034   4.606  17.684 -1.5648  1.6742  0.2835
  863TIP3    H226785   0.004   4.748  17.718  2.1968  0.7392  0.4308
  864TIP3   OH226786   6.455   2.602  17.567 -0.2751 -0.1032 -0.2193
  864TIP3    H126787   6.489   2.565  17.485  0.4168  0.5681 -0.2516
  864TIP3    H226788   6.411   2.683  17.540  0.9764  0.7383  0.1864
  865TIP3   OH226789   5.211   3.145  17.803  0.8877  0.4152 -0.0914
  865TIP3    H126790   5.124   3.159  17.839  0.1656 -2.6264 -0.4092
  865TIP3    H226791   5.196   3.116  17.713  2.0926 -1.3811  0.2236
  866TIP3   OH226792   2.868   1.086  17.368 -0.6416  0.4487  0.0745
  866TIP3    H126793   2.785   1.101  17.412 -0.3931 -0.0285  0.7115
  866TIP3    H226794   2.850   1.015  17.306 -0.0610 -1.6838  2.2023
  867TIP3   OH226795   5.944   0.776  17.233  0.2716 -0.5102 -0.2143
  867TIP3    H126796   5.931   0.729  17.315  0.4783 -2.1396 -1.0876
  867TIP3    H226797   5.870   0.750  17.179  1.2978 -1.1814 -1.3176
  868TIP3   OH226798   4.739   3.264  18.222  0.2324 -0.3569  0.2428
  868TIP3    H126799   4.644   3.256  18.229  0.2429  0.0981  0.8980
  868TIP3    H226800   4.768   3.294  18.308  0.7816  1.3488 -0.5101
  869TIP3   OH226801   1.549   5.927  17.963  0.8676 -0.3033  0.0831
  869TIP3    H126802   1.511   5.840  17.948 -0.0859 -0.0115  0.7120
  869TIP3    H226803   1.616   5.936  17.895  0.4656 -1.2316 -0.4519
  870TIP3   OH226804   1.673   0.146  16.783  0.0783 -0.0993  0.2173
  870TIP3    H126805   1.672   0.052  16.766  1.4975  0.1226 -1.3471
  870TIP3    H226806   1.730   0.156  16.859 -1.0932 -0.5837  1.1869
  871TIP3   OH226807   1.630   5.672  18.343 -0.5173  0.0439 -0.0930
  871TIP3    H126808   1.708   5.629  18.378 -0.9054  1.3532  2.6264
  871TIP3    H226809   1.657   5.763  18.329 -1.6906  0.6742  1.5418
  872TIP3   OH226810   7.410   1.115  18.156 -0.0187 -0.0010 -0.0099
  872TIP3    H126811   7.398   1.184  18.091 -1.8746 -0.5839 -0.3678
  872TIP3    H226812   7.503   1.093  18.151  0.6565  2.4593  0.1614
  873TIP3   OH226813   3.739   2.218  18.017  0.7548  0.5087  0.3762
  873TIP3    H126814   3.725   2.124  18.032 -1.2685  0.6601 -0.2996
  873TIP3    H226815   3.832   2.225  17.995  0.7061 -1.5151 -0.7036
  874TIP3   OH226816   0.847   0.108  18.228  0.3710 -0.2636 -0.3653
  874TIP3    H126817   0.924   0.070  18.186  1.8178 -0.1601  1.9890
  874TIP3    H226818   0.882   0.181  18.279 -1.2326 -0.3899  0.9987
  875TIP3   OH226819   6.885   6.610  17.948 -0.0839  0.5987 -0.7254
  875TIP3    H126820   6.846   6.572  17.870 -1.3487  0.6207 -0.1288
  875TIP3    H226821   6.874   6.705  17.937  1.0547  0.6930 -1.1796
  876TIP3   OH226822   0.637   1.972  16.871  0.7767  0.0524  0.1245
  876TIP3    H126823   0.712   2.011  16.827  0.2813  0.4776 -0.3477
  876TIP3    H226824   0.676   1.913  16.935  1.5542  1.6987  1.2335
  877TIP3   OH226825   6.847   1.959  17.204  0.3210  0.3406  0.0786
  877TIP3    H126826   6.773   1.991  17.152 -0.8350 -1.8689  0.2620
  877TIP3    H226827   6.896   1.903  17.145  0.2283 -0.4682  0.7567
  878TIP3   OH226828   7.305   0.894  16.387  0.2476  0.2664 -0.4901
  878TIP3    H126829   7.269   0.818  16.432  1.3208 -0.1762 -0.3388
  878TIP3    H226830   7.230   0.936  16.346 -0.2440 -1.4292 -1.4121
  879TIP3   OH226831   7.252   1.715  17.944 -0.3676  0.0380 -0.1093
  879TIP3    H126832   7.196   1.783  17.906  0.2074  0.3979 -0.3214
  879TIP3    H226833   7.311   1.762  18.003 -1.3209 -0.5282  1.3512
  880TIP3   OH226834   0.218   1.726  16.932  0.3730  0.7745  0.6001
  880TIP3    H126835   0.181   1.725  16.844  1.9716 -1.2749 -0.1186
  880TIP3    H226836   0.152   1.682  16.986  0.0165  0.7317  0.1370
  881TIP3   OH226837   2.343   4.723  18.119 -0.3196  0.5421 -0.0366
  881TIP3    H126838   2.382   4.648  18.164  1.4928  0.9636 -0.8514
  881TIP3    H226839   2.258   4.734  18.163 -0.2243 -1.3532  0.7604
  882TIP3   OH226840   3.533   7.580  17.062 -0.5456  0.2417  0.1450
  882TIP3    H126841   3.581   7.541  17.135  0.1710  0.7769 -0.0267
  882TIP3    H226842   3.495   7.660  17.099 -1.5167 -0.3122  0.3450
  883TIP3   OH226843   3.691   2.173  18.597 -0.1967  0.1034 -0.1329
  883TIP3    H126844   3.686   2.106  18.529  0.7881  0.1275 -0.2461
  883TIP3    H226845   3.629   2.145  18.664  0.4828 -1.1173 -0.0003
  884TIP3   OH226846   6.067   0.168  16.342  0.1755  0.9899 -0.6383
  884TIP3    H126847   5.986   0.208  16.310 -0.9622 -1.0992 -0.6049
  884TIP3    H226848   6.036   0.097  16.399  2.0837  1.5125  1.1750
  885TIP3   OH226849   4.549   7.258  17.167 -0.5812  0.5180 -0.3992
  885TIP3    H126850   4.579   7.180  17.120 -0.1070  0.4696 -0.0285
  885TIP3    H226851   4.625   7.317  17.164 -0.4134  0.3604  0.6299
  886TIP3   OH226852   6.527   4.987  17.102  0.1655  0.0387 -0.5836
  886TIP3    H126853   6.578   4.963  17.179  0.5111 -0.9971 -1.1052
  886TIP3    H226854   6.569   5.065  17.068  0.9071 -0.3319 -0.5367
  887TIP3   OH226855   0.910   3.158  16.903 -0.5814  0.6485  0.2021
  887TIP3    H126856   0.882   3.247  16.885 -0.5034  0.5770 -0.2738
  887TIP3    H226857   0.841   3.103  16.865  0.7239  0.4363 -1.9934
  888TIP3   OH226858   3.046   1.774  16.900  0.9118 -0.6457 -0.2733
  888TIP3    H126859   3.057   1.680  16.885  0.7837 -0.5573 -0.9437
  888TIP3    H226860   2.957   1.793  16.871 -0.1661 -0.8454  2.6003
  889TIP3   OH226861   7.493   7.550  17.239  0.1557 -0.0421 -0.5719
  889TIP3    H126862   7.453   7.478  17.189 -0.4015  0.9660 -1.6424
  889TIP3    H226863   7.473   7.530  17.330 -1.6253 -0.3005 -0.9734
  890TIP3   OH226864   1.135   4.427  17.459  0.1790 -0.3184 -0.0902
  890TIP3    H126865   1.080   4.499  17.489 -0.3026 -0.2383 -1.1061
  890TIP3    H226866   1.200   4.416  17.528  0.0893  0.9027  0.2179
  891TIP3   OH226867   3.593   1.417  17.396 -0.4136 -0.3765 -0.0204
  891TIP3    H126868   3.645   1.365  17.334  1.8960  0.2752  1.2329
  891TIP3    H226869   3.639   1.501  17.401 -2.0488  0.5279  0.6325
  892TIP3   OH226870   4.953   0.346  17.346 -0.0979 -0.0437  0.3656
  892TIP3    H126871   4.974   0.307  17.431 -0.7680 -2.7021 -0.5824
  892TIP3    H226872   4.965   0.275  17.284 -0.5949  1.5538 -1.6682
  893TIP3   OH226873   1.869   7.405  16.858  0.2858 -0.1961  0.1568
  893TIP3    H126874   1.903   7.383  16.771 -0.6583  0.9378 -0.5267
  893TIP3    H226875   1.776   7.380  16.854  0.1707  0.1420  0.7282
  894TIP3   OH226876   5.235   1.824  17.361 -0.2625 -0.0496 -0.2930
  894TIP3    H126877   5.178   1.816  17.438 -0.0500 -0.4934 -0.1752
  894TIP3    H226878   5.243   1.734  17.328 -2.2328  0.4096 -2.2201
  895TIP3   OH226879   3.614   0.937  18.674  0.0530  0.1677 -0.7107
  895TIP3    H126880   3.681   1.001  18.701  1.1553 -0.8335 -0.9843
  895TIP3    H226881   3.531   0.983  18.686  0.5039  0.3780  2.9263
  896TIP3   OH226882   4.718   0.996  17.553 -0.1551 -0.4145 -0.3976
  896TIP3    H126883   4.659   0.923  17.538  0.0681 -1.1536  1.8932
  896TIP3    H226884   4.773   0.968  17.626  0.1135  1.9015  0.3930
  897TIP3   OH226885   5.336   3.420  18.710 -0.4607  0.8430 -0.1993
  897TIP3    H126886   5.264   3.359  18.730  0.6873  0.2371  2.6810
  897TIP3    H226887   5.320   3.495  18.768  0.8543  0.9613  0.0442
  898TIP3   OH226888   0.914   7.573  18.910 -0.2123  0.5825  0.1184
  898TIP3    H126889   0.937   7.514  18.982 -0.0798 -1.5957 -1.5934
  898TIP3    H226890   0.819   7.567  18.904 -0.1050 -0.5288 -0.8547
  899TIP3   OH226891   4.088   4.733  16.402  0.1652 -0.5261 -0.7935
  899TIP3    H126892   4.051   4.647  16.422 -0.5913 -0.3999 -1.5998
  899TIP3    H226893   4.013   4.787  16.381  0.4846  0.7530  1.0768
  900TIP3   OH226894   5.382   4.510  16.909 -0.2450 -0.1581 -0.3770
  900TIP3    H126895   5.292   4.495  16.938 -0.2381 -1.0193 -0.7639
  900TIP3    H226896   5.435   4.500  16.989 -0.6432  2.4396  0.2931
  901TIP3   OH226897   1.422   1.350  18.896  0.2365  0.1204  0.0178
  901TIP3    H126898   1.380   1.344  18.811 -1.1620  1.3066  0.5888
  901TIP3    H226899   1.352   1.335  18.959  0.6333  2.0341  0.9948
  902TIP3   OH226900   5.224   5.143  16.606  0.2575  0.3718 -0.7546
  902TIP3    H126901   5.310   5.108  16.632  0.0672 -1.0814 -1.9481
  902TIP3    H226902   5.161   5.091  16.656  0.0422  1.1977 -0.1458
  903TIP3   OH226903   7.069   2.891  16.707  0.2034 -0.2209 -0.4211
  903TIP3    H126904   7.064   2.890  16.612  1.0062 -0.3984 -0.4686
  903TIP3    H226905   7.154   2.932  16.727  0.9052 -1.8700  0.1637
  904TIP3   OH226906   2.266   1.569  18.369  0.0604  0.0026  0.4697
  904TIP3    H126907   2.281   1.650  18.418  0.3419 -0.5929  1.3829
  904TIP3    H226908   2.341   1.562  18.310 -0.3997  0.8442 -0.2538
  905TIP3   OH226909   2.708   5.946  17.638  0.6269  0.2452  0.4158
  905TIP3    H126910   2.773   5.922  17.703 -1.5623 -0.6520  2.4107
  905TIP3    H226911   2.639   5.991  17.687 -0.1624  1.4754 -1.6459
  906TIP3   OH226912   3.602   5.243  16.889 -0.8666  0.7678 -0.0096
  906TIP3    H126913   3.551   5.287  16.957  0.2137  0.1158  1.2797
  906TIP3    H226914   3.648   5.314  16.844 -1.9965  1.2513 -0.4173
  907TIP3   OH226915   7.355   4.219  17.580  0.0562  0.7472  0.8183
  907TIP3    H126916   7.339   4.151  17.645  1.1864  0.7634  1.1314
  907TIP3    H226917   7.345   4.174  17.496 -3.0626  1.0857  0.8890
  908TIP3   OH226918   0.738   5.620  18.031  0.3386 -0.0234  0.3389
  908TIP3    H126919   0.714   5.691  17.972  0.3285 -0.7998 -0.6194
  908TIP3    H226920   0.832   5.610  18.019  0.1892 -0.8149 -0.2990
  909TIP3   OH226921   2.723   1.699  16.546  0.0567 -0.9374  0.2416
  909TIP3    H126922   2.774   1.747  16.611  1.0387 -1.0423 -0.4230
  909TIP3    H226923   2.733   1.749  16.465 -0.8953 -0.9757  0.0831
  910TIP3   OH226924   4.709   0.087  16.424 -0.0468 -0.0669  0.9018
  910TIP3    H126925   4.666   0.045  16.498  0.5633  0.9111  1.8354
  910TIP3    H226926   4.772   0.147  16.463  1.5057 -0.7312 -0.4042
  911TIP3   OH226927   4.820   2.726  17.175  0.0810 -0.4306 -0.7969
  911TIP3    H126928   4.749   2.673  17.210 -2.1237  0.1272 -4.0363
  911TIP3    H226929   4.865   2.669  17.113  1.8172 -0.3956  0.3392
  912TIP3   OH226930   5.805   1.025  17.669  0.4012  0.4334  0.3991
  912TIP3    H126931   5.880   1.068  17.628 -0.5792  3.3925  1.4748
  912TIP3    H226932   5.728   1.069  17.633 -0.9967 -2.7991 -0.9947
  913TIP3   OH226933   4.481   0.430  17.841  0.6542 -0.1095  0.3529
  913TIP3    H126934   4.431   0.385  17.910 -0.7074  0.0960 -0.4524
  913TIP3    H226935   4.484   0.366  17.769  0.0683  0.4748 -0.2166
  914TIP3   OH226936   0.431   0.857  17.037  0.0522 -0.0202 -0.1876
  914TIP3    H126937   0.452   0.896  17.122 -0.5992 -0.4843  0.1932
  914TIP3    H226938   0.350   0.900  17.010  0.6851  0.7136 -0.9660
  915TIP3   OH226939   6.961   2.462  18.035  0.1412  0.1520 -0.1042
  915TIP3    H126940   6.940   2.515  18.112 -0.9093 -0.9595  0.3978
  915TIP3    H226941   6.923   2.510  17.961 -0.3638  0.3530  0.2807
  916TIP3   OH226942   5.118   5.075  18.289 -0.4024  0.6911 -0.2657
  916TIP3    H126943   5.169   5.019  18.229 -0.2145 -0.3416  0.8078
  916TIP3    H226944   5.039   5.024  18.305  0.1657  0.2868  1.4283
  917TIP3   OH226945   5.353   4.840  17.837 -0.0267 -0.4137  0.1855
  917TIP3    H126946   5.435   4.790  17.834  0.2533  0.0063  0.6250
  917TIP3    H226947   5.378   4.929  17.811 -0.6109 -0.6008 -1.0726
  918TIP3   OH226948   7.276   0.050  18.055 -0.4212 -0.5835 -0.6320
  918TIP3    H126949   7.223   0.121  18.092 -4.4929 -2.4315 -2.3093
  918TIP3    H226950   7.333   0.094  17.991  0.6504  1.5562  1.6032
  919TIP3   OH226951   1.186   0.855  18.127 -0.4650  0.8464 -0.3654
  919TIP3    H126952   1.261   0.797  18.112 -1.0416 -0.2536  0.8645
  919TIP3    H226953   1.221   0.943  18.109  1.1138  0.3585  0.1251
  920TIP3   OH226954   7.188   3.748  17.440  0.6900 -0.0385 -0.3719
  920TIP3    H126955   7.277   3.759  17.472  0.8635 -0.2800 -0.7636
  920TIP3    H226956   7.174   3.654  17.436  0.8488 -0.0264 -1.4629
  921TIP3   OH226957   0.517   0.253  18.516  0.4441  0.0053 -0.2238
  921TIP3    H126958   0.450   0.321  18.510  0.7944  0.2911 -1.0136
  921TIP3    H226959   0.468   0.172  18.525 -0.0451  0.1364 -1.5198
  922TIP3   OH226960   5.768   3.737  18.140  0.0569 -0.6443  0.4659
  922TIP3    H126961   5.703   3.807  18.137  0.6396 -0.1484 -1.7156
  922TIP3    H226962   5.749   3.691  18.222 -2.3475  0.1334  0.4156
  923TIP3   OH226963   4.648   1.642  16.723 -0.0312  0.4276 -0.0509
  923TIP3    H126964   4.637   1.601  16.637 -0.9463  1.2110 -0.3092
  923TIP3    H226965   4.569   1.619  16.771  0.9619 -0.9864  1.0304
  924TIP3   OH226966   1.829   7.217  17.469 -0.1628 -0.0633  0.1737
  924TIP3    H126967   1.894   7.286  17.461  1.4066 -1.6658 -1.7088
  924TIP3    H226968   1.745   7.262  17.455  0.7072  1.6199  0.0616
  925TIP3   OH226969   1.220   6.388  16.011 -0.0820 -0.0639 -0.4306
  925TIP3    H126970   1.221   6.326  15.937  1.8375 -0.2861 -0.2651
  925TIP3    H226971   1.188   6.469  15.973 -1.5407 -0.8329 -0.9215
  926TIP3   OH226972   2.236   0.782  17.111  0.6881  0.5307 -0.5457
  926TIP3    H126973   2.320   0.744  17.088  1.5327  1.9199  0.1112
  926TIP3    H226974   2.183   0.707  17.139  1.8432 -0.3089 -0.5217
  927TIP3   OH226975   6.678   0.130  16.515  0.0892  0.2443  0.1931
  927TIP3    H126976   6.690   0.056  16.456  3.1801 -0.1624  1.1502
  927TIP3    H226977   6.715   0.205  16.468 -0.1618  0.5293  0.4477
  928TIP3   OH226978   3.126   1.384  18.439 -0.1463 -0.3087 -0.5476
  928TIP3    H126979   3.114   1.340  18.354  1.4537 -1.6486 -0.1427
  928TIP3    H226980   3.203   1.439  18.426 -0.3525  0.0708 -0.1733
  929TIP3   OH226981   3.237   3.296  17.193  0.4745 -0.0745  0.1444
  929TIP3    H126982   3.273   3.346  17.120  0.2377 -0.2935 -0.1223
  929TIP3    H226983   3.307   3.237  17.219  0.6593  0.2045  0.2805
  930TIP3   OH226984   7.001   0.500  18.053  0.1604 -0.0883 -0.5269
  930TIP3    H126985   6.933   0.526  17.991  1.5486 -1.2807 -2.6914
  930TIP3    H226986   6.982   0.550  18.132 -3.0299 -0.2032 -1.1114
  931TIP3   OH226987   3.315   2.199  17.157  0.0789  0.4560 -0.7779
  931TIP3    H126988   3.367   2.143  17.214 -1.3673 -0.4097 -0.2558
  931TIP3    H226989   3.225   2.190  17.190 -0.3765  2.1131 -1.4673
  932TIP3   OH226990   4.873   3.085  16.627  0.0311  0.5787  0.3263
  932TIP3    H126991   4.966   3.075  16.610 -0.6753 -3.1054 -2.7865
  932TIP3    H226992   4.850   3.010  16.682 -1.5916 -0.8737 -2.1546
  933TIP3   OH226993   1.694   1.483  17.167 -0.2381 -0.1230  0.3320
  933TIP3    H126994   1.778   1.488  17.213  0.7363 -0.2300 -1.3100
  933TIP3    H226995   1.690   1.564  17.116 -0.6777 -0.5410 -0.3120
  934TIP3   OH226996   3.721   6.042  17.740 -0.3706 -0.4693  0.1026
  934TIP3    H126997   3.699   6.003  17.824 -1.5519  2.2271  1.1569
  934TIP3    H226998   3.723   5.968  17.679 -0.8731 -2.3188  2.1934
  935TIP3   OH226999   7.208   1.587  17.352 -0.2536  0.2889  0.1502
  935TIP3    H127000   7.206   1.544  17.437  1.8673  0.1163  0.1681
  935TIP3    H227001   7.126   1.561  17.310 -0.0231 -2.0160  0.9947
  936TIP3   OH227002   6.410   4.927  17.947 -0.1438  0.5315  0.3444
  936TIP3    H127003   6.500   4.906  17.972  0.6136  2.4967 -0.5189
  936TIP3    H227004   6.400   4.886  17.861 -0.1655  0.1222  0.5394
  937TIP3   OH227005   5.626   0.276  16.938 -0.1720  0.0953  0.3076
  937TIP3    H127006   5.611   0.208  17.004 -1.2049  0.1508  0.1558
  937TIP3    H227007   5.631   0.229  16.855  0.7419  0.0618  0.3738
  938TIP3   OH227008   5.822   1.033  18.239 -0.4336  0.5104  0.5064
  938TIP3    H127009   5.767   1.082  18.178 -1.3896  0.7281  1.5115
  938TIP3    H227010   5.797   1.066  18.326  0.1878 -0.4791  1.0815
  939TIP3   OH227011   2.748   2.299  18.192 -0.3115  0.3927  0.6558
  939TIP3    H127012   2.705   2.376  18.230 -0.3650  0.1357  1.1063
  939TIP3    H227013   2.828   2.289  18.243  1.2686  1.9754 -1.3189
  940TIP3   OH227014   7.239   3.952  19.043 -0.5677  0.4612 -0.5148
  940TIP3    H127015   7.201   4.039  19.044 -2.1180 -0.1877 -0.1252
  940TIP3    H227016   7.164   3.893  19.045  0.4745 -0.8900  0.5221
  941TIP3   OH227017   1.222   7.049  16.763 -0.2238 -0.5511 -0.1732
  941TIP3    H127018   1.236   6.956  16.784  0.8740 -0.0383  1.6339
  941TIP3    H227019   1.224   7.093  16.848  2.1887  1.4785 -1.1653
  942TIP3   OH227020   7.545   7.279  17.333  0.7126 -0.0838 -0.0506
  942TIP3    H127021   7.491   7.289  17.412 -0.4292  0.5185 -0.8873
  942TIP3    H227022   7.508   7.203  17.289  0.9404 -0.0293 -0.3368
  943TIP3   OH227023   4.355   2.808  16.840  0.2180  0.6975 -0.0951
  943TIP3    H127024   4.342   2.750  16.765  0.3684  2.1872 -1.2967
  943TIP3    H227025   4.414   2.759  16.898 -2.3510 -1.8347  0.6295
  944TIP3   OH227026   3.507   6.542  18.388 -0.3161 -0.3203  0.3681
  944TIP3    H127027   3.441   6.606  18.361 -0.5884 -0.7474  0.0096
  944TIP3    H227028   3.487   6.463  18.338 -0.7416 -1.0990  1.7034
  945TIP3   OH227029   3.191   2.605  16.551  0.1810  0.4016  0.0239
  945TIP3    H127030   3.146   2.522  16.566  1.6206 -0.7166 -1.4650
  945TIP3    H227031   3.271   2.598  16.603  0.1673  0.9903  0.1283
  946TIP3   OH227032   0.513   5.458  17.739  0.0149 -0.2220  0.9896
  946TIP3    H127033   0.566   5.537  17.751  0.7286 -0.4317 -0.5565
  946TIP3    H227034   0.467   5.472  17.656 -1.1180 -0.7567  1.4930
  947TIP3   OH227035   1.237   3.303  18.612 -0.2934  0.3062  0.4674
  947TIP3    H127036   1.297   3.362  18.657 -0.0174 -1.0040  1.8900
  947TIP3    H227037   1.156   3.353  18.603  0.1579  1.1400  0.9767
  948TIP3   OH227038   4.696   0.517  16.325 -0.7710  0.1504 -0.2466
  948TIP3    H127039   4.777   0.488  16.365 -1.4375  0.0745  1.1141
  948TIP3    H227040   4.723   0.566  16.247  0.6599  1.5908  1.0976
  949TIP3   OH227041   5.468   3.658  16.375  0.0157  0.2735 -0.0906
  949TIP3    H127042   5.381   3.659  16.336 -0.4551  0.5068  0.9296
  949TIP3    H227043   5.517   3.724  16.326 -1.1760  2.0787  1.0336
  950TIP3   OH227044   4.493   7.202  16.763  0.1631 -0.5362 -0.2186
  950TIP3    H127045   4.415   7.257  16.750 -0.0565 -0.2168  1.9416
  950TIP3    H227046   4.566   7.259  16.739 -0.1954 -0.2562 -0.6648
  951TIP3   OH227047   5.300   5.504  18.429  0.1615  0.5303  0.0789
  951TIP3    H127048   5.370   5.457  18.474 -0.9991 -1.3637 -0.0107
  951TIP3    H227049   5.222   5.488  18.482 -0.1992  2.9347  0.3937
  952TIP3   OH227050   2.948   0.278  16.298  0.3708  0.2293  0.1937
  952TIP3    H127051   3.006   0.246  16.367  1.2690  0.5902 -0.3758
  952TIP3    H227052   2.954   0.211  16.229  0.4433  0.4821 -0.0439
  953TIP3   OH227053   5.555   6.599  17.957  0.1555 -0.1737  0.2781
  953TIP3    H127054   5.587   6.652  17.883  1.7435  2.6380  2.7763
  953TIP3    H227055   5.461   6.591  17.941  0.4741  0.0507 -2.1651
  954TIP3   OH227056   5.329   2.292  18.488 -0.2110  0.0190 -0.3013
  954TIP3    H127057   5.375   2.375  18.504  1.4468 -1.1630  1.5657
  954TIP3    H227058   5.357   2.266  18.400 -0.0008  0.9800 -0.5266
  955TIP3   OH227059   4.570   2.198  18.762  0.7985 -0.2487 -0.3999
  955TIP3    H127060   4.592   2.163  18.675 -0.2976 -0.2275 -0.7047
  955TIP3    H227061   4.499   2.260  18.745  1.7107  1.0375  0.3121
  956TIP3   OH227062   2.854   7.293  17.107 -0.0052 -0.0235 -0.3112
  956TIP3    H127063   2.800   7.334  17.040 -0.2738 -1.5457 -1.0605
  956TIP3    H227064   2.832   7.200  17.103  0.2735 -0.2222  1.6151
  957TIP3   OH227065   1.204   6.605  18.523 -0.3863 -0.9068 -0.2821
  957TIP3    H127066   1.148   6.586  18.448  0.4812 -0.3036 -1.0951
  957TIP3    H227067   1.260   6.677  18.494 -1.3133  0.6691  1.5816
  958TIP3   OH227068   3.554   5.631  16.953 -0.3373 -0.1764 -0.1060
  958TIP3    H127069   3.470   5.676  16.950 -0.7604 -0.9896 -1.1281
  958TIP3    H227070   3.534   5.545  16.991 -0.5080 -1.3878 -2.7249
  959TIP3   OH227071   1.856   0.783  18.103  0.2280 -0.1893  1.0569
  959TIP3    H127072   1.931   0.729  18.080 -0.7717 -0.4939 -1.9617
  959TIP3    H227073   1.789   0.721  18.132  0.0033 -0.3177  0.2904
  960TIP3   OH227074   2.305   0.688  18.410  0.0016 -0.5151  0.4160
  960TIP3    H127075   2.213   0.683  18.384  0.5535 -1.3269 -1.5428
  960TIP3    H227076   2.328   0.780  18.400 -0.5781 -0.2982  0.9616
  961TIP3   OH227077   0.001   5.869  16.976 -0.0016 -0.7594  0.3386
  961TIP3    H127078  -0.087   5.856  16.941  1.0585 -0.5853 -2.7691
  961TIP3    H227079   0.058   5.823  16.914  2.1465 -0.0419  1.6778
  962TIP3   OH227080   1.160   5.534  18.691 -0.6690 -0.2270 -0.3464
  962TIP3    H127081   1.091   5.575  18.639 -0.9513 -1.0527 -0.6269
  962TIP3    H227082   1.136   5.554  18.782 -0.3790  0.8917 -0.4961
  963TIP3   OH227083   1.833   6.807  18.526  0.0469 -0.0986 -0.0069
  963TIP3    H127084   1.745   6.787  18.495  0.3191 -1.5845  0.1251
  963TIP3    H227085   1.862   6.879  18.470 -1.3319  0.5957  0.1193
  964TIP3   OH227086   6.644   6.678  18.570 -0.0679 -0.1141 -0.1005
  964TIP3    H127087   6.731   6.680  18.530  0.8685  0.1183  1.8092
  964TIP3    H227088   6.615   6.769  18.570  0.6063  0.1253  1.0496
  965TIP3   OH227089   1.317   3.540  18.732  0.0070  0.3027  0.2140
  965TIP3    H127090   1.242   3.594  18.757 -0.0384  0.5299 -0.3769
  965TIP3    H227091   1.371   3.598  18.678 -0.7420 -0.6004 -1.6275
  966TIP3   OH227092   1.776   5.928  17.144 -0.4976  0.2192  0.2549
  966TIP3    H127093   1.832   5.889  17.076  0.4334  0.7286  0.7246
  966TIP3    H227094   1.706   5.971  17.095 -0.5212 -0.4639 -0.3369
  967TIP3   OH227095   2.958   2.484  17.949  0.1623  0.0376  0.1437
  967TIP3    H127096   3.050   2.471  17.928  0.0916 -0.9422  0.3754
  967TIP3    H227097   2.913   2.409  17.909 -0.4376  0.1172  0.6444
  968TIP3   OH227098   4.861   2.985  17.238 -0.2508 -0.1099 -0.5963
  968TIP3    H127099   4.874   2.894  17.263  0.1090  0.7373  2.9172
  968TIP3    H227100   4.930   3.003  17.174  0.8021 -1.8586 -0.0107
  969TIP3   OH227101   0.955   3.856  16.447  0.3151 -0.0462  0.1889
  969TIP3    H127102   0.911   3.826  16.367  2.0584 -0.2876 -0.7214
  969TIP3    H227103   0.954   3.779  16.504 -1.2939  0.2429  0.6005
  970TIP3   OH227104   6.732   6.159  18.949 -0.1423 -0.0402  0.0149
  970TIP3    H127105   6.803   6.096  18.943  0.1056  0.4039 -2.9138
  970TIP3    H227106   6.774   6.240  18.979 -0.3975 -0.9755  3.3745
  971TIP3   OH227107   2.965   2.550  16.788  0.2063 -0.5949 -0.3723
  971TIP3    H127108   3.019   2.513  16.718  0.0996 -0.0887 -0.7281
  971TIP3    H227109   2.875   2.528  16.763  0.0676  0.6836 -1.0745
  972TIP3   OH227110   1.817   3.644  16.106  0.1336  0.0407 -0.3337
  972TIP3    H127111   1.773   3.606  16.182 -0.0470 -0.2104 -0.5588
  972TIP3    H227112   1.751   3.642  16.037  0.4109 -0.0615 -0.5958
  973TIP3   OH227113   5.946   7.170  17.930 -0.6340  0.0499  0.0045
  973TIP3    H127114   6.029   7.161  17.977 -0.7428 -0.4880  0.1053
  973TIP3    H227115   5.879   7.161  17.998 -0.8154 -1.6440 -0.3517
  974TIP3   OH227116   4.165   3.701  18.260  0.5224  0.6243  0.4855
  974TIP3    H127117   4.081   3.675  18.222  0.4268  1.3989  0.1392
  974TIP3    H227118   4.170   3.652  18.342 -0.1959  0.4533  0.4400
  975TIP3   OH227119   6.911   6.801  16.696  0.4297 -0.2523  0.2906
  975TIP3    H127120   6.859   6.735  16.651  0.8821 -1.0753  0.9490
  975TIP3    H227121   6.889   6.883  16.652 -0.3833 -0.7894 -0.3286
  976TIP3   OH227122   6.665   2.378  16.499  0.5229 -0.1410 -0.1034
  976TIP3    H127123   6.699   2.372  16.409  1.0532 -1.3249  0.1515
  976TIP3    H227124   6.715   2.449  16.538  1.1759 -0.4307 -0.3897
  977TIP3   OH227125   7.402   4.556  18.191 -0.1180  0.6707 -0.0186
  977TIP3    H127126   7.488   4.598  18.183  0.3080 -0.0914  0.3773
  977TIP3    H227127   7.404   4.484  18.128  0.2261 -0.4274  1.1932
  978TIP3   OH227128   2.425   5.099  16.931  0.5472  0.3364  0.6481
  978TIP3    H127129   2.515   5.085  16.900  0.3472  2.3910 -1.0715
  978TIP3    H227130   2.381   5.142  16.858 -2.0375 -1.1433  1.2437
  979TIP3   OH227131   0.790   6.262  18.646 -0.3499 -0.4699 -0.2326
  979TIP3    H127132   0.729   6.303  18.708 -1.7637 -1.3260 -0.9933
  979TIP3    H227133   0.817   6.181  18.688  3.6138  1.7165  1.9330
  980TIP3   OH227134   4.298   4.534  17.829 -0.0418 -0.4858  0.2734
  980TIP3    H127135   4.374   4.585  17.859 -0.8910  0.6989  0.4894
  980TIP3    H227136   4.309   4.448  17.871  0.5137  0.0881  1.3588
  981TIP3   OH227137   1.925   1.827  17.055  0.2725  0.0097  0.0545
  981TIP3    H127138   1.982   1.893  17.095  0.1600  0.6773 -0.8460
  981TIP3    H227139   1.863   1.878  17.003 -1.2402 -0.6755  1.0827
  982TIP3   OH227140   3.144   0.286  18.442 -0.3034  0.1768  0.0034
  982TIP3    H127141   3.191   0.309  18.362 -0.0400 -0.0436  0.0962
  982TIP3    H227142   3.193   0.329  18.512 -0.1246 -0.2158  0.1205
  983TIP3   OH227143   0.097   1.158  17.913  0.1090 -0.0602 -0.1009
  983TIP3    H127144   0.175   1.138  17.861  0.4978 -1.8969  1.0861
  983TIP3    H227145   0.031   1.183  17.849  1.1621 -0.1916 -1.2729
  984TIP3   OH227146   5.651   0.322  17.540 -0.0056 -0.2511  0.0152
  984TIP3    H127147   5.638   0.275  17.623 -0.9753  2.0998  1.2890
  984TIP3    H227148   5.580   0.292  17.484 -1.9614  1.1805  1.5776
  985TIP3   OH227149   4.575   6.942  18.593  0.7256 -0.2995 -0.9406
  985TIP3    H127150   4.511   6.922  18.661 -0.7497  0.7616 -1.9468
  985TIP3    H227151   4.656   6.899  18.622 -0.0315 -0.4399  1.1191
  986TIP3   OH227152   3.776   1.119  18.434  0.0840  0.0699 -0.1798
  986TIP3    H127153   3.682   1.119  18.452  0.3420 -0.3161  1.3013
  986TIP3    H227154   3.791   1.035  18.391 -0.3673  0.4987 -1.2054
  987TIP3   OH227155   5.296   3.410  17.809  0.2069  0.2130  0.2776
  987TIP3    H127156   5.378   3.403  17.858  0.5105  0.8521 -0.1299
  987TIP3    H227157   5.251   3.327  17.826 -0.0607  0.7155  2.2797
  988TIP3   OH227158   4.748   5.572  16.497  0.5504  0.6167  0.6386
  988TIP3    H127159   4.679   5.592  16.560 -1.0341  0.1422 -0.8596
  988TIP3    H227160   4.797   5.653  16.489 -0.1964  1.1529  1.3164
  989TIP3   OH227161   4.028   4.285  17.060 -0.5230 -0.2678  0.2900
  989TIP3    H127162   4.032   4.347  17.133 -2.3360 -0.3688  0.5230
  989TIP3    H227163   4.013   4.339  16.983 -1.0628 -0.3309  0.3472
  990TIP3   OH227164   0.928   2.139  17.001  0.0821 -0.1204  0.3062
  990TIP3    H127165   0.945   2.118  16.909 -0.1863 -1.5475  0.5624
  990TIP3    H227166   0.833   2.148  17.006  0.0188 -0.8472  0.5811
  991TIP3   OH227167   3.516   6.205  17.658  0.1969  0.2237  0.4022
  991TIP3    H127168   3.577   6.151  17.707 -0.4629 -1.5723 -0.6789
  991TIP3    H227169   3.476   6.146  17.595 -1.3978  1.7302 -0.0870
  992TIP3   OH227170   1.834   7.349  18.843 -0.2760  0.1385 -0.2551
  992TIP3    H127171   1.811   7.437  18.873 -1.2666  0.5139 -1.9755
  992TIP3    H227172   1.783   7.291  18.899 -0.3275  0.6873  0.2892
  993TIP3   OH227173   3.977   4.190  17.738  0.0972  0.2727  0.3297
  993TIP3    H127174   4.068   4.217  17.729  0.3321 -0.5225  0.2554
  993TIP3    H227175   3.981   4.096  17.753 -0.8006 -0.1769 -1.8706
  994TIP3   OH227176   0.758   6.131  17.447  0.1482  0.1870  0.3553
  994TIP3    H127177   0.787   6.221  17.434  1.2532 -0.1141  0.6573
  994TIP3    H227178   0.664   6.139  17.466  0.2359  1.2718  0.4183
  995TIP3   OH227179   2.854   0.159  17.872 -0.6669  0.8163  0.0597
  995TIP3    H127180   2.903   0.241  17.870 -2.2915  1.8162 -0.4703
  995TIP3    H227181   2.763   0.185  17.859 -1.4240 -0.9335  1.4347
  996TIP3   OH227182   0.370   3.833  17.151 -0.0074 -0.4020  0.1922
  996TIP3    H127183   0.349   3.921  17.121  2.2767  0.2414  0.2767
  996TIP3    H227184   0.285   3.794  17.173 -1.1087  1.6082 -0.2452
  997TIP3   OH227185   4.920   5.419  18.015 -0.9359 -0.5021  0.2040
  997TIP3    H127186   4.905   5.398  17.923  0.3795 -1.9027  0.2764
  997TIP3    H227187   4.842   5.469  18.041 -2.0943 -1.4771 -1.2192
  998TIP3   OH227188   4.506   0.998  18.761  0.4016 -0.2079 -0.2608
  998TIP3    H127189   4.449   1.073  18.780  1.0995  0.7724 -1.8143
  998TIP3    H227190   4.467   0.925  18.810 -1.9750  0.4887 -0.9687
  999TIP3   OH227191   5.125   1.180  16.524  0.6820  0.1372  0.2583
  999TIP3    H127192   5.057   1.193  16.458 -0.5428 -2.5191  0.8389
  999TIP3    H227193   5.207   1.180  16.474  0.0192  0.7508 -0.8697
 1000TIP3   OH227194   0.796   6.659  16.971 -0.2628 -0.0777 -0.6244
 1000TIP3    H127195   0.856   6.597  16.931  0.8451  0.6635 -0.1463
 1000TIP3    H227196   0.804   6.738  16.918  0.0106  0.3816  0.0875
 1001TIP3   OH227197   3.471   5.582  18.339 -0.2171  0.4899  0.0900
 1001TIP3    H127198   3.389   5.540  18.310  1.0537 -0.5359 -2.3068
 1001TIP3    H227199   3.532   5.509  18.350  0.7462  1.3549  0.5523
 1002TIP3   OH227200   0.887   5.273  17.272 -0.0632  0.7315 -0.4665
 1002TIP3    H127201   0.843   5.312  17.348 -0.8667 -0.0636 -0.5051
 1002TIP3    H227202   0.841   5.190  17.258  2.4742 -0.9447  0.4577
 1003TIP3   OH227203   0.087   7.615  17.907 -0.2536  0.1944 -0.1170
 1003TIP3    H127204   0.154   7.684  17.904 -1.4992  1.4323 -0.6927
 1003TIP3    H227205   0.091   7.582  17.997  1.0079  0.3391 -0.0975
 1004TIP3   OH227206   1.852   1.389  16.274 -0.6265 -0.3096 -0.0416
 1004TIP3    H127207   1.903   1.342  16.208 -1.4486 -0.9249 -0.2540
 1004TIP3    H227208   1.862   1.481  16.250 -0.0013 -0.4484 -0.3483
 1005TIP3   OH227209   2.289   1.588  17.839 -0.1397 -0.3240 -0.3754
 1005TIP3    H127210   2.232   1.639  17.897 -0.4090  0.2082 -1.0878
 1005TIP3    H227211   2.235   1.515  17.811  0.6775 -1.8709  1.7535
 1006TIP3   OH227212   4.281   1.391  17.099 -0.1146 -0.1079 -0.9739
 1006TIP3    H127213   4.328   1.404  17.181 -1.2869 -0.1972 -0.2673
 1006TIP3    H227214   4.334   1.327  17.051 -1.3498 -3.2067  1.4264
 1007TIP3   OH227215   2.403   0.989  18.108 -0.2000 -0.0316  0.3767
 1007TIP3    H127216   2.349   0.987  18.187 -0.9323  1.0817 -0.0820
 1007TIP3    H227217   2.361   1.053  18.051  1.1539  0.2704 -0.3220
 1008TIP3   OH227218   7.564   1.632  16.831  0.4798 -0.1092 -0.5970
 1008TIP3    H127219   7.569   1.554  16.886  1.3607 -0.3233 -0.9660
 1008TIP3    H227220   7.471   1.655  16.832 -0.3541 -2.8044 -2.7154
 1009TIP3   OH227221   4.363   3.542  18.783  0.1226  0.5249 -0.0609
 1009TIP3    H127222   4.416   3.473  18.743  0.9676  1.0020  0.2190
 1009TIP3    H227223   4.354   3.517  18.874 -1.4096 -0.3164 -0.4020
 1010TIP3   OH227224   1.026   1.157  18.097 -0.4116 -0.1779 -0.5212
 1010TIP3    H127225   0.999   1.224  18.034 -0.5878  0.8259  0.5770
 1010TIP3    H227226   0.962   1.166  18.169  0.9957  0.1449  0.7404
 1011TIP3   OH227227   0.326   1.429  18.429 -0.4809  0.3534  0.4317
 1011TIP3    H127228   0.337   1.334  18.428 -1.7629  0.1927  0.3759
 1011TIP3    H227229   0.237   1.444  18.399  0.6114  1.7290 -2.6205
 1012TIP3   OH227230   2.302   6.155  16.937  0.5072  0.0786  0.0025
 1012TIP3    H127231   2.271   6.147  16.847  1.5645 -1.3194 -0.2638
 1012TIP3    H227232   2.374   6.218  16.932  1.1657 -0.6817 -0.3082
 1013TIP3   OH227233   4.130   2.860  18.089 -0.3529  0.3762 -0.0662
 1013TIP3    H127234   4.118   2.943  18.044 -0.2785 -0.0315 -0.8712
 1013TIP3    H227235   4.224   2.843  18.084 -0.4414 -0.0390 -0.4533
 1014TIP3   OH227236   6.408   4.338  18.879  0.2427  0.3272 -0.2022
 1014TIP3    H127237   6.339   4.402  18.864  0.0000 -0.2879 -1.9562
 1014TIP3    H227238   6.486   4.376  18.838  0.7170  0.5640  0.8831
 1015TIP3   OH227239   0.624   1.776  18.169 -0.0032  0.0996 -0.3268
 1015TIP3    H127240   0.551   1.810  18.117 -0.2842 -1.0739 -0.7403
 1015TIP3    H227241   0.696   1.765  18.106  0.2489  0.4087 -0.0969
 1016TIP3   OH227242   0.141   2.811  17.791  0.2975 -0.3109  0.0841
 1016TIP3    H127243   0.160   2.734  17.845  0.4531 -0.0970  0.3361
 1016TIP3    H227244   0.067   2.853  17.835  0.6529  0.0582  0.3318
 1017TIP3   OH227245   6.655   3.549  17.810  0.2867 -0.3556  0.6542
 1017TIP3    H127246   6.586   3.562  17.745 -0.2783 -1.6167  0.9583
 1017TIP3    H227247   6.612   3.564  17.894  0.8325  0.5561  0.7852
 1018TIP3   OH227248   1.325   0.390  16.844  0.4175 -0.0127  0.4223
 1018TIP3    H127249   1.256   0.382  16.910  0.3726  1.0579  0.5250
 1018TIP3    H227250   1.318   0.480  16.813  1.9011  0.1888  0.5866
 1019TIP3   OH227251   6.532   0.101  17.007 -0.4470 -0.0249  0.3395
 1019TIP3    H127252   6.593   0.174  16.996  2.1189 -2.1142 -0.1203
 1019TIP3    H227253   6.505   0.079  16.918  1.0768 -1.4127  0.1818
 1020TIP3   OH227254   6.019   4.106  18.811  0.3274 -0.2492 -0.5362
 1020TIP3    H127255   6.087   4.045  18.784  1.2986  0.5466  0.0623
 1020TIP3    H227256   5.958   4.053  18.862 -0.5218 -1.3661 -2.5600
 1021TIP3   OH227257   6.236   2.688  17.018  0.3593 -0.2874 -0.1653
 1021TIP3    H127258   6.144   2.697  17.044 -0.3799 -2.8861 -1.4918
 1021TIP3    H227259   6.260   2.775  16.986 -1.0969  0.8837  1.6885
 1022TIP3   OH227260   4.845   4.726  17.057  0.2363  0.5132  1.1009
 1022TIP3    H127261   4.803   4.656  17.006 -0.8975  0.6367  1.8352
 1022TIP3    H227262   4.936   4.728  17.025 -0.2218  0.0234 -0.3104
 1023TIP3   OH227263   2.285   4.912  18.520 -0.0337 -0.0238 -0.0122
 1023TIP3    H127264   2.331   4.978  18.572  1.0557  0.2952 -1.3105
 1023TIP3    H227265   2.192   4.931  18.532  0.1661 -0.0184  1.8426
 1024TIP3   OH227266   4.204   2.768  16.331  0.1271  0.2628 -0.5872
 1024TIP3    H127267   4.245   2.777  16.417 -0.5451 -1.1356 -0.0882
 1024TIP3    H227268   4.239   2.841  16.280  1.4383  0.4469  0.5185
 1025TIP3   OH227269   3.013   2.449  17.101  0.1014 -0.0278  0.1104
 1025TIP3    H127270   2.944   2.428  17.039 -0.4514  0.5366  0.5282
 1025TIP3    H227271   2.990   2.535  17.135  0.7528 -0.0431  0.6053
 1026TIP3   OH227272   1.786   0.589  16.727 -0.6587  0.1102 -0.1760
 1026TIP3    H127273   1.772   0.523  16.659  0.5140 -0.9615  0.5788
 1026TIP3    H227274   1.701   0.634  16.735 -0.8028  0.3104 -2.3606
 1027TIP3   OH227275   5.969   3.972  18.094  0.2830 -0.1546 -0.3839
 1027TIP3    H127276   6.061   3.943  18.097 -0.0767 -1.3646 -0.7196
 1027TIP3    H227277   5.920   3.900  18.132 -0.6113  0.1895 -0.8680
 1028TIP3   OH227278   1.135   6.512  17.663  0.0999  0.4062 -0.8114
 1028TIP3    H127279   1.214   6.539  17.711  0.3840 -1.2063 -0.3233
 1028TIP3    H227280   1.160   6.516  17.571  1.3351 -1.6549 -0.6248
 1029TIP3   OH227281   2.319   2.638  17.662  0.3581 -0.4160 -0.3301
 1029TIP3    H127282   2.327   2.626  17.567 -0.2896  0.1960 -0.4714
 1029TIP3    H227283   2.400   2.603  17.697  0.9899  0.1479 -1.1864
 1030TIP3   OH227284   3.008   4.061  16.552  0.4101  0.0649  0.0420
 1030TIP3    H127285   3.042   4.136  16.600 -0.6697 -0.2630  1.3701
 1030TIP3    H227286   2.995   4.094  16.463 -0.9933  1.7943  0.8183
 1031TIP3   OH227287   5.307   0.088  16.904 -0.2002  0.1324  0.2098
 1031TIP3    H127288   5.362   0.152  16.950  0.8386 -0.9848  0.5788
 1031TIP3    H227289   5.329   0.099  16.812 -1.0435  1.2191  0.1117
 1032TIP3   OH227290   2.372   5.286  17.141  0.3453  0.5111  0.0548
 1032TIP3    H127291   2.452   5.278  17.192 -0.5990 -2.2495  1.3141
 1032TIP3    H227292   2.385   5.224  17.068 -0.7233 -0.1919  0.4440
 1033TIP3   OH227293   5.149   0.285  16.777 -0.2541  1.0604 -0.2495
 1033TIP3    H127294   5.080   0.264  16.841 -1.2668  0.9513 -1.3452
 1033TIP3    H227295   5.225   0.234  16.805 -0.9029  0.4554  0.4460
 1034TIP3   OH227296   6.296   6.155  17.506  0.6149  0.1782  0.0339
 1034TIP3    H127297   6.358   6.111  17.564 -0.1036 -0.4652  0.3176
 1034TIP3    H227298   6.298   6.104  17.425 -0.7155 -0.8145  0.5933
 1035TIP3   OH227299   7.200   5.189  17.743  0.2398 -0.0477 -0.2883
 1035TIP3    H127300   7.175   5.175  17.652 -1.1366 -0.9113  0.1859
 1035TIP3    H227301   7.143   5.260  17.773  1.3883  0.9335 -0.3572
 1036TIP3   OH227302   1.309   1.129  18.128  0.0244 -0.3504  0.4909
 1036TIP3    H127303   1.216   1.143  18.144  0.3105  1.3433  0.9345
 1036TIP3    H227304   1.325   1.167  18.042  0.6194  1.1167  1.2052
 1037TIP3   OH227305   5.905   3.458  18.389  0.3970  0.0498 -0.2484
 1037TIP3    H127306   5.984   3.425  18.346  2.2820  0.8465  2.3783
 1037TIP3    H227307   5.907   3.552  18.374  1.6525  0.4993  2.2567
 1038TIP3   OH227308   2.681   4.193  16.504  0.6259 -0.3700  0.0491
 1038TIP3    H127309   2.755   4.237  16.463  0.1938 -0.3062 -0.6733
 1038TIP3    H227310   2.679   4.106  16.465  0.7779 -0.6341  0.6266
 1039TIP3   OH227311   3.231   6.440  17.620  0.0162 -0.1865 -0.2711
 1039TIP3    H127312   3.263   6.382  17.551  0.2809 -1.7850  1.1417
 1039TIP3    H227313   3.143   6.407  17.640  0.4723 -0.6077  1.0887
 1040TIP3   OH227314   2.751   2.856  18.255 -0.1114 -0.8715 -0.2895
 1040TIP3    H127315   2.806   2.908  18.195 -2.0838  0.2294 -1.2340
 1040TIP3    H227316   2.722   2.919  18.320  0.5424 -1.6831  0.8133
 1041TIP3   OH227317   0.469   2.829  17.293 -0.1037 -0.8022  0.2926
 1041TIP3    H127318   0.475   2.785  17.378 -0.4135  0.9530  1.2915
 1041TIP3    H227319   0.458   2.922  17.316 -0.7251 -0.3497 -1.6722
 1042TIP3   OH227320   5.802   1.668  16.786 -0.0353 -0.0857 -0.6682
 1042TIP3    H127321   5.779   1.591  16.734 -3.4766 -0.5674  1.2834
 1042TIP3    H227322   5.880   1.642  16.835  0.5491 -1.2212 -2.1117
 1043TIP3   OH227323   5.759   7.487  16.691  0.2717  0.0334 -0.0906
 1043TIP3    H127324   5.767   7.405  16.741  1.3703 -0.8275 -1.5751
 1043TIP3    H227325   5.847   7.524  16.694  0.1348  0.4059 -0.6520
 1044TIP3   OH227326   6.188   6.412  18.381 -0.1842 -0.0632  0.5051
 1044TIP3    H127327   6.201   6.321  18.353  0.8236 -0.4371  2.0584
 1044TIP3    H227328   6.257   6.427  18.446  0.8783  2.4603 -1.1069
 1045TIP3   OH227329   2.301   4.403  18.390  0.0231  0.4654 -1.4590
 1045TIP3    H127330   2.262   4.470  18.446 -1.5434  1.0947 -3.1937
 1045TIP3    H227331   2.234   4.336  18.381  0.9550 -0.5561 -1.1117
 1046TIP3   OH227332   6.866   2.583  16.564  0.0258 -0.0369 -0.1749
 1046TIP3    H127333   6.837   2.672  16.543  0.6978  0.7198  1.9218
 1046TIP3    H227334   6.939   2.566  16.504  0.8932  1.4370  0.4265
 1047TIP3   OH227335   1.825   5.751  16.179 -0.3368  0.0185  0.0337
 1047TIP3    H127336   1.869   5.700  16.247 -1.2045  0.0761  0.6438
 1047TIP3    H227337   1.869   5.836  16.181 -0.1011 -0.1076  0.2500
 1048TIP3   OH227338   1.023   5.433  17.080  0.5114 -0.6374  0.6785
 1048TIP3    H127339   1.013   5.354  17.026  1.6634  0.1838 -0.8024
 1048TIP3    H227340   0.979   5.411  17.162 -0.0120 -2.4772 -0.0365
 1049TIP3   OH227341   4.087   7.062  16.760 -0.1393 -0.4584 -0.2296
 1049TIP3    H127342   4.012   7.119  16.746 -0.5094 -1.6124 -3.7486
 1049TIP3    H227343   4.160   7.123  16.776 -1.4517  0.7112  1.6868
 1050TIP3   OH227344   0.618   2.062  16.189  0.0746  0.1215  0.1627
 1050TIP3    H127345   0.537   2.037  16.146  0.0296  0.1703  0.2201
 1050TIP3    H227346   0.661   2.122  16.128  0.1599 -0.0546  0.0485
 1051TIP3   OH227347   1.464   6.239  17.801  0.6966  0.3188  0.2617
 1051TIP3    H127348   1.420   6.164  17.840 -0.6313  0.2600 -1.2370
 1051TIP3    H227349   1.408   6.314  17.822  0.5107  0.4362 -0.5932
 1052TIP3   OH227350   3.247   0.429  16.519 -0.4545  0.3617  0.3152
 1052TIP3    H127351   3.195   0.354  16.492  0.9122 -0.3768 -0.3675
 1052TIP3    H227352   3.243   0.489  16.444  2.4687 -1.2298 -1.2952
 1053TIP3   OH227353   5.697   6.072  17.491  0.2117  0.4240  0.5092
 1053TIP3    H127354   5.741   6.150  17.524  0.9380 -0.0778  0.7681
 1053TIP3    H227355   5.760   6.001  17.508 -0.6738 -0.2965  0.8189
 1054TIP3   OH227356   3.277   3.984  18.589 -1.0104 -0.2643 -0.6555
 1054TIP3    H127357   3.204   3.949  18.538  0.8029 -3.8934 -1.1040
 1054TIP3    H227358   3.351   3.982  18.528  0.3965 -1.1121  0.9837
 1055TIP3   OH227359   1.181   7.479  18.668 -0.8431  0.1005  0.2655
 1055TIP3    H127360   1.140   7.514  18.589 -1.0619 -1.1986 -0.2148
 1055TIP3    H227361   1.130   7.401  18.689 -0.1581 -0.1298  1.1089
 1056TIP3   OH227362   1.737   4.355  18.876 -0.2687 -0.1323  0.2118
 1056TIP3    H127363   1.786   4.431  18.906  0.0465 -0.7589  1.3715
 1056TIP3    H227364   1.646   4.373  18.900  0.2315 -1.5767  3.8806
 1057TIP3   OH227365   7.189   3.671  17.053 -0.8013 -0.3089  0.3980
 1057TIP3    H127366   7.232   3.672  16.967  2.0248 -1.0488  1.6734
 1057TIP3    H227367   7.096   3.659  17.033 -0.3533  0.3215 -2.5560
 1058TIP3   OH227368   6.269   3.036  17.232  0.1042 -0.1855 -0.1608
 1058TIP3    H127369   6.289   3.128  17.212  0.9151 -0.2179  0.4434
 1058TIP3    H227370   6.335   3.011  17.296 -0.4481 -1.0362  0.0906
 1059TIP3   OH227371   5.618   7.512  17.303  0.6596 -0.1092  0.5367
 1059TIP3    H127372   5.533   7.555  17.313  0.4488 -0.2058 -0.6474
 1059TIP3    H227373   5.657   7.515  17.390 -0.0725  0.9537  0.8516
 1060TIP3   OH227374   1.737   1.941  16.908 -0.5813 -0.2604  0.7178
 1060TIP3    H127375   1.671   1.923  16.841  1.3074  2.2108 -2.0745
 1060TIP3    H227376   1.702   2.017  16.955 -0.5737 -0.1270  0.5102
 1061TIP3   OH227377   4.773   4.473  17.903 -0.3198 -0.8262 -0.0378
 1061TIP3    H127378   4.705   4.419  17.863 -0.9628 -0.4297  0.5169
 1061TIP3    H227379   4.832   4.410  17.944 -1.7790 -1.0818  1.7440
 1062TIP3   OH227380   6.438   0.396  18.448 -0.5421  0.2082  0.4802
 1062TIP3    H127381   6.474   0.429  18.365 -0.8091  0.5849  0.5165
 1062TIP3    H227382   6.408   0.307  18.427  0.5192 -0.1675  0.4746
 1063TIP3   OH227383   5.803   1.679  17.154 -0.2318  0.3239  0.9856
 1063TIP3    H127384   5.803   1.586  17.173  0.3232  0.3637  1.2102
 1063TIP3    H227385   5.882   1.692  17.101 -1.4391  0.3021 -0.9354
 1064TIP3   OH227386   3.930   5.343  18.102  0.4498 -0.1168 -0.2116
 1064TIP3    H127387   3.878   5.360  18.023  0.1798 -1.6755 -0.4054
 1064TIP3    H227388   3.949   5.249  18.098  0.5721 -0.1939  1.4984
 1065TIP3   OH227389   3.102   2.706  17.576 -0.3417  0.3382 -0.4435
 1065TIP3    H127390   3.090   2.788  17.529  0.2497  2.1143  2.2180
 1065TIP3    H227391   3.014   2.682  17.606 -0.3161  1.0262  0.2377
 1066TIP3   OH227392   5.273   2.100  17.353 -0.1821 -0.4384  0.1730
 1066TIP3    H127393   5.269   2.125  17.446 -0.7775 -0.5637  0.1830
 1066TIP3    H227394   5.248   2.008  17.352  0.5984 -0.6486 -0.0279
 1067TIP3   OH227395   5.307   6.685  17.441  0.1828  0.2573  0.0136
 1067TIP3    H127396   5.308   6.661  17.348  0.4229  2.0178 -0.4764
 1067TIP3    H227397   5.220   6.724  17.454  0.0812 -0.1545  0.5835
 1068TIP3   OH227398   2.184   1.884  17.438 -0.9886 -0.3534  0.4137
 1068TIP3    H127399   2.257   1.944  17.428 -1.8146  0.9663  1.7800
 1068TIP3    H227400   2.133   1.894  17.357 -1.0830  0.7770  0.5945
 1069TIP3   OH227401   2.158   5.794  18.160  0.0979  0.0131 -0.3692
 1069TIP3    H127402   2.220   5.820  18.092  1.1766  1.1999  1.0171
 1069TIP3    H227403   2.200   5.720  18.204  0.9364  1.3142  1.0775
 1070TIP3   OH227404   7.393   0.533  18.277  0.2719 -0.0341  0.0835
 1070TIP3    H127405   7.428   0.521  18.189  0.5771  0.0252  0.1947
 1070TIP3    H227406   7.387   0.628  18.287  0.2208 -0.0414  0.1197
 1071TIP3   OH227407   6.267   4.480  16.759  0.1118  0.0418 -0.3540
 1071TIP3    H127408   6.184   4.455  16.718 -0.7072  2.3968 -0.3176
 1071TIP3    H227409   6.330   4.481  16.687 -0.1312 -0.7444 -0.5859
 1072TIP3   OH227410   5.067   6.861  16.127 -0.3929 -0.2242  0.7376
 1072TIP3    H127411   5.124   6.913  16.071 -0.4772 -0.2206  0.6548
 1072TIP3    H227412   4.984   6.910  16.128 -0.9492 -1.1084 -0.5132
 1073TIP3   OH227413   7.069   7.014  17.654 -0.2013 -0.2105 -0.3817
 1073TIP3    H127414   7.032   7.098  17.681 -1.0585  0.1559 -2.4881
 1073TIP3    H227415   7.093   6.970  17.735 -0.7377  1.6186  0.8098
 1074TIP3   OH227416   7.647   5.681  17.955  0.2141 -0.2825 -0.3139
 1074TIP3    H127417   7.560   5.661  17.991  1.1744 -1.1243  1.6347
 1074TIP3    H227418   7.628   5.727  17.873 -2.0663  0.2929  0.4640
 1075TIP3   OH227419   6.931   1.733  16.467 -0.5077  0.1168 -0.6825
 1075TIP3    H127420   6.866   1.662  16.468  1.4118 -1.7110 -0.6704
 1075TIP3    H227421   6.983   1.717  16.389  0.7222  0.7699 -0.0197
 1076TIP3   OH227422   4.747   0.237  18.042 -0.0747  0.1405  0.0315
 1076TIP3    H127423   4.717   0.218  18.131  0.7826 -1.0500  0.0852
 1076TIP3    H227424   4.818   0.300  18.053 -0.9486  1.1420  0.0675
 1077TIP3   OH227425   7.161   4.430  16.727 -0.0806 -0.2333  0.3769
 1077TIP3    H127426   7.188   4.519  16.703  1.9933 -0.0775  2.7382
 1077TIP3    H227427   7.068   4.438  16.747  0.0665  1.4749  0.5967
 1078TIP3   OH227428   1.965   5.379  18.732  0.5080 -0.6965 -0.1089
 1078TIP3    H127429   1.957   5.448  18.798  2.1927  1.4885 -2.0236
 1078TIP3    H227430   1.876   5.364  18.701  0.1435  1.0347  0.0015
 1079TIP3   OH227431   2.167   3.509  17.893 -0.5317  0.2260  0.3621
 1079TIP3    H127432   2.154   3.601  17.868 -1.2443 -0.0519 -0.3055
 1079TIP3    H227433   2.102   3.461  17.843 -1.1775 -0.4917  1.8431
 1080TIP3   OH227434   3.469   3.960  18.813  0.3710 -0.2526 -0.0676
 1080TIP3    H127435   3.385   3.936  18.773 -0.1475  0.9978  0.2120
 1080TIP3    H227436   3.468   4.056  18.814  1.9365 -0.2055 -0.3181
 1081TIP3   OH227437   2.319   5.115  18.015 -0.2416 -0.2701 -0.3045
 1081TIP3    H127438   2.371   5.074  18.084 -0.6925 -0.7596 -0.2501
 1081TIP3    H227439   2.372   5.107  17.936  2.2683  4.0104  0.6258
 1082TIP3   OH227440   1.846   4.090  18.873  0.2485 -0.1515 -1.2384
 1082TIP3    H127441   1.789   4.164  18.895 -0.8014 -1.2692 -0.0697
 1082TIP3    H227442   1.800   4.043  18.804  0.0218 -0.7425 -0.6887
 1083TIP3   OH227443   0.167   2.073  18.697 -0.0955 -0.1766  0.1978
 1083TIP3    H127444   0.246   2.022  18.682 -0.2317 -0.4046  0.2419
 1083TIP3    H227445   0.145   2.109  18.611  0.1650  0.0452  0.2238
 1084TIP3   OH227446   1.701   5.602  16.400  0.8032  0.1846  0.2582
 1084TIP3    H127447   1.783   5.640  16.433  0.4823 -0.3716  1.8069
 1084TIP3    H227448   1.690   5.640  16.313  3.1847 -0.4510 -0.3987
 1085TIP3   OH227449   3.180   2.325  17.728  0.6632  0.0041  0.3868
 1085TIP3    H127450   3.139   2.364  17.651 -1.2769 -1.9768  0.3108
 1085TIP3    H227451   3.269   2.304  17.701  0.8257  1.6543 -0.4598
 1086TIP3   OH227452   6.964   7.387  17.149 -0.6548  0.4553 -0.3962
 1086TIP3    H127453   6.915   7.469  17.161  0.4917  1.0068  0.8266
 1086TIP3    H227454   7.021   7.404  17.075  0.7136  1.3775  0.8242
 1087TIP3   OH227455   1.857   1.108  17.603  0.1562 -0.0390  0.0860
 1087TIP3    H127456   1.786   1.148  17.552  0.2123  0.5788  0.4915
 1087TIP3    H227457   1.880   1.029  17.553 -0.1398  0.2814 -0.5717
 1088TIP3   OH227458   3.587   6.879  16.476  0.0844  0.2688  0.1487
 1088TIP3    H127459   3.541   6.804  16.439 -0.9265 -0.1853  2.2042
 1088TIP3    H227460   3.545   6.955  16.435 -0.4315 -0.2164 -0.2402
 1089TIP3   OH227461   5.787   7.234  16.870 -0.5933 -0.2020 -0.4815
 1089TIP3    H127462   5.754   7.292  16.938 -0.4355 -0.3726 -0.2601
 1089TIP3    H227463   5.784   7.146  16.908  1.1782 -0.1024 -0.0206
 1090TIP3   OH227464   6.078   3.836  17.090  0.2879  0.5066  0.0665
 1090TIP3    H127465   6.060   3.930  17.089  1.8041  0.8173 -0.1884
 1090TIP3    H227466   6.120   3.821  17.174  1.0185  0.2532 -0.3420
 1091TIP3   OH227467   3.643   5.938  18.520  0.1790  0.2586 -0.2155
 1091TIP3    H127468   3.566   5.914  18.571 -0.7862  2.2196 -0.6813
 1091TIP3    H227469   3.705   5.974  18.584  0.6609 -1.1132  0.1243
 1092TIP3   OH227470   7.134   0.118  16.464  0.0196  0.4357  0.0062
 1092TIP3    H127471   7.061   0.170  16.431  0.4194  0.4601 -0.8828
 1092TIP3    H227472   7.209   0.146  16.410  0.7264  0.5627  1.0318
 1093TIP3   OH227473   3.586   3.333  17.462  0.2096 -0.0329 -0.1738
 1093TIP3    H127474   3.609   3.249  17.500  1.0567  0.2448 -0.0460
 1093TIP3    H227475   3.496   3.349  17.490  0.6411 -0.0678  1.3047
 1094TIP3   OH227476   1.095   5.118  16.747  0.2823  0.0219 -0.0140
 1094TIP3    H127477   1.142   5.057  16.690  0.9184 -0.4431  0.9812
 1094TIP3    H227478   1.118   5.204  16.714  1.1773 -0.2238 -0.0672
 1095TIP3   OH227479   5.890   7.068  16.621  0.3630 -0.6172  0.4478
 1095TIP3    H127480   5.889   7.150  16.669  1.0934 -0.7688  0.7271
 1095TIP3    H227481   5.975   7.029  16.640 -0.4133 -2.0220  1.2920
 1096TIP3   OH227482   2.988   3.204  16.357 -0.1471  0.7112 -0.0282
 1096TIP3    H127483   2.905   3.197  16.405  1.4988 -0.2290  2.8922
 1096TIP3    H227484   3.029   3.284  16.391  1.0653  0.0237  0.1766
 1097TIP3   OH227485   7.512   1.644  18.505 -0.1723  0.2784 -0.1146
 1097TIP3    H127486   7.553   1.705  18.566 -0.6871  1.0704 -0.5342
 1097TIP3    H227487   7.533   1.680  18.418 -1.3072  0.4296 -0.3436
 1098TIP3   OH227488   7.603   6.085  18.681  0.1096 -0.2250  0.2123
 1098TIP3    H127489   7.552   6.123  18.753 -1.1747 -0.6494 -0.4395
 1098TIP3    H227490   7.651   6.159  18.644  0.9676 -0.0451  1.6397
 1099TIP3   OH227491   3.153   5.283  18.796 -0.6722 -0.0979 -0.3511
 1099TIP3    H127492   3.084   5.349  18.806 -0.1316  0.2760  1.3272
 1099TIP3    H227493   3.232   5.335  18.779 -0.6381 -0.4821 -1.4609
 1100TIP3   OH227494   6.766   2.913  17.675  0.1867 -0.4607  0.1626
 1100TIP3    H127495   6.720   2.937  17.594 -0.9460 -0.7620  0.6980
 1100TIP3    H227496   6.697   2.879  17.733  0.8292  0.5991  1.5938
 1101TIP3   OH227497   2.440   7.514  17.193 -0.4805  0.2626 -0.3987
 1101TIP3    H127498   2.480   7.557  17.118 -1.9608 -0.5896 -1.7448
 1101TIP3    H227499   2.497   7.535  17.266  0.3815  2.0868 -1.5364
 1102TIP3   OH227500   5.851   4.571  18.409  0.0539  0.2671  0.2456
 1102TIP3    H127501   5.836   4.529  18.324 -3.1203 -0.5769  1.0739
 1102TIP3    H227502   5.829   4.503  18.473  2.6417  0.7910  1.8432
 1103TIP3   OH227503   5.064   3.310  17.993  0.2207 -0.2053 -0.2134
 1103TIP3    H127504   5.020   3.236  18.036  2.1896 -2.1327 -1.3477
 1103TIP3    H227505   5.096   3.364  18.065 -1.8666  0.0168  0.6379
 1104TIP3   OH227506   5.483   0.824  18.480 -0.1860 -0.1002  0.4208
 1104TIP3    H127507   5.419   0.763  18.517 -1.1418  0.4455 -0.2654
 1104TIP3    H227508   5.553   0.768  18.446 -0.9715 -0.8251 -0.0543
 1105TIP3   OH227509   5.299   4.556  16.467 -0.4382  0.0510  0.0442
 1105TIP3    H127510   5.341   4.579  16.384  1.1480  0.3420  0.8964
 1105TIP3    H227511   5.351   4.483  16.501 -1.3503 -0.3719  0.5931
 1106TIP3   OH227512   4.218   1.660  18.644 -0.4779  0.3557  0.0703
 1106TIP3    H127513   4.265   1.680  18.563 -1.0654  0.7162 -0.1861
 1106TIP3    H227514   4.258   1.717  18.709  0.8101 -0.7896  0.3140
 1107TIP3   OH227515   3.290   2.810  17.193  0.7343 -0.1632 -0.1409
 1107TIP3    H127516   3.266   2.882  17.135  1.2926 -0.2760 -0.5237
 1107TIP3    H227517   3.342   2.751  17.138  0.8612 -0.5172  0.3477
 1108TIP3   OH227518   4.275   2.822  18.467 -0.2472  0.0253 -0.0912
 1108TIP3    H127519   4.352   2.864  18.429 -0.0121  0.8682  1.2333
 1108TIP3    H227520   4.202   2.852  18.412  0.1995  0.3356 -0.5229
 1109TIP3   OH227521   7.490   2.418  18.570 -0.2555  0.3026  0.4588
 1109TIP3    H127522   7.443   2.493  18.607 -0.1145  0.5802  0.0951
 1109TIP3    H227523   7.449   2.404  18.484  0.0418  0.2788  0.3185
 1110TIP3   OH227524   4.080   5.722  17.076 -0.5889  0.3380  0.3281
 1110TIP3    H127525   4.062   5.816  17.079 -2.1859  0.0422  2.8474
 1110TIP3    H227526   4.068   5.692  17.166  2.0720 -1.9571  0.0848
 1111TIP3   OH227527   4.815   0.669  16.084  0.2224  0.3169  0.5973
 1111TIP3    H127528   4.836   0.762  16.078  0.9220  0.1054 -1.0164
 1111TIP3    H227529   4.889   0.631  16.132  0.6065  0.4196  0.0980
 1112TIP3   OH227530   7.170   2.255  17.435  0.4288  0.0945  0.2236
 1112TIP3    H127531   7.098   2.195  17.416  0.0863  0.7919 -0.7419
 1112TIP3    H227532   7.249   2.205  17.418  0.1415  0.1952 -1.5415
 1113TIP3   OH227533   1.848   7.646  18.030  0.1917 -0.6148  0.2350
 1113TIP3    H127534   1.853   7.579  17.962  1.8093 -2.1176  1.7539
 1113TIP3    H227535   1.872   7.601  18.111 -1.6355  1.1184  1.8579
 1114TIP3   OH227536   3.123   6.396  15.991  0.8206  0.4402 -0.0114
 1114TIP3    H127537   3.053   6.337  16.018 -0.2761  1.6747 -0.0722
 1114TIP3    H227538   3.182   6.341  15.940  0.6396 -0.9352  1.2033
 1115TIP3   OH227539   5.025   4.058  18.209  0.4856  0.5245  0.3227
 1115TIP3    H127540   5.113   4.094  18.221  0.9713 -1.3450  3.3065
 1115TIP3    H227541   5.039   3.977  18.160  0.5528 -0.0028  1.1777
 1116TIP3   OH227542   7.469   6.591  17.083 -0.0931 -0.6176  0.4632
 1116TIP3    H127543   7.536   6.529  17.112  0.0090  0.0315  1.6919
 1116TIP3    H227544   7.387   6.556  17.118 -0.0843 -0.2685  0.8445
 1117TIP3   OH227545   1.052   5.645  16.146  0.1094  0.2278 -0.0334
 1117TIP3    H127546   0.979   5.707  16.154 -0.0239 -0.0680  1.2713
 1117TIP3    H227547   1.130   5.700  16.138 -0.2728  0.5498 -1.8748
 1118TIP3   OH227548   0.500   2.882  17.839 -0.4390  0.4629 -0.0669
 1118TIP3    H127549   0.510   2.800  17.791 -1.3451  1.0237 -1.2630
 1118TIP3    H227550   0.556   2.944  17.794  1.1717  0.2604  1.5459
 1119TIP3   OH227551   2.610   4.484  17.551  0.4344 -0.1972 -0.1876
 1119TIP3    H127552   2.538   4.443  17.599 -1.1844  2.6986  0.0984
 1119TIP3    H227553   2.688   4.435  17.578 -1.0042 -1.4356  2.0318
 1120TIP3   OH227554   6.460   4.169  17.123  0.1512 -0.5056 -0.2008
 1120TIP3    H127555   6.472   4.108  17.196  0.8926 -1.4505 -1.0845
 1120TIP3    H227556   6.372   4.204  17.136 -0.8193 -2.7295 -0.3547
 1121TIP3   OH227557   2.470   0.720  18.664  0.5380  0.0877  0.1516
 1121TIP3    H127558   2.474   0.656  18.735 -2.0339 -0.4238 -0.0509
 1121TIP3    H227559   2.445   0.669  18.587  1.0731  0.9606 -0.6265
 1122TIP3   OH227560   2.440   5.866  17.283 -0.7479 -0.6004 -0.4005
 1122TIP3    H127561   2.497   5.941  17.299 -0.1956 -0.6010 -2.1517
 1122TIP3    H227562   2.426   5.827  17.369  0.2729  0.5710  0.3178
 1123TIP3   OH227563   2.659   6.625  18.586 -0.3267  0.0486 -0.3053
 1123TIP3    H127564   2.566   6.638  18.565 -0.4065  1.6620  0.8845
 1123TIP3    H227565   2.706   6.677  18.521 -0.0667 -2.4181 -2.2588
 1124TIP3   OH227566   6.463   5.410  17.826 -0.0112 -0.0354  0.1234
 1124TIP3    H127567   6.495   5.383  17.912  1.9021 -1.5542 -0.9741
 1124TIP3    H227568   6.403   5.340  17.800 -1.1610  0.7855  0.4808
 1125TIP3   OH227569   6.809   5.760  19.084  0.0823  0.6016 -0.5620
 1125TIP3    H127570   6.791   5.854  19.075  0.4677  0.5959 -1.5399
 1125TIP3    H227571   6.904   5.754  19.087  0.0508  0.2639 -0.0980
 1126TIP3   OH227572   7.505   2.083  18.300 -0.3393 -0.5361  0.2963
 1126TIP3    H127573   7.580   2.061  18.355  0.9364  0.1985 -1.0816
 1126TIP3    H227574   7.441   2.120  18.360  1.6747  1.9037  1.0892
 1127TIP3   OH227575   1.746   2.164  18.545 -0.0280 -0.4718  0.0737
 1127TIP3    H127576   1.750   2.069  18.555 -0.5625 -0.6436 -1.1173
 1127TIP3    H227577   1.653   2.183  18.535  0.1037  0.1353 -0.0557
 1128TIP3   OH227578   6.935   1.483  17.212 -0.1090 -0.0804  0.0861
 1128TIP3    H127579   6.863   1.500  17.273 -1.3577 -1.5815 -0.8948
 1128TIP3    H227580   6.904   1.409  17.159  1.9970 -0.4891 -0.6455
 1129TIP3   OH227581   0.590   7.383  18.374 -0.0056 -0.2888 -0.2842
 1129TIP3    H127582   0.529   7.309  18.368 -1.1696  0.6414 -0.2154
 1129TIP3    H227583   0.544   7.449  18.425  0.5894  0.9042 -1.2165
 1130TIP3   OH227584   5.133   0.060  17.700  0.4421  0.1574 -0.5326
 1130TIP3    H127585   5.116  -0.012  17.761 -1.0728  1.0950  0.2326
 1130TIP3    H227586   5.227   0.059  17.687  0.5662 -1.3376  0.2430
 1131TIP3   OH227587   7.286   6.225  17.382 -0.0815  0.0466  0.2313
 1131TIP3    H127588   7.254   6.283  17.451 -0.1081 -0.0283  0.2830
 1131TIP3    H227589   7.231   6.147  17.390 -1.3091  0.7424 -1.0359
 1132TIP3   OH227590   6.156   6.082  16.916 -0.8634  0.3448  0.0737
 1132TIP3    H127591   6.116   6.136  16.848 -0.7115 -0.4990 -0.7038
 1132TIP3    H227592   6.189   6.006  16.870  0.0097  0.1571  0.9773
 1133TIP3   OH227593   5.962   6.852  18.520  0.2891  0.2572 -0.0017
 1133TIP3    H127594   5.879   6.844  18.566  0.4105 -0.5158  0.0992
 1133TIP3    H227595   6.010   6.773  18.544  2.4697  2.2069  2.7389
 1134TIP3   OH227596   5.632   4.436  18.868 -0.9249 -0.4128 -0.2334
 1134TIP3    H127597   5.712   4.444  18.920 -0.6264 -0.5956 -0.6638
 1134TIP3    H227598   5.567   4.404  18.931 -0.4420 -1.1229 -0.0818
 1135TIP3   OH227599   6.390   7.558  18.143  0.5822  0.7104  0.1473
 1135TIP3    H127600   6.314   7.607  18.112  1.3438  1.5230 -0.5083
 1135TIP3    H227601   6.363   7.466  18.138 -0.3823  0.9926  0.0154
 1136TIP3   OH227602   4.727   1.157  17.918  0.4365 -0.5450  0.0829
 1136TIP3    H127603   4.766   1.225  17.973  1.4011 -1.4143  0.5034
 1136TIP3    H227604   4.675   1.104  17.979  0.1388 -0.5167 -0.1446
 1137TIP3   OH227605   5.965   1.510  15.977 -0.2008 -0.3324 -0.1497
 1137TIP3    H127606   6.041   1.453  15.979  0.1420  0.1163  1.3705
 1137TIP3    H227607   5.895   1.458  16.015 -0.1423 -0.0858  0.3010
 1138TIP3   OH227608   4.854   6.050  18.281 -0.4380  0.0906  0.0642
 1138TIP3    H127609   4.779   6.014  18.234  1.1876 -1.4830 -1.5237
 1138TIP3    H227610   4.877   6.129  18.232 -1.6961  1.2457  1.2541
 1139TIP3   OH227611   5.079   1.805  17.591  0.1368  0.1875 -0.2193
 1139TIP3    H127612   5.041   1.892  17.596  0.9038  0.4690  1.2712
 1139TIP3    H227613   5.004   1.747  17.577 -0.3833  1.0498 -1.1987
 1140TIP3   OH227614   0.891   7.661  17.191 -0.0834 -0.8289 -0.9503
 1140TIP3    H127615   0.870   7.601  17.120 -0.6531 -2.0165  0.1867
 1140TIP3    H227616   0.811   7.666  17.244 -0.1153  1.0911 -1.1027
 1141TIP3   OH227617   2.752   5.735  18.500 -0.7096 -0.0504  0.1506
 1141TIP3    H127618   2.685   5.688  18.451 -0.3671  0.5937 -0.9899
 1141TIP3    H227619   2.814   5.667  18.527  0.3413 -0.2371 -2.3756
 1142TIP3   OH227620   0.385   2.409  17.259  0.2526  0.6453  0.1365
 1142TIP3    H127621   0.373   2.333  17.202  0.8674  0.4342  0.2704
 1142TIP3    H227622   0.439   2.469  17.207  0.9594  0.3784  0.5468
 1143TIP3   OH227623   0.743   0.540  17.688  0.4629  0.0046  0.0549
 1143TIP3    H127624   0.704   0.582  17.611 -0.4967 -1.1619 -0.1238
 1143TIP3    H227625   0.769   0.613  17.744 -1.8787  0.8979  0.1204
 1144TIP3   OH227626   1.599   1.675  17.510 -0.6344 -0.0629  0.0490
 1144TIP3    H127627   1.646   1.714  17.584 -1.3389 -1.1683  1.1231
 1144TIP3    H227628   1.628   1.725  17.434  1.9049 -0.3707  0.7078
 1145TIP3   OH227629   3.215   1.752  18.223 -0.3771  0.2247 -0.2109
 1145TIP3    H127630   3.152   1.680  18.226  1.3163 -1.2918  0.7898
 1145TIP3    H227631   3.169   1.822  18.176 -2.1728 -1.3994 -1.0068
 1146TIP3   OH227632   5.118   3.812  18.104 -0.2307  0.1773  0.6393
 1146TIP3    H127633   5.134   3.725  18.067 -0.5623  0.0405  0.8087
 1146TIP3    H227634   5.200   3.837  18.145 -0.2275 -0.1889  0.8568
 1147TIP3   OH227635   4.778   5.648  18.151 -0.2568 -0.0030  0.2094
 1147TIP3    H127636   4.862   5.689  18.170  0.9225 -2.0291 -0.3478
 1147TIP3    H227637   4.758   5.597  18.230 -0.3246 -0.5377 -0.1510
 1148TIP3   OH227638   2.076   2.392  18.096 -0.5748 -0.4288  0.5341
 1148TIP3    H127639   2.146   2.407  18.160 -0.6877 -0.0931  0.5791
 1148TIP3    H227640   2.010   2.458  18.116  0.4507  1.2911 -1.4644
 1149TIP3   OH227641   2.733   0.025  16.359  0.3334 -0.2292 -0.3711
 1149TIP3    H127642   2.817   0.050  16.397  0.3309  0.6750 -0.9202
 1149TIP3    H227643   2.728   0.075  16.277 -1.6583  1.4312  0.6551
 1150TIP3   OH227644   5.126   6.691  15.912  0.1913  0.2640 -0.1356
 1150TIP3    H127645   5.207   6.735  15.884  0.3840 -0.1919 -0.3084
 1150TIP3    H227646   5.098   6.740  15.990  1.8917 -0.9550  1.3250
 1151TIP3   OH227647   1.917   2.719  17.156 -0.4329  0.2503  0.0095
 1151TIP3    H127648   1.821   2.721  17.150 -0.4700  0.4167  0.6125
 1151TIP3    H227649   1.936   2.758  17.241  0.1624  0.0116 -0.0136
 1152TIP3   OH227650   2.384   1.616  17.180  0.4361 -0.8331 -0.2121
 1152TIP3    H127651   2.383   1.674  17.103  2.8424 -0.2968  0.1058
 1152TIP3    H227652   2.354   1.532  17.146 -0.9276 -0.0190 -1.1677
 1153TIP3   OH227653   5.443   6.836  17.191 -0.1233  0.2677  0.3232
 1153TIP3    H127654   5.482   6.766  17.244 -0.9318  0.1108  0.7256
 1153TIP3    H227655   5.419   6.794  17.109  1.0050  0.4796 -0.1282
 1154TIP3   OH227656   5.114   2.193  17.785  0.5979  0.3485 -0.7188
 1154TIP3    H127657   5.184   2.165  17.726  1.5082 -0.0317  0.4990
 1154TIP3    H227658   5.087   2.113  17.830 -0.3775  0.5541 -0.9190
 1155TIP3   OH227659   7.245   4.465  17.929 -0.0623  0.1353 -0.1769
 1155TIP3    H127660   7.337   4.439  17.938  0.3359  1.5261 -0.0989
 1155TIP3    H227661   7.233   4.478  17.835  0.2936  1.5349 -0.0525
 1156TIP3   OH227662   2.599   3.846  16.812  0.0856  0.1164 -0.2481
 1156TIP3    H127663   2.617   3.753  16.827 -0.4594  0.2190  1.1078
 1156TIP3    H227664   2.679   3.878  16.770  1.6378 -0.2898  2.1888
 1157TIP3   OH227665   3.189   0.466  18.652 -0.8662 -0.2397  0.3577
 1157TIP3    H127666   3.141   0.521  18.715  0.3918  0.1433  1.0018
 1157TIP3    H227667   3.214   0.526  18.582  0.1950 -0.0414  0.8867
 1158TIP3   OH227668   1.158   1.321  17.508  0.2174 -0.1919  0.0282
 1158TIP3    H127669   1.139   1.268  17.430  0.2222  1.0363 -0.8251
 1158TIP3    H227670   1.227   1.381  17.480  0.4267  0.0768  1.0787
 1159TIP3   OH227671   0.368   7.492  17.287  0.2372 -0.1157 -0.2933
 1159TIP3    H127672   0.296   7.443  17.327  0.9753 -0.7489  0.2981
 1159TIP3    H227673   0.373   7.459  17.197  0.3708 -0.7254 -0.0646
 1160TIP3   OH227674   5.623   0.022  17.064  0.1708  0.2807 -0.0952
 1160TIP3    H127675   5.667   0.008  16.980  0.0479  0.4021 -0.1806
 1160TIP3    H227676   5.618  -0.065  17.103  0.8453  0.3260  0.0940
 1161TIP3   OH227677   3.253   0.295  17.958  0.2662  0.1565 -0.4230
 1161TIP3    H127678   3.311   0.219  17.967  1.8808  1.4721  1.0048
 1161TIP3    H227679   3.282   0.337  17.877  0.6652  0.2792 -0.2201
 1162TIP3   OH227680   4.235   3.366  17.890  0.4789  0.2848  0.6194
 1162TIP3    H127681   4.238   3.382  17.796 -1.5187  0.3092  0.5224
 1162TIP3    H227682   4.278   3.281  17.902 -2.1232 -1.3371 -0.7734
 1163TIP3   OH227683   0.022   1.370  16.097 -0.4373 -0.2167  0.2296
 1163TIP3    H127684  -0.044   1.381  16.028 -0.6638 -1.4269  0.2294
 1163TIP3    H227685   0.083   1.305  16.061 -1.0956 -1.6156  1.5085
 1164TIP3   OH227686   0.034   0.122  18.430  0.3631  0.5398  0.1252
 1164TIP3    H127687   0.058   0.214  18.417  0.2959  1.0779  3.1666
 1164TIP3    H227688  -0.057   0.117  18.401  0.8438  0.9927 -1.5882
 1165TIP3   OH227689   7.009   3.509  18.084  0.2096 -0.1693 -0.4488
 1165TIP3    H127690   7.027   3.423  18.122 -2.3588 -0.7084 -0.2835
 1165TIP3    H227691   6.914   3.519  18.090  0.2754  2.0619 -1.8291
 1166TIP3   OH227692   1.643   2.705  17.105  0.1718 -0.1450 -0.1167
 1166TIP3    H127693   1.632   2.765  17.031 -0.4111 -0.1984 -0.0819
 1166TIP3    H227694   1.553   2.688  17.135  0.3396 -0.9022 -0.0248
 1167TIP3   OH227695   4.255   0.764  17.993 -0.7127 -0.0518 -0.0403
 1167TIP3    H127696   4.265   0.704  18.067  0.1783  0.2571  0.1013
 1167TIP3    H227697   4.249   0.851  18.033 -0.3740  0.1040 -0.3302
 1168TIP3   OH227698   7.285   3.826  18.731 -0.0820  0.4480 -0.2278
 1168TIP3    H127699   7.377   3.801  18.718 -0.8042 -1.7903 -1.6033
 1168TIP3    H227700   7.283   3.920  18.713  1.8312  0.4271 -0.8084
 1169TIP3   OH227701   5.415   2.551  18.505 -0.2145  0.2137  0.1250
 1169TIP3    H127702   5.455   2.537  18.591 -0.1829  0.2892  0.1234
 1169TIP3    H227703   5.458   2.629  18.471 -0.4359  0.3530  0.1649
 1170TIP3   OH227704   1.008   2.861  17.696  0.1366 -0.0635 -0.7006
 1170TIP3    H127705   1.025   2.936  17.753 -0.9011  0.7466 -1.4170
 1170TIP3    H227706   1.080   2.801  17.714  0.1327  0.3962  1.0601
 1171TIP3   OH227707   0.963   3.815  17.608 -0.1948  0.0478  0.2878
 1171TIP3    H127708   1.002   3.868  17.539 -0.5983  1.5560  1.1763
 1171TIP3    H227709   1.037   3.778  17.655  0.0832 -1.4125 -1.2235
 1172TIP3   OH227710   3.270   7.572  18.023 -0.4664 -0.0413 -0.2006
 1172TIP3    H127711   3.293   7.643  17.964  1.4956  0.4915  1.1191
 1172TIP3    H227712   3.215   7.613  18.090  1.8561  0.6778  1.3900
 1173TIP3   OH227713   1.449   7.239  18.193 -0.1841 -0.1883 -0.1652
 1173TIP3    H127714   1.531   7.282  18.218 -0.6056  0.2675  0.4778
 1173TIP3    H227715   1.476   7.152  18.164  0.7305  0.5886 -1.8095
 1174TIP3   OH227716   2.158   6.606  16.547 -0.1813 -0.1370 -0.3740
 1174TIP3    H127717   2.149   6.693  16.585 -2.6087 -0.0454 -0.9725
 1174TIP3    H227718   2.247   6.603  16.513 -0.5149  2.7004 -1.7024
 1175TIP3   OH227719   1.077   0.609  18.541 -0.0111 -0.1061 -0.2451
 1175TIP3    H127720   1.031   0.591  18.623 -0.4436 -1.5251 -0.7757
 1175TIP3    H227721   1.147   0.545  18.538 -0.5278 -0.6416 -1.3793
 1176TIP3   OH227722   1.320   3.313  16.554 -0.2021  0.6986 -0.5818
 1176TIP3    H127723   1.399   3.259  16.548 -0.7441 -0.3397  0.9826
 1176TIP3    H227724   1.334   3.382  16.490  0.6979 -1.0794 -2.4320
 1177TIP3   OH227725   1.451   3.295  18.143  0.1609  0.4063 -0.4985
 1177TIP3    H127726   1.364   3.272  18.109  0.8294 -0.8098 -1.4855
 1177TIP3    H227727   1.433   3.343  18.224 -1.4300 -0.4645 -0.2881
 1178TIP3   OH227728   1.735   3.114  17.175  0.2220 -0.3857 -0.1028
 1178TIP3    H127729   1.771   3.069  17.099 -0.6858 -0.1212 -0.6978
 1178TIP3    H227730   1.663   3.166  17.141 -0.6972 -0.8511  1.0532
 1179TIP3   OH227731   6.247   3.159  17.863  0.3868 -0.0403  0.4252
 1179TIP3    H127732   6.155   3.183  17.871  0.3408 -0.0460 -0.0431
 1179TIP3    H227733   6.258   3.088  17.926 -0.0672 -0.4033  0.1108
 1180TIP3   OH227734   4.072   7.530  18.954 -0.0561 -0.7856 -0.2040
 1180TIP3    H127735   4.009   7.464  18.924 -0.2549 -0.0326 -1.5620
 1180TIP3    H227736   4.156   7.486  18.953 -0.2834 -1.2195 -0.4057
 1181TIP3   OH227737   1.396   3.092  15.883  0.1574 -0.1146  0.2164
 1181TIP3    H127738   1.433   3.007  15.859  0.4434  0.4417 -1.4650
 1181TIP3    H227739   1.472   3.149  15.891 -0.0739  0.1165  0.7872
 1182TIP3   OH227740   0.963   0.501  16.788 -0.3428 -0.0985  0.1559
 1182TIP3    H127741   1.013   0.447  16.849 -0.6879 -0.8592 -0.2265
 1182TIP3    H227742   1.025   0.567  16.758  0.2576 -0.6496  0.1590
 1183TIP3   OH227743   0.650   6.983  17.230  0.4089 -0.1145 -0.3025
 1183TIP3    H127744   0.581   7.036  17.271 -0.9708 -1.7680 -0.3820
 1183TIP3    H227745   0.726   7.042  17.226 -0.2305  0.9989  2.0694
 1184TIP3   OH227746   3.670   3.375  18.486 -0.1507  0.3462 -0.6085
 1184TIP3    H127747   3.711   3.335  18.409  0.8365  0.8144 -0.3346
 1184TIP3    H227748   3.739   3.427  18.526 -0.8112  0.5580  0.2879
 1185TIP3   OH227749   4.975   6.349  17.752  0.4001  0.3333 -0.5700
 1185TIP3    H127750   5.045   6.285  17.742 -0.0231 -0.6618  2.1695
 1185TIP3    H227751   4.899   6.308  17.710  0.7855  0.2823 -1.2363
 1186TIP3   OH227752   6.938   2.613  18.272 -0.2944  0.0868  0.0428
 1186TIP3    H127753   6.891   2.609  18.355 -0.2586 -0.0095  0.0589
 1186TIP3    H227754   6.960   2.705  18.261 -1.8060  0.3881 -0.7157
 1187TIP3   OH227755   0.461   3.346  17.118 -0.1317  0.3327 -0.0469
 1187TIP3    H127756   0.433   3.255  17.122 -0.2541  0.3596 -0.3268
 1187TIP3    H227757   0.516   3.352  17.040 -0.3056  0.5506 -0.1545
 1188TIP3   OH227758   4.421   4.481  18.579 -0.0099  0.2956  0.1822
 1188TIP3    H127759   4.417   4.561  18.631  0.0991  0.7878 -0.5538
 1188TIP3    H227760   4.409   4.510  18.489 -0.8072 -0.6149 -0.0246
 1189TIP3   OH227761   2.194   0.745  16.844  0.4324  0.2486  0.4768
 1189TIP3    H127762   2.209   0.737  16.939  0.7582 -0.0606  0.4018
 1189TIP3    H227763   2.193   0.655  16.812  3.4466  0.3548 -0.2697
 1190TIP3   OH227764   3.490   0.861  16.509 -0.2258  0.0923 -0.1194
 1190TIP3    H127765   3.438   0.824  16.581 -2.0174 -1.2359 -1.9788
 1190TIP3    H227766   3.575   0.879  16.548 -0.7914 -1.5483  2.0928
 1191TIP3   OH227767   5.990   4.767  18.087 -0.3300  0.0969 -0.2866
 1191TIP3    H127768   5.901   4.730  18.093  0.0804 -1.0219 -0.8617
 1191TIP3    H227769   5.985   4.830  18.016 -0.5259 -0.3885 -0.7078
 1192TIP3   OH227770   4.387   5.130  19.226 -0.2772 -0.3232  0.0710
 1192TIP3    H127771   4.355   5.049  19.187  1.0059 -0.7694 -0.1189
 1192TIP3    H227772   4.317   5.157  19.286 -0.5017 -1.8765  0.5697
 1193TIP3   OH227773   6.766   4.737  18.477  0.5825 -0.2757  0.7141
 1193TIP3    H127774   6.856   4.767  18.484  0.8363 -0.6425 -0.6536
 1193TIP3    H227775   6.744   4.748  18.385 -0.3761 -1.3101  0.7937
 1194TIP3   OH227776   6.625   4.667  16.897  0.0524 -0.3194 -0.0067
 1194TIP3    H127777   6.575   4.735  16.851  0.9874 -0.3396 -1.0914
 1194TIP3    H227778   6.560   4.622  16.951 -0.3755  2.3085  1.8490
 1195TIP3   OH227779   3.272   1.804  17.901 -0.8317 -0.2801  0.2230
 1195TIP3    H127780   3.364   1.830  17.906 -0.7444 -0.5251 -0.0716
 1195TIP3    H227781   3.225   1.872  17.949 -0.4572 -0.3637  0.7115
 1196TIP3   OH227782   5.586   3.746  17.256 -0.5083  0.2255 -0.0768
 1196TIP3    H127783   5.644   3.754  17.180 -0.0946 -0.8632  0.1097
 1196TIP3    H227784   5.588   3.653  17.278 -0.8088  0.4913  1.1319
 1197TIP3   OH227785   6.624   2.290  18.459  0.0408 -0.1246  0.7500
 1197TIP3    H127786   6.694   2.231  18.487 -0.1771 -0.5275  0.4687
 1197TIP3    H227787   6.575   2.239  18.394 -1.1156 -0.2456  1.6711
 1198TIP3   OH227788   3.944   1.876  18.367  0.3813 -0.0479  0.4928
 1198TIP3    H127789   3.998   1.949  18.398 -1.0588  0.4935  1.9283
 1198TIP3    H227790   3.858   1.893  18.407 -0.2022 -2.0999  0.1853
 1199TIP3   OH227791   0.319   3.091  17.054 -0.0194  0.1367 -0.3645
 1199TIP3    H127792   0.235   3.056  17.085 -0.0614 -1.6257 -2.2387
 1199TIP3    H227793   0.383   3.026  17.082  0.6909  1.2050  0.5800
 1200TIP3   OH227794   4.015   1.073  16.790  0.3466 -0.1623  0.2388
 1200TIP3    H127795   3.973   1.158  16.779 -1.5056 -0.3036  4.3481
 1200TIP3    H227796   3.962   1.013  16.738 -0.1715  0.7481 -0.3085
 1201TIP3   OH227797   1.647   4.174  16.217 -0.1939 -0.6867  0.1323
 1201TIP3    H127798   1.653   4.211  16.129  0.0544 -0.0129  0.4276
 1201TIP3    H227799   1.732   4.134  16.232 -0.6019 -1.8007 -0.3537
 1202TIP3   OH227800   1.720   7.295  16.438 -0.3741  0.8661 -0.1522
 1202TIP3    H127801   1.686   7.384  16.448 -1.0091  0.8811 -2.0899
 1202TIP3    H227802   1.652   7.249  16.390  0.9821  0.0117 -1.3345
 1203TIP3   OH227803   0.317   1.675  16.347  0.6450  0.2387 -0.0921
 1203TIP3    H127804   0.221   1.670  16.344  0.6838 -0.3646 -0.4091
 1203TIP3    H227805   0.339   1.652  16.437  0.4583  1.0925  0.1824
 1204TIP3   OH227806   7.566   7.381  18.352 -0.2038 -0.1826 -0.1088
 1204TIP3    H127807   7.480   7.411  18.321 -0.5868 -1.6285 -0.5367
 1204TIP3    H227808   7.602   7.331  18.278  0.3144 -0.9112  0.6212
 1205TIP3   OH227809   2.649   5.734  18.006 -0.7968 -0.1494 -0.1470
 1205TIP3    H127810   2.596   5.807  17.973  1.2213  1.4507 -0.0285
 1205TIP3    H227811   2.668   5.757  18.097  1.0105 -0.0939 -0.5065
 1206TIP3   OH227812   3.294   4.879  17.881 -0.4876  0.1270 -0.0133
 1206TIP3    H127813   3.211   4.837  17.904 -0.1048 -0.0823  1.0598
 1206TIP3    H227814   3.357   4.845  17.945  0.4104  0.3437 -0.7604
 1207TIP3   OH227815   5.252   6.162  18.321  0.3078 -0.5094 -0.1996
 1207TIP3    H127816   5.232   6.233  18.381 -0.5531  0.0989 -1.1783
 1207TIP3    H227817   5.347   6.168  18.308  0.8165 -1.7674  2.4340
 1208TIP3   OH227818   2.459   5.606  17.805 -0.2723  0.0127  0.0697
 1208TIP3    H127819   2.379   5.595  17.857  0.6349 -2.9484  1.0163
 1208TIP3    H227820   2.503   5.682  17.844 -1.6157  0.4360  0.8383
 1209TIP3   OH227821   4.397   7.508  17.005 -0.3668  0.2625  0.0194
 1209TIP3    H127822   4.421   7.417  16.987 -0.0173  0.2592  0.4775
 1209TIP3    H227823   4.472   7.559  16.972 -0.0510  0.3030  0.7903
 1210TIP3   OH227824   7.174   7.304  17.824  0.0711 -0.7596  0.0129
 1210TIP3    H127825   7.182   7.374  17.759 -2.4442 -0.0832  0.3262
 1210TIP3    H227826   7.091   7.262  17.803  0.3572 -2.0745  1.3695
 1211TIP3   OH227827   2.705   2.372  18.710 -0.5827  0.6593 -0.2274
 1211TIP3    H127828   2.662   2.297  18.750 -2.1627  0.8381 -1.4892
 1211TIP3    H227829   2.799   2.358  18.726 -0.9363 -0.9494  0.5767
 1212TIP3   OH227830   0.591   0.488  17.323  0.2687  0.0990 -0.2173
 1212TIP3    H127831   0.582   0.573  17.366 -0.7102  0.4885 -1.1511
 1212TIP3    H227832   0.545   0.498  17.240 -0.5551 -1.5698 -0.0103
 1213TIP3   OH227833   1.522   4.653  16.118  0.1277 -0.2763  0.1462
 1213TIP3    H127834   1.584   4.587  16.086 -0.4186 -1.1604  0.8576
 1213TIP3    H227835   1.450   4.602  16.156 -0.4789  0.7348  0.3944
 1214TIP3   OH227836   0.867   3.113  18.436 -1.1229 -0.3914  0.3850
 1214TIP3    H127837   0.804   3.052  18.398 -1.1822 -1.3885  1.9754
 1214TIP3    H227838   0.815   3.168  18.495 -0.9342  0.6739 -0.4200
 1215TIP3   OH227839   3.720   6.610  17.896  0.2227 -0.1104 -0.6775
 1215TIP3    H127840   3.651   6.557  17.855 -1.2995  1.7133 -0.6225
 1215TIP3    H227841   3.725   6.578  17.986 -0.0619 -0.7081 -0.8688
 1216TIP3   OH227842   2.855   3.619  17.645 -0.0352 -0.0889 -0.5134
 1216TIP3    H127843   2.878   3.659  17.561  1.5668  1.0407  0.4057
 1216TIP3    H227844   2.925   3.555  17.660 -0.1764 -0.1043  0.0889
 1217TIP3   OH227845   5.368   1.406  17.625  0.0848  0.3290 -0.2350
 1217TIP3    H127846   5.318   1.365  17.695  0.3384 -0.3552 -0.4412
 1217TIP3    H227847   5.331   1.370  17.544 -0.5218  1.4688 -0.4920
 1218TIP3   OH227848   4.915   5.857  16.726  0.2723 -0.6351 -0.0233
 1218TIP3    H127849   4.847   5.791  16.736  1.2167 -1.9368 -1.6597
 1218TIP3    H227850   4.912   5.881  16.634  0.7121  0.8000  0.3082
 1219TIP3   OH227851   6.725   3.042  16.664 -0.1322 -0.2315 -0.3576
 1219TIP3    H127852   6.696   2.961  16.706 -0.6018  0.2502  0.2625
 1219TIP3    H227853   6.684   3.039  16.577  0.2300 -0.8752 -0.5136
 1220TIP3   OH227854   3.712   1.968  18.103  0.1165  0.3049 -0.0618
 1220TIP3    H127855   3.636   1.913  18.123  0.1842 -0.0086 -0.6438
 1220TIP3    H227856   3.756   1.922  18.032  0.8249  0.5144  0.2394
 1221TIP3   OH227857   3.828   6.106  17.376 -0.1551 -0.0622 -0.6485
 1221TIP3    H127858   3.797   6.097  17.286 -1.6612 -0.7937 -0.0970
 1221TIP3    H227859   3.898   6.171  17.371 -1.0630  0.8672 -2.1501
 1222TIP3   OH227860   1.387   6.098  17.428 -0.2333  0.2334  0.1407
 1222TIP3    H127861   1.335   6.155  17.485 -0.9455  0.1057 -0.3602
 1222TIP3    H227862   1.465   6.077  17.479 -0.5724  0.6134  0.8276
 1223TIP3   OH227863   5.847   4.246  16.996  0.0983  0.2351  0.6208
 1223TIP3    H127864   5.803   4.217  16.916 -0.3141 -0.7423  1.1847
 1223TIP3    H227865   5.877   4.165  17.037  1.1833  0.7957  0.9601
 1224TIP3   OH227866   6.480   6.067  18.073 -0.2559  0.6319 -0.2242
 1224TIP3    H127867   6.553   6.109  18.117 -0.5417  0.6105  0.2681
 1224TIP3    H227868   6.403   6.119  18.095 -0.8340 -0.8284  1.4493
 1225TIP3   OH227869   2.644   6.358  18.585 -0.3041  0.0753 -0.2306
 1225TIP3    H127870   2.571   6.335  18.643  0.2614 -0.9205  0.1140
 1225TIP3    H227871   2.661   6.451  18.604 -0.0070 -0.2707  1.3644
 1226TIP3   OH227872   0.092   7.516  18.468  0.5075  0.4217  0.1298
 1226TIP3    H127873   0.044   7.598  18.479  2.7098  1.7952 -0.0776
 1226TIP3    H227874   0.031   7.459  18.420 -0.8338  2.1220 -0.2674
 1227TIP3   OH227875   4.893   3.106  18.052  1.2209 -0.7289 -0.3493
 1227TIP3    H127876   4.845   3.156  18.118  4.2089  2.8778 -0.6131
 1227TIP3    H227877   4.838   3.111  17.974  0.6435  0.7563  0.1130
 1228TIP3   OH227878   6.243   1.112  15.926  0.2388 -0.6209  0.0986
 1228TIP3    H127879   6.298   1.107  15.848 -0.5269  0.0239 -0.4979
 1228TIP3    H227880   6.264   1.033  15.975  0.9252 -0.9039 -0.6280
 1229TIP3   OH227881   1.862   3.847  16.278 -0.0630  0.3821 -0.2252
 1229TIP3    H127882   1.815   3.803  16.349 -1.8891  0.0609 -1.5444
 1229TIP3    H227883   1.848   3.790  16.202  0.0398  1.7443 -1.3125
 1230TIP3   OH227884   1.263   6.402  18.263 -0.4286 -0.3971  0.5874
 1230TIP3    H127885   1.215   6.327  18.228 -1.8350  0.2024  1.1319
 1230TIP3    H227886   1.280   6.378  18.354 -0.4852 -0.2488  0.6360
 1231TIP3   OH227887   4.299   7.461  18.822  0.1815 -0.2139  0.5753
 1231TIP3    H127888   4.273   7.472  18.731 -0.2477 -0.1917  0.6970
 1231TIP3    H227889   4.338   7.374  18.826 -0.4573 -0.5099  0.5153
 1232TIP3   OH227890   4.285   2.732  17.158  0.1385  0.4125  0.5840
 1232TIP3    H127891   4.375   2.729  17.192  0.7335 -0.2298 -0.9454
 1232TIP3    H227892   4.235   2.677  17.218  1.7865 -3.3591 -1.2151
 1233TIP3   OH227893   7.164   5.298  17.008 -0.1800 -0.2824 -0.0899
 1233TIP3    H127894   7.185   5.232  17.074  1.7472 -2.1320 -2.3743
 1233TIP3    H227895   7.104   5.254  16.948  0.2931  0.3836 -1.0774
 1234TIP3   OH227896   6.315   2.445  16.959  0.6130 -0.6150 -0.2774
 1234TIP3    H127897   6.284   2.533  16.982  2.8151  0.3025 -0.6004
 1234TIP3    H227898   6.319   2.399  17.043  1.2086  0.1991  0.1542
 1235TIP3   OH227899   3.164   3.169  16.830 -0.4243 -0.1548 -0.1211
 1235TIP3    H127900   3.141   3.125  16.749  3.5181  0.9236 -2.0609
 1235TIP3    H227901   3.137   3.260  16.817 -0.2397 -0.0816  0.0025
 1236TIP3   OH227902   6.363   5.682  18.967 -0.2592  0.2060 -0.2635
 1236TIP3    H127903   6.271   5.709  18.966 -0.4817 -0.5097  0.3500
 1236TIP3    H227904   6.409   5.754  18.923 -1.1509  0.4005 -0.9050
 1237TIP3   OH227905   3.897   4.682  16.908  0.3144 -0.6377 -0.3213
 1237TIP3    H127906   3.901   4.680  17.004  0.4994  1.6531 -0.2343
 1237TIP3    H227907   3.886   4.590  16.883 -0.4979 -1.2174  1.9169
 1238TIP3   OH227908   1.475   4.631  16.888 -0.0043 -0.1460  0.2896
 1238TIP3    H127909   1.570   4.639  16.878  0.0814  1.4913  1.8179
 1238TIP3    H227910   1.439   4.674  16.811  0.5144  0.6588  0.4818
 1239TIP3   OH227911   4.536   6.725  16.786  0.3124  0.0526 -0.0777
 1239TIP3    H127912   4.444   6.718  16.811  0.2390 -1.2837 -0.6561
 1239TIP3    H227913   4.558   6.639  16.749  1.2374  0.9738 -1.7990
 1240TIP3   OH227914   4.455   7.074  17.350 -0.7186  0.2501 -0.2502
 1240TIP3    H127915   4.489   7.163  17.363  1.0366 -0.5342  0.9442
 1240TIP3    H227916   4.413   7.077  17.264  0.8141  1.7958 -1.0129
 1241TIP3   OH227917   4.173   5.578  18.385 -0.6123  0.0709  0.1570
 1241TIP3    H127918   4.084   5.599  18.414 -1.7718 -2.9357 -0.8189
 1241TIP3    H227919   4.221   5.560  18.466 -0.0048  4.1484  0.9153
 1242TIP3   OH227920   3.932   6.421  19.278 -0.1356  0.4272 -0.2259
 1242TIP3    H127921   3.848   6.387  19.248 -0.3284  1.6667 -1.1937
 1242TIP3    H227922   3.912   6.465  19.361  0.0157 -1.2308  0.7403
 1243TIP3   OH227923   7.600   1.904  16.988  0.1361 -0.2983  0.7274
 1243TIP3    H127924   7.575   1.853  16.912 -0.2213  0.6178  0.2137
 1243TIP3    H227925   7.585   1.995  16.962  0.0546  0.0343  1.8695
 1244TIP3   OH227926   1.896   7.042  18.676 -0.1502 -0.2697  0.2483
 1244TIP3    H127927   1.822   7.101  18.689 -0.8117 -1.3627  1.7512
 1244TIP3    H227928   1.861   6.955  18.697  2.0347 -0.6070  3.0690
 1245TIP3   OH227929   4.394   2.555  18.416  0.1890 -0.0455 -0.4661
 1245TIP3    H127930   4.393   2.644  18.452  0.7422 -0.0707 -0.3731
 1245TIP3    H227931   4.324   2.554  18.351 -0.2165  0.2774 -0.0329
 1246TIP3   OH227932   3.844   5.542  17.021  0.4631 -0.2059 -0.2686
 1246TIP3    H127933   3.810   5.623  17.058  1.1507  1.0737 -2.2685
 1246TIP3    H227934   3.799   5.534  16.936  2.1468 -0.6230 -1.1625
 1247TIP3   OH227935   4.358   5.378  17.672 -0.2852 -0.3176  0.3351
 1247TIP3    H127936   4.348   5.406  17.763  0.5876 -0.7939  0.5845
 1247TIP3    H227937   4.452   5.365  17.661 -0.4532 -0.9330 -0.4421
 1248TIP3   OH227938   5.001   3.599  18.359  0.6318 -0.2914 -0.3084
 1248TIP3    H127939   5.095   3.600  18.374  0.5298 -1.2837  0.4809
 1248TIP3    H227940   4.989   3.650  18.279  1.7277  0.7233  0.1375
 1249TIP3   OH227941   6.376   3.280  17.197 -0.0228  0.0123 -0.4169
 1249TIP3    H127942   6.468   3.263  17.215 -0.1529 -0.3058 -0.0486
 1249TIP3    H227943   6.360   3.366  17.236  0.3586  0.5250 -1.3395
 1250TIP3   OH227944   5.884   2.460  16.763  0.0685  0.5706  0.6198
 1250TIP3    H127945   5.965   2.410  16.774 -0.4118 -0.6117 -0.8727
 1250TIP3    H227946   5.881   2.517  16.840  2.0031  0.2276  1.0110
 1251TIP3   OH227947   5.377   6.601  18.455 -0.1158  0.0259  0.4542
 1251TIP3    H127948   5.404   6.616  18.365  1.0307 -1.7755  0.4513
 1251TIP3    H227949   5.428   6.665  18.506  1.4131 -0.8514  0.0811
 1252TIP3   OH227950   4.414   6.426  17.779  0.0648  0.0867  0.1050
 1252TIP3    H127951   4.352   6.496  17.760 -0.4194  0.2800  2.1757
 1252TIP3    H227952   4.498   6.458  17.745 -0.4703  0.9156 -0.4694
 1253TIP3   OH227953   3.683   4.593  18.252  0.4680  0.1286  0.4266
 1253TIP3    H127954   3.778   4.598  18.237  0.4732 -1.4160 -0.2065
 1253TIP3    H227955   3.645   4.632  18.174  0.5911 -1.0295 -0.2437
 1254TIP3   OH227956   4.248   7.145  17.945 -0.5867 -0.5359  0.5007
 1254TIP3    H127957   4.187   7.206  17.988 -0.5268 -0.7683  0.9194
 1254TIP3    H227958   4.223   7.148  17.852 -0.0319  0.7898  0.3685
 1255TIP3   OH227959   2.700   7.431  16.326  0.6666 -0.3705 -0.2806
 1255TIP3    H127960   2.707   7.526  16.318 -1.2906  0.1124  2.4374
 1255TIP3    H227961   2.608   7.416  16.348  0.7103 -3.0233 -1.5564
 1256TIP3   OH227962   1.145   2.470  16.949  0.1772  0.8358  0.5037
 1256TIP3    H127963   1.089   2.451  17.025  1.1908  0.3664  1.1465
 1256TIP3    H227964   1.102   2.543  16.906 -0.4116  1.1207  1.5373
 1257TIP3   OH227965   7.262   5.159  17.210 -0.3314 -0.3846  0.2293
 1257TIP3    H127966   7.224   5.110  17.283  1.1725 -0.7395  0.7945
 1257TIP3    H227967   7.325   5.100  17.170 -0.7610 -0.0068 -1.0559
 1258TIP3   OH227968   4.765   3.189  19.004  0.2579  0.7849 -0.6223
 1258TIP3    H127969   4.749   3.271  19.052  0.0064 -0.3089  1.2455
 1258TIP3    H227970   4.679   3.146  19.002  0.6636 -0.0371 -0.4217
 1259TIP3   OH227971   6.719   1.878  16.590  0.0380  0.0155  0.3370
 1259TIP3    H127972   6.718   1.973  16.592  2.9304  0.1735 -0.7906
 1259TIP3    H227973   6.788   1.856  16.527  0.7631 -2.7954  1.9467
 1260TIP3   OH227974   6.830   0.409  18.319  0.7226  0.2061  0.4686
 1260TIP3    H127975   6.917   0.446  18.305  1.1424 -0.6951  0.5950
 1260TIP3    H227976   6.833   0.373  18.408  1.0597 -1.9639 -0.3436
 1261TIP3   OH227977   1.210   1.203  17.773  0.1997  0.4113  0.6206
 1261TIP3    H127978   1.237   1.196  17.682 -1.5419 -0.7212  0.1391
 1261TIP3    H227979   1.289   1.185  17.824  1.1598  0.9076 -0.6510
 1262TIP3   OH227980   5.004   1.425  16.314 -0.2381 -0.3628 -0.2914
 1262TIP3    H127981   5.093   1.414  16.280 -0.6454 -0.9013 -1.2485
 1262TIP3    H227982   4.986   1.343  16.361 -0.6658 -0.8192 -1.2025
 1263TIP3   OH227983   4.300   6.853  17.937 -0.1885  0.1047 -0.1170
 1263TIP3    H127984   4.290   6.787  18.006  1.0296 -0.8399 -0.7929
 1263TIP3    H227985   4.211   6.874  17.910 -0.6123 -1.6101 -0.1646
 1264TIP3   OH227986   0.145   5.681  16.851 -0.8256  0.5539 -0.0968
 1264TIP3    H127987   0.228   5.633  16.859 -0.7270  0.5737 -0.9575
 1264TIP3    H227988   0.117   5.665  16.761 -1.2338  1.4002 -0.1225
 1265TIP3   OH227989   4.595   5.646  17.471  0.4095 -0.2644  0.4323
 1265TIP3    H127990   4.518   5.615  17.423 -1.0901  1.2231  1.7510
 1265TIP3    H227991   4.610   5.580  17.539  1.7289 -1.6929 -1.1527
 1266TIP3   OH227992   4.364   0.356  18.417 -0.3876  0.4565  0.2027
 1266TIP3    H127993   4.402   0.408  18.488  0.6286 -1.4905  1.1474
 1266TIP3    H227994   4.423   0.281  18.407 -2.6153 -1.3877  0.0069
 1267TIP3   OH227995   0.446   3.070  17.405 -0.4122 -0.4031  0.3538
 1267TIP3    H127996   0.405   3.018  17.474  0.5619 -1.3873  0.2182
 1267TIP3    H227997   0.496   3.137  17.452 -0.4028 -0.5664  0.5788
 1268TIP3   OH227998   3.480   7.220  17.294 -0.4869  0.5475 -0.7332
 1268TIP3    H127999   3.520   7.155  17.236 -0.3565 -0.6100  0.6003
 1268TIP3    H228000   3.386   7.215  17.275 -0.7122 -1.3774  0.5725
 1269TIP3   OH228001   2.246   4.444  16.229  0.1076  0.4122  0.2017
 1269TIP3    H128002   2.332   4.423  16.265  0.4877  0.2260 -0.7820
 1269TIP3    H228003   2.225   4.530  16.267  0.8214  0.5611  0.2822
 1270TIP3   OH228004   4.723   7.578  18.583 -0.6141  0.4592 -0.0931
 1270TIP3    H128005   4.800   7.544  18.629  0.3054  1.4417 -0.8642
 1270TIP3    H228006   4.743   7.566  18.490 -1.2502  1.0206 -0.3090
 1271TIP3   OH228007   2.300   5.599  16.610 -0.8184 -0.3182  0.3044
 1271TIP3    H128008   2.360   5.563  16.675 -0.6755 -0.7869 -0.0829
 1271TIP3    H228009   2.301   5.536  16.538  1.8087  1.8452 -1.7701
 1272TIP3   OH228010   1.091   7.333  17.661 -0.0922 -0.7099  0.2877
 1272TIP3    H128011   1.095   7.424  17.692 -0.6650  0.1919 -2.0401
 1272TIP3    H228012   1.010   7.329  17.610  0.1145 -2.4444  0.0515
 1273TIP3   OH228013   4.286   1.600  16.577  0.1833 -0.4311  0.0713
 1273TIP3    H128014   4.353   1.534  16.558  0.2633 -0.5496  0.7522
 1273TIP3    H228015   4.324   1.682  16.547  1.1616 -0.3038  1.5879
 1274TIP3   OH228016   6.765   2.580  17.266  0.3300  0.0494  0.0356
 1274TIP3    H128017   6.856   2.609  17.267  0.2637  0.3394 -1.0791
 1274TIP3    H228018   6.714   2.660  17.252 -0.0586 -0.2001  0.0167
 1275TIP3   OH228019   0.837   7.091  18.103  0.1716 -0.5190  0.5704
 1275TIP3    H128020   0.855   7.000  18.082 -0.7312 -0.5110 -0.2845
 1275TIP3    H228021   0.901   7.141  18.052  0.9212 -0.6695  1.3350
 1276TIP3   OH228022   0.886   2.208  18.655 -0.6357 -0.2391  0.1704
 1276TIP3    H128023   0.810   2.151  18.649  0.4106 -1.8476  1.3486
 1276TIP3    H228024   0.852   2.291  18.690 -1.6944 -1.2650  1.6710
 1277TIP3   OH228025   7.017   5.140  18.569 -0.0280 -0.0013 -0.2476
 1277TIP3    H128026   7.097   5.152  18.519 -0.1920 -0.1180 -0.5384
 1277TIP3    H228027   7.035   5.182  18.653  1.2272 -2.1540  0.6343
 1278TIP3   OH228028   4.948   6.498  18.374 -0.1919 -0.0821  0.1341
 1278TIP3    H128029   5.010   6.567  18.348 -0.0703 -0.1338  0.2854
 1278TIP3    H228030   4.931   6.514  18.466 -2.6960  1.7347 -0.5258
 1279TIP3   OH228031   5.072   3.097  17.084 -0.3285  0.2170  0.7019
 1279TIP3    H128032   5.024   3.169  17.044  0.1211  0.8317  1.2524
 1279TIP3    H228033   5.097   3.040  17.011  1.8635  2.1161 -0.1297
 1280TIP3   OH228034   1.819   0.222  18.201 -0.6643 -0.2811  0.5826
 1280TIP3    H128035   1.741   0.238  18.148  0.5415  1.1666 -0.8499
 1280TIP3    H228036   1.859   0.144  18.162  0.0548  0.6035 -0.5387
 1281TIP3   OH228037   3.310   4.568  18.790  0.4490 -0.1834  0.4675
 1281TIP3    H128038   3.389   4.615  18.815  0.7030 -0.0076 -0.6201
 1281TIP3    H228039   3.281   4.525  18.871  2.8788 -2.0644  0.4564
 1282TIP3   OH228040   2.435   2.898  17.646  0.1565 -0.0524  0.2908
 1282TIP3    H128041   2.511   2.889  17.590  2.2837  0.6606  2.8701
 1282TIP3    H228042   2.392   2.812  17.643  2.5312 -1.3195  0.7435
 1283TIP3   OH228043   1.012   0.084  18.013 -0.5213  0.2960 -0.6758
 1283TIP3    H128044   1.094   0.041  17.989  0.7045  0.9894  1.8978
 1283TIP3    H228045   1.018   0.171  17.974 -0.4969  0.0367 -1.2701
 1284TIP3   OH228046   2.622   1.756  18.827  0.0031  0.4254 -0.0597
 1284TIP3    H128047   2.662   1.673  18.801  0.2252  1.1445 -2.2825
 1284TIP3    H228048   2.663   1.821  18.769 -1.6154  1.7672  0.2287
 1285TIP3   OH228049   2.615   5.338  18.071  0.4411  0.0298  0.1761
 1285TIP3    H128050   2.557   5.264  18.088  0.2205  0.2762  0.5328
 1285TIP3    H228051   2.696   5.316  18.116  0.7330 -0.4480 -0.5677
 1286TIP3   OH228052   2.052   0.373  18.229  0.0554 -0.2515 -0.0021
 1286TIP3    H128053   1.963   0.340  18.214  0.1225 -0.6234  0.3990
 1286TIP3    H228054   2.106   0.327  18.165 -0.0534  0.0407 -0.3068
 1287TIP3   OH228055   2.434   5.930  16.432 -0.4416  0.8769  0.1467
 1287TIP3    H128056   2.526   5.947  16.453  0.1658 -0.1128 -1.5229
 1287TIP3    H228057   2.398   5.894  16.513  1.3149 -1.0999  0.1407
 1288TIP3   OH228058   3.989   2.648  17.969  0.4343  0.2540  0.2393
 1288TIP3    H128059   4.061   2.585  17.971  1.0238  0.9017 -0.4263
 1288TIP3    H228060   4.028   2.731  17.997  0.2681  0.9065 -1.3807
 1289TIP3   OH228061   0.525   0.057  17.029  0.1055 -1.2457 -0.5932
 1289TIP3    H128062   0.524   0.045  16.934  0.4381 -1.3118 -0.5898
 1289TIP3    H228063   0.465   0.129  17.045  1.9677  0.4948 -1.0950
 1290TIP3   OH228064   4.317   5.451  16.999 -0.4623 -0.8548  0.4914
 1290TIP3    H128065   4.378   5.382  17.028  0.0136 -0.5289  0.2677
 1290TIP3    H228066   4.372   5.514  16.953 -1.0655 -0.8763 -0.2816
 1291TIP3   OH228067   4.526   4.696  17.603  0.2593  0.4293 -0.4459
 1291TIP3    H128068   4.584   4.620  17.607 -0.3109 -0.0374 -0.8827
 1291TIP3    H228069   4.585   4.770  17.588  1.0172  0.3732  1.9218
 1292TIP3   OH228070   0.095   2.135  17.784 -0.4959 -0.1843  0.3754
 1292TIP3    H128071   0.018   2.095  17.743 -0.6473 -0.3821  0.8367
 1292TIP3    H228072   0.105   2.088  17.867  0.8099 -0.9369 -0.1837
 1293TIP3   OH228073   0.345   1.221  17.791  0.5422 -0.2169  0.5401
 1293TIP3    H128074   0.374   1.142  17.747  0.6966  0.5052 -0.7180
 1293TIP3    H228075   0.426   1.271  17.807  0.3104  0.4256 -0.2069
 1294TIP3   OH228076   1.937   6.350  18.822  0.4958  0.0401 -1.0910
 1294TIP3    H128077   1.919   6.299  18.743 -1.8106  0.3827 -0.8633
 1294TIP3    H228078   1.924   6.441  18.795  1.2119  0.2655 -0.6857
 1295TIP3   OH228079   0.547   6.941  16.239  0.2128 -0.5040  0.3653
 1295TIP3    H128080   0.555   6.886  16.161  0.5133  0.5957 -0.3890
 1295TIP3    H228081   0.562   7.030  16.208 -1.3113  0.1432  1.3823
 1296TIP3   OH228082   3.435   4.753  17.675  0.6306  0.4325  0.3121
 1296TIP3    H128083   3.387   4.676  17.646  1.2218  0.5770 -1.1287
 1296TIP3    H228084   3.386   4.785  17.751  2.3720 -3.4991  3.4760
 1297TIP3   OH228085   6.189   7.323  18.880 -0.4874  0.3000 -0.2629
 1297TIP3    H128086   6.213   7.326  18.787  0.8657 -0.8768  0.0220
 1297TIP3    H228087   6.125   7.252  18.886 -2.2421  1.7444 -0.5842
 1298TIP3   OH228088   1.074   1.819  17.039  0.1915  0.0974  0.7464
 1298TIP3    H128089   0.984   1.841  17.066  0.7851  2.1476  1.2333
 1298TIP3    H228090   1.089   1.872  16.961  1.2237  0.3742  1.1217
 1299TIP3   OH228091   6.394   2.973  17.719  0.0566 -0.0413 -0.0338
 1299TIP3    H128092   6.454   2.924  17.776 -0.8905 -1.1388  0.0590
 1299TIP3    H228093   6.378   3.055  17.767 -0.8358 -1.0022  1.3939
 1300TIP3   OH228094   0.781   5.121  18.165 -0.5258  0.6555 -0.6710
 1300TIP3    H128095   0.822   5.167  18.092 -0.5021  0.3477 -0.8501
 1300TIP3    H228096   0.730   5.188  18.210 -2.1536  0.4547 -2.1106
 1301TIP3   OH228097   6.057   3.613  16.617 -0.4851  0.1148  0.6794
 1301TIP3    H128098   6.074   3.521  16.638  0.6534  0.2083  0.2421
 1301TIP3    H228099   6.065   3.658  16.701  0.8004  0.0438  0.6252
 1302TIP3   OH228100   2.553   5.014  17.700 -0.0636 -0.2905 -0.2169
 1302TIP3    H128101   2.581   5.028  17.609 -1.6001 -0.6357 -0.7671
 1302TIP3    H228102   2.554   5.101  17.739 -0.9653  0.1058 -1.0454
 1303TIP3   OH228103   4.707   3.523  18.795 -0.2124 -0.4403  0.0986
 1303TIP3    H128104   4.693   3.482  18.710  0.1645 -1.9420  0.7265
 1303TIP3    H228105   4.655   3.603  18.792 -2.5948 -1.9145 -0.4694
 1304TIP3   OH228106   1.243   5.259  17.075 -0.4388 -1.2115 -0.3408
 1304TIP3    H128107   1.278   5.332  17.024  0.4141 -2.4081 -1.5430
 1304TIP3    H228108   1.212   5.196  17.010  1.3736 -3.1301  0.5027
 1305TIP3   OH228109   6.478   4.031  17.392  0.3018 -0.3824  0.4780
 1305TIP3    H128110   6.542   3.960  17.390 -0.2810 -0.9193  0.6862
 1305TIP3    H228111   6.483   4.067  17.480 -2.0259 -2.6331  1.6786
 1306TIP3   OH228112   4.610   6.322  18.159  0.0478  0.1092 -0.5464
 1306TIP3    H128113   4.668   6.251  18.132  1.0760 -0.0613  1.8467
 1306TIP3    H228114   4.651   6.401  18.124  1.3655 -0.0817  0.4938
 1307TIP3   OH228115   1.708   5.621  18.055 -0.4780  0.2720 -0.5691
 1307TIP3    H128116   1.641   5.663  18.001 -1.4180 -0.8355 -0.3088
 1307TIP3    H228117   1.684   5.642  18.145 -0.5225 -0.1857 -0.4705
 1308TIP3   OH228118   0.970   4.700  18.038 -0.9898  0.3900  0.2028
 1308TIP3    H128119   0.901   4.745  18.088 -0.7286  1.0081  0.0148
 1308TIP3    H228120   1.052   4.728  18.080 -0.7460  1.2362 -0.8123
 1309TIP3   OH228121   3.321   5.219  16.346 -0.2157 -0.5239 -0.2279
 1309TIP3    H128122   3.376   5.278  16.397 -0.1080 -0.5558 -0.3063
 1309TIP3    H228123   3.257   5.185  16.409  0.3348 -1.0813  0.0354
 1310TIP3   OH228124   6.098   2.761  18.089 -0.3987  0.2928  0.3093
 1310TIP3    H128125   6.170   2.823  18.077 -0.2031 -0.1714 -1.1205
 1310TIP3    H228126   6.042   2.775  18.013 -0.4250 -1.1555  0.0254
 1311TIP3   OH228127   0.916   2.577  16.549 -0.2324 -0.1085  0.1903
 1311TIP3    H128128   0.822   2.594  16.548 -0.8422 -2.9027 -1.3528
 1311TIP3    H228129   0.947   2.604  16.463 -0.2414 -1.7306 -0.3677
 1312TIP3   OH228130   5.711   7.328  17.118  0.0701  0.1830 -0.1657
 1312TIP3    H128131   5.627   7.283  17.109 -0.0723  0.4191 -0.0071
 1312TIP3    H228132   5.695   7.398  17.181 -0.4036  2.1690 -2.3587
 1313TIP3   OH228133   2.698   7.609  16.972 -0.1385  0.3288 -0.7708
 1313TIP3    H128134   2.776   7.555  16.959 -0.7230 -0.3611 -1.4554
 1313TIP3    H228135   2.654   7.610  16.887 -0.8788  0.7145 -0.3958
 1314TIP3   OH228136   1.163   1.659  18.306  0.0818  0.2108 -0.6519
 1314TIP3    H128137   1.256   1.683  18.303 -0.3411  2.1684 -0.0198
 1314TIP3    H228138   1.156   1.581  18.252  2.0368  0.2437 -1.0176
 1315TIP3   OH228139   7.567   0.768  17.323 -0.6931 -0.1172 -0.7355
 1315TIP3    H128140   7.644   0.792  17.272  0.4148 -1.3875  0.2669
 1315TIP3    H228141   7.496   0.766  17.259  0.2025  0.5246 -1.7967
 1316TIP3   OH228142   1.132   0.395  17.527  0.6005 -0.1831 -0.7719
 1316TIP3    H128143   1.225   0.376  17.538  1.0975  1.3477 -1.9534
 1316TIP3    H228144   1.125   0.490  17.534 -0.9335 -0.2842 -0.4102
 1317TIP3   OH228145   2.731   6.435  16.638 -0.7909 -0.7503  0.3388
 1317TIP3    H128146   2.693   6.347  16.634 -3.2464  0.2259  0.0717
 1317TIP3    H228147   2.656   6.491  16.658  0.1543  1.6023 -2.2025
 1318TIP3   OH228148   1.161   6.941  18.269  0.2651  0.1615  0.1999
 1318TIP3    H128149   1.111   7.023  18.279 -0.4835 -0.1168 -0.9824
 1318TIP3    H228150   1.203   6.949  18.183  2.3361  0.3935  1.1772
 1319TIP3   OH228151   2.544   4.814  18.811 -0.1874 -0.0976  0.1555
 1319TIP3    H128152   2.450   4.832  18.821 -0.4258 -1.5014  0.6841
 1319TIP3    H228153   2.548   4.748  18.742  0.2597 -1.0774  1.0803
 1320TIP3   OH228154   5.726   1.930  17.161 -0.3816 -0.1664  0.5256
 1320TIP3    H128155   5.721   1.953  17.254 -2.5742  2.3944 -0.0726
 1320TIP3    H228156   5.756   1.840  17.160 -1.3702 -0.6803  3.7769
 1321TIP3   OH228157   3.205   2.547  18.396 -0.9546 -0.1056 -0.5531
 1321TIP3    H128158   3.246   2.632  18.380 -1.4389 -0.2628 -3.0728
 1321TIP3    H228159   3.132   2.544  18.334 -0.7885 -2.4655 -0.7194
 1322TIP3   OH228160   6.978   6.834  16.153 -0.4018 -0.6087 -0.1105
 1322TIP3    H128161   6.937   6.793  16.229 -0.2233 -1.1491 -0.2987
 1322TIP3    H228162   6.922   6.809  16.079  1.5181 -3.4629 -0.7723
 1323TIP3   OH228163   6.895   7.091  16.865 -0.0922  0.3728  0.0713
 1323TIP3    H128164   6.893   7.049  16.779 -3.5215  0.6820 -0.1124
 1323TIP3    H228165   6.822   7.053  16.913 -0.1887  2.4463  1.7251
 1324TIP3   OH228166   7.250   5.191  18.451 -0.4616 -0.3383 -0.2399
 1324TIP3    H128167   7.309   5.116  18.455  0.7919  0.6058 -0.4083
 1324TIP3    H228168   7.265   5.229  18.364 -1.0076  0.1845 -0.1143
 1325TIP3   OH228169   6.712   5.776  18.492 -0.3324 -0.0993  0.4477
 1325TIP3    H128170   6.787   5.778  18.432  0.7156  2.2026  1.6938
 1325TIP3    H228171   6.637   5.762  18.435  0.9819 -3.0696 -0.8014
 1326TIP3   OH228172   2.171   6.139  17.346 -0.0806  0.3654 -0.6246
 1326TIP3    H128173   2.136   6.050  17.356  0.7828  0.1971  1.2434
 1326TIP3    H228174   2.094   6.193  17.328 -0.7268 -0.6302 -0.9552
 1327TIP3   OH228175   5.460   2.294  16.109  0.0744 -0.3042  0.1768
 1327TIP3    H128176   5.470   2.372  16.163 -0.5000 -1.3112  1.8415
 1327TIP3    H228177   5.528   2.301  16.042 -0.0036  1.6132  0.2646
 1328TIP3   OH228178   3.909   5.003  18.699 -0.2352 -0.3869 -0.2277
 1328TIP3    H128179   3.984   4.959  18.660 -1.2313 -0.3692 -2.2729
 1328TIP3    H228180   3.929   5.096  18.693  0.0011 -0.4130  0.1359
 1329TIP3   OH228181   1.730   5.339  18.049 -0.8565 -0.5130 -0.1973
 1329TIP3    H128182   1.725   5.432  18.029 -1.6892 -0.8028 -1.4308
 1329TIP3    H228183   1.804   5.331  18.109  0.6952  0.6625 -1.8541
 1330TIP3   OH228184   7.604   4.507  18.881 -0.2164 -0.6207  0.1621
 1330TIP3    H128185   7.570   4.480  18.795  0.2952 -1.9417  0.3627
 1330TIP3    H228186   7.627   4.426  18.925 -0.5707  0.0274  1.6166
 1331TIP3   OH228187   0.369   4.766  17.381 -0.0356  0.0987  0.1853
 1331TIP3    H128188   0.321   4.845  17.409  0.7585 -0.0371  2.0874
 1331TIP3    H228189   0.304   4.696  17.387 -0.8092  0.5907 -1.7353
 1332TIP3   OH228190   4.569   5.860  16.481  0.9361  0.3225 -0.2948
 1332TIP3    H128191   4.554   5.955  16.479 -0.3003  0.1383 -2.6677
 1332TIP3    H228192   4.662   5.850  16.462  1.1794  1.0575  0.4370
 1333TIP3   OH228193   6.441   0.677  18.012 -0.0956 -0.2850  0.8289
 1333TIP3    H128194   6.409   0.698  17.924 -0.3978 -2.1568  0.4543
 1333TIP3    H228195   6.535   0.695  18.008  0.3927 -2.7191 -0.7241
 1334TIP3   OH228196   1.773   5.086  17.833 -0.3192 -0.0446  0.0188
 1334TIP3    H128197   1.705   5.147  17.862 -0.6510 -0.2758 -0.2527
 1334TIP3    H228198   1.856   5.129  17.855 -0.5533  0.0120  0.8269
 1335TIP3   OH228199   7.619   3.459  18.647 -0.7083 -0.1603  1.4611
 1335TIP3    H128200   7.591   3.538  18.600 -2.5270 -0.1881  2.3942
 1335TIP3    H228201   7.707   3.479  18.679 -0.2641  0.6305 -0.1635
 1336TIP3   OH228202   3.082   5.058  18.001  0.4681 -0.3152 -0.3149
 1336TIP3    H128203   3.086   4.994  17.931  1.3244  0.4084 -0.9434
 1336TIP3    H228204   3.005   5.033  18.052 -0.2992 -0.7258 -1.6302
 1337TIP3   OH228205   1.081   7.548  18.437  0.4982  0.4941 -0.0784
 1337TIP3    H128206   0.994   7.550  18.397  0.5421  0.1931 -0.1922
 1337TIP3    H228207   1.142   7.548  18.362  0.5715 -0.9185 -0.0547
 1338TIP3   OH228208   6.059   5.123  17.145 -1.0018 -0.2418  0.0771
 1338TIP3    H128209   6.075   5.039  17.102 -0.4454 -0.7347  1.2018
 1338TIP3    H228210   6.086   5.109  17.236 -2.0285  0.8041  0.5669
 1339TIP3   OH228211   6.285   4.867  17.165 -0.6899  0.1450 -0.4465
 1339TIP3    H128212   6.354   4.925  17.133 -0.9911  0.5613 -0.3548
 1339TIP3    H228213   6.277   4.799  17.098 -0.9030  0.6772 -0.9667
 1340TIP3   OH228214   7.144   4.679  18.782  0.0636  0.1280 -0.0288
 1340TIP3    H128215   7.225   4.648  18.741 -0.6157 -1.4192 -0.2411
 1340TIP3    H228216   7.154   4.656  18.874 -1.3066 -2.7672 -0.5086
 1341TIP3   OH228217   3.462   6.836  17.445 -1.1134  0.0255  0.3688
 1341TIP3    H128218   3.475   6.838  17.540  0.8192 -0.6890  0.1469
 1341TIP3    H228219   3.541   6.796  17.410 -2.3743 -0.9977 -1.4679
 1342TIP3   OH228220   1.320   4.142  17.539  0.0281  0.2761  0.1167
 1342TIP3    H128221   1.290   4.233  17.540 -0.4608  0.1206  0.0351
 1342TIP3    H228222   1.359   4.129  17.626  2.8380  1.4272 -0.8613
 1343TIP3   OH228223   5.868   5.442  18.051  0.4439  0.0510  0.1456
 1343TIP3    H128224   5.919   5.520  18.034  1.9766 -1.0708 -0.6309
 1343TIP3    H228225   5.887   5.383  17.977  0.0211 -1.3831  1.1223
 1344TIP3   OH228226   5.973   0.164  16.934 -0.6792 -0.1567 -1.1339
 1344TIP3    H128227   5.940   0.234  16.877  0.0605  0.1517 -1.1988
 1344TIP3    H228228   5.974   0.087  16.878 -1.8209 -0.3091 -0.9680
 1345TIP3   OH228229   5.553   1.153  17.637 -0.1327  0.0651  0.5224
 1345TIP3    H128230   5.541   1.248  17.648 -1.4137  0.2284 -1.7260
 1345TIP3    H228231   5.466   1.117  17.652  0.4788 -0.8712  2.0036
 1346TIP3   OH228232   5.112   2.969  16.831 -0.3619 -0.5673  0.5573
 1346TIP3    H128233   5.145   2.890  16.873  1.1987 -0.7604 -0.9445
 1346TIP3    H228234   5.072   2.939  16.750 -1.7870 -0.0228  1.0277
 1347TIP3   OH228235   6.181   3.655  18.582  0.6651 -0.0366  0.3769
 1347TIP3    H128236   6.169   3.619  18.494  1.0453  1.0551 -0.1473
 1347TIP3    H228237   6.162   3.582  18.641  1.2343 -1.0288 -0.6225
 1348TIP3   OH228238   7.580   7.175  15.728 -0.0007  0.3385  0.6097
 1348TIP3    H128239   7.668   7.191  15.692 -0.0997  1.0105  0.6455
 1348TIP3    H228240   7.594   7.110  15.797  0.6127  1.0598  1.1944
 1349TIP3   OH228241   3.182   4.267  18.641 -0.4048  0.2609 -0.0123
 1349TIP3    H128242   3.256   4.314  18.680  0.8655 -0.8892 -0.9162
 1349TIP3    H228243   3.220   4.185  18.610 -1.8825  0.0322 -1.3443
 1350TIP3   OH228244   6.738   6.513  17.257 -0.2551  0.2045 -0.3804
 1350TIP3    H128245   6.687   6.545  17.332 -0.7403  1.6976 -1.2966
 1350TIP3    H228246   6.827   6.542  17.276 -0.0778 -0.7731  0.3380
 1351TIP3   OH228247   5.958   5.576  16.507  0.0081 -0.4826 -0.8318
 1351TIP3    H128248   6.012   5.505  16.473  2.9604  0.5753  1.2466
 1351TIP3    H228249   5.913   5.538  16.583 -0.0509 -0.6473 -0.9480
 1352TIP3   OH228250   4.027   5.076  18.058  0.4552 -0.0517  0.1806
 1352TIP3    H128251   4.001   4.995  18.014 -1.3367  1.8514 -2.6009
 1352TIP3    H228252   4.114   5.095  18.024  0.3263 -0.1446 -0.2141
 1353TIP3   OH228253   6.957   1.601  17.867  0.2463 -0.2137 -0.1055
 1353TIP3    H128254   7.028   1.553  17.910  0.2141  0.6447  0.9336
 1353TIP3    H228255   6.933   1.545  17.793  1.8945 -0.5911 -0.3961
 1354TIP3   OH228256   0.744   2.970  17.686 -0.3034 -0.1776  0.5230
 1354TIP3    H128257   0.760   2.991  17.777  0.4137 -2.8954  1.1091
 1354TIP3    H228258   0.823   2.925  17.657 -0.1241  1.4419 -1.7568
 1355TIP3   OH228259   0.512   5.424  18.118  0.1723 -0.1639  0.1768
 1355TIP3    H128260   0.578   5.493  18.116  0.8054 -0.7657 -1.5477
 1355TIP3    H228261   0.435   5.464  18.078  0.4379 -0.3216 -0.5183
 1356TIP3   OH228262   0.045   0.114  17.260 -0.1972 -0.1656 -0.5844
 1356TIP3    H128263   0.040   0.024  17.226 -0.6858 -0.5831  0.5382
 1356TIP3    H228264   0.075   0.104  17.350  0.3412  0.8580 -0.6380
 1357TIP3   OH228265   2.560   6.092  18.663  0.0998 -0.1381  0.0676
 1357TIP3    H128266   2.587   6.000  18.656  0.0001 -0.2202  0.6582
 1357TIP3    H228267   2.614   6.127  18.733  0.3042  0.3240 -0.3191
 1358TIP3   OH228268   6.991   5.423  18.208  0.3954 -0.0434  0.0217
 1358TIP3    H128269   6.919   5.376  18.250 -0.2057 -0.0150 -0.9577
 1358TIP3    H228270   7.017   5.489  18.272  0.5333 -0.9927  0.9803
 1359TIP3   OH228271   3.777   5.003  16.963  0.0496  0.4455  0.0049
 1359TIP3    H128272   3.779   4.962  17.050 -0.6887 -0.7267 -0.5033
 1359TIP3    H228273   3.707   5.068  16.968  1.1833  1.6497  0.7964
 1360TIP3   OH228274   6.627   1.246  16.717  0.4982  0.4382 -0.2862
 1360TIP3    H128275   6.711   1.214  16.685  1.1220  0.7609  0.9239
 1360TIP3    H228276   6.602   1.184  16.785 -0.5991 -0.0381 -1.1156
 1361TIP3   OH228277   0.028   6.692  18.619 -0.9603 -0.4037  0.2492
 1361TIP3    H128278  -0.012   6.607  18.601  1.5627 -1.4112 -1.1882
 1361TIP3    H228279   0.009   6.745  18.541 -0.5403 -0.4850  0.0858
 1362TIP3   OH228280   5.642   5.780  16.296 -0.2939 -0.1282  0.0816
 1362TIP3    H128281   5.616   5.850  16.236 -0.1182  0.4746  0.7026
 1362TIP3    H228282   5.649   5.703  16.240  0.7333  0.6127 -0.8473
 1363TIP3   OH228283   0.941   4.086  16.614  0.3584 -0.0279 -0.1557
 1363TIP3    H128284   0.924   4.001  16.573 -1.2242  0.8706 -1.4699
 1363TIP3    H228285   1.037   4.093  16.616  0.4991 -1.0926 -1.6552
 1364TIP3   OH228286   2.102   0.233  17.924 -0.2508 -0.2144 -0.2525
 1364TIP3    H128287   2.165   0.163  17.908 -0.1083 -0.1630  0.0879
 1364TIP3    H228288   2.017   0.189  17.918 -0.2146 -0.1950 -1.1716
 1365TIP3   OH228289   2.944   6.207  16.100 -0.0215 -0.1333 -0.7224
 1365TIP3    H128290   2.891   6.162  16.166  0.9400 -2.8677 -1.6920
 1365TIP3    H228291   2.888   6.212  16.023  0.1072 -0.2383 -0.8221
 1366TIP3   OH228292   2.564   0.140  18.626 -0.3141  0.1267 -0.1039
 1366TIP3    H128293   2.627   0.087  18.577 -0.2924  1.0794 -1.1608
 1366TIP3    H228294   2.522   0.194  18.559 -1.3375  0.4293  0.7568
 1367TIP3   OH228295   3.041   7.024  18.346 -0.2294 -0.1100  0.5643
 1367TIP3    H128296   2.991   7.086  18.399  2.8363  2.4865  0.7232
 1367TIP3    H228297   3.085   6.969  18.410 -0.9277 -0.7858  0.4824
 1368TIP3   OH228298   0.350   3.360  17.373  0.0887  0.2990  0.2183
 1368TIP3    H128299   0.360   3.374  17.279  2.4910 -0.0939  0.3541
 1368TIP3    H228300   0.321   3.269  17.381 -0.9730  0.5864 -0.1261
 1369TIP3   OH228301   5.707   7.497  17.561  0.0927 -0.3253 -0.1806
 1369TIP3    H128302   5.803   7.501  17.553  0.1825 -0.3964  0.8023
 1369TIP3    H228303   5.686   7.405  17.543  0.3164 -0.5444  0.6633
 1370TIP3   OH228304   1.492   6.947  16.987  0.1192  0.5818 -0.1388
 1370TIP3    H128305   1.448   6.953  17.072 -0.4996 -0.0080 -0.4070
 1370TIP3    H228306   1.515   6.855  16.979  1.2776  0.8458 -0.0838
 1371TIP3   OH228307   1.792   2.336  17.255  0.0236 -0.2727 -0.5981
 1371TIP3    H128308   1.817   2.253  17.295 -0.7356 -0.4660 -0.5027
 1371TIP3    H228309   1.787   2.398  17.328  0.7015 -0.1060 -0.6858
 1372TIP3   OH228310   7.297   4.100  18.676  0.1316  0.1488 -0.0062
 1372TIP3    H128311   7.252   4.173  18.718  0.9002 -0.2229  1.5519
 1372TIP3    H228312   7.268   4.103  18.585  1.1063  3.2017 -0.3530
 1373TIP3   OH228313   1.855   1.181  17.259 -1.2363  0.5274 -0.5167
 1373TIP3    H128314   1.881   1.089  17.247 -1.4187  0.5025 -0.7275
 1373TIP3    H228315   1.770   1.176  17.302 -0.4656  0.6202  1.0782
 1374TIP3   OH228316   6.934   0.342  17.649 -0.1122 -0.2955  0.6062
 1374TIP3    H128317   6.850   0.296  17.656 -1.7090  2.2453 -0.4231
 1374TIP3    H228318   6.943   0.360  17.556  0.1656  1.8662  1.0149
 1375TIP3   OH228319   1.228   1.934  16.775  0.1332 -0.1850  0.1956
 1375TIP3    H128320   1.202   1.855  16.728 -1.2275 -0.6663  1.6697
 1375TIP3    H228321   1.195   2.006  16.721  0.1574 -0.6554 -0.4566
 1376TIP3   OH228322   3.907   6.827  18.121 -0.2755 -0.5702  0.7893
 1376TIP3    H128323   3.934   6.736  18.128 -1.5633 -1.1509 -1.0020
 1376TIP3    H228324   3.848   6.840  18.195 -1.3721 -1.7249  0.1625
 1377TIP3   OH228325   7.530   7.055  16.251 -0.2334  0.2372  0.0306
 1377TIP3    H128326   7.458   7.041  16.189 -1.9352  1.6607  1.5839
 1377TIP3    H228327   7.601   7.091  16.197 -1.0677 -0.1221 -1.3647
 1378TIP3   OH228328   2.016   7.384  18.147  0.0969  0.3246 -0.2624
 1378TIP3    H128329   2.050   7.321  18.210 -0.8096  0.6443  0.5800
 1378TIP3    H228330   2.031   7.470  18.188 -1.5940  0.4786  0.1144
 1379TIP3   OH228331   6.046   6.288  17.365 -0.0061 -0.3770 -0.5384
 1379TIP3    H128332   6.036   6.243  17.281  0.7651 -1.4617 -0.0725
 1379TIP3    H228333   5.981   6.247  17.422  0.4692 -0.6857 -0.2059
 1380TIP3   OH228334   0.145   6.723  18.274 -0.8932  0.1054 -0.3573
 1380TIP3    H128335   0.109   6.812  18.274 -0.5512  0.3124  2.0035
 1380TIP3    H228336   0.221   6.728  18.216 -0.7504  1.4116 -0.0867
 1381TIP3   OH228337   2.688   6.013  17.099  0.1919  0.6695 -0.1748
 1381TIP3    H128338   2.659   6.048  17.183 -0.7453 -0.3996 -0.0272
 1381TIP3    H228339   2.752   6.077  17.067  0.7401  0.9671  1.4475
 1382TIP3   OH228340   3.363   3.524  18.354  0.4044  0.2500  0.4072
 1382TIP3    H128341   3.415   3.524  18.434 -0.0152 -0.8420  0.7073
 1382TIP3    H228342   3.407   3.461  18.297  1.0871  1.5144 -0.5119
 1383TIP3   OH228343   7.123   1.748  16.264 -0.1238 -0.2713  0.0219
 1383TIP3    H128344   7.126   1.687  16.190  0.1145  0.8086 -0.8857
 1383TIP3    H228345   7.215   1.769  16.282 -0.2202  0.1299  0.0596
 1384TIP3   OH228346   5.224   3.537  17.534  0.0488  0.3710  0.1332
 1384TIP3    H128347   5.282   3.486  17.591 -0.9117  0.8375  1.5983
 1384TIP3    H228348   5.170   3.588  17.595 -0.4680  1.5183 -1.2375
 1385TIP3   OH228349   7.512   1.044  16.466 -0.5517  0.1617 -0.6179
 1385TIP3    H128350   7.529   1.128  16.423 -1.1339  1.4330  1.4704
 1385TIP3    H228351   7.433   1.011  16.423 -2.1914  2.2744  0.5558
 1386TIP3   OH228352   7.647   7.278  18.096 -0.1549  0.3116  0.4392
 1386TIP3    H128353   7.582   7.241  18.037 -1.5318  1.7850  0.9478
 1386TIP3    H228354   7.668   7.363  18.058  2.7308 -0.7386 -0.5654
 1387TIP3   OH228355   6.047   0.027  16.682 -0.4475 -0.1311 -0.8949
 1387TIP3    H128356   6.134  -0.000  16.653 -0.0036  1.4676 -1.1914
 1387TIP3    H228357   5.999   0.043  16.601 -0.5440  0.3671 -0.7439
 1388TIP3   OH228358   0.452   3.842  17.631 -0.0924  0.0023  0.2983
 1388TIP3    H128359   0.544   3.836  17.657 -0.6461 -1.7521  2.0956
 1388TIP3    H228360   0.433   3.758  17.590 -1.0708  0.0525  0.6174
 1389TIP3   OH228361   6.257   5.288  17.178  0.1768  0.4364  0.2552
 1389TIP3    H128362   6.269   5.348  17.104  0.0493  0.5573  0.3325
 1389TIP3    H228363   6.184   5.233  17.152  0.1030  0.5084  0.3100
 1390TIP3   OH228364   4.820   0.895  17.783  0.4129 -0.0999  0.4958
 1390TIP3    H128365   4.836   0.944  17.864 -2.9630  3.0225 -0.4293
 1390TIP3    H228366   4.766   0.821  17.809 -0.4516  0.7510  1.2258
 1391TIP3   OH228367   1.375   4.132  17.806  0.0715 -0.8636 -0.5962
 1391TIP3    H128368   1.467   4.129  17.833  0.4478 -3.1528 -1.8810
 1391TIP3    H228369   1.336   4.053  17.845 -1.8330  0.8698  1.2920
 1392TIP3   OH228370   3.650   5.998  16.754 -0.3123 -0.0327 -0.3590
 1392TIP3    H128371   3.702   6.072  16.722  0.1367  0.8321  2.0969
 1392TIP3    H228372   3.653   6.007  16.850 -1.9204 -2.1087 -0.0440
 1393TIP3   OH228373   7.606   7.146  17.686  0.0291 -0.3118 -0.7329
 1393TIP3    H128374   7.677   7.210  17.680 -0.1335 -0.1524 -0.9585
 1393TIP3    H228375   7.537   7.182  17.631 -0.6171  0.0357  0.2827
 1394TIP3   OH228376   5.723   0.019  18.651 -0.1200 -0.2829 -0.5137
 1394TIP3    H128377   5.776   0.024  18.572  0.1398  0.7967 -0.2795
 1394TIP3    H228378   5.721   0.108  18.686 -0.5531 -0.6592  0.4887
 1395TIP3   OH228379   3.674   5.338  16.279  0.2151  0.0595  0.0382
 1395TIP3    H128380   3.624   5.329  16.198  0.4428 -0.5945 -0.0362
 1395TIP3    H228381   3.763   5.359  16.249  0.3102 -0.2308  0.1104
 1396TIP3   OH228382   1.864   6.026  16.322  0.0940 -0.6024 -0.1674
 1396TIP3    H128383   1.817   6.007  16.403  0.2250 -1.2443 -0.2389
 1396TIP3    H228384   1.798   6.062  16.263 -0.8047 -3.2954 -0.9528
 1397TIP3   OH228385   4.227   4.334  18.241  0.6053  0.1994 -0.1362
 1397TIP3    H128386   4.255   4.256  18.289  0.2865  1.1640  1.7160
 1397TIP3    H228387   4.141   4.311  18.206  0.7802 -0.4871 -0.1284
 1398TIP3   OH228388   4.722   1.433  18.689  0.2313  0.3688 -0.3834
 1398TIP3    H128389   4.766   1.518  18.688  0.4684  0.3676  2.4444
 1398TIP3    H228390   4.735   1.400  18.778 -0.7276 -2.1871 -1.1038
 1399TIP3   OH228391   2.120   2.915  16.386 -0.5267 -0.1613 -0.0283
 1399TIP3    H128392   2.144   3.008  16.394 -0.8810  0.1400 -1.8792
 1399TIP3    H228393   2.188   2.868  16.434  1.9801  0.8512 -2.3493
 1400TIP3   OH228394   6.693   1.500  16.719  0.2782 -0.0320  0.1909
 1400TIP3    H128395   6.649   1.415  16.713 -0.3902  0.3515 -0.6926
 1400TIP3    H228396   6.635   1.552  16.774  0.3667  0.0356  0.2182
 1401TIP3   OH228397   4.174   0.146  19.093  0.5570 -0.1742  0.1098
 1401TIP3    H128398   4.248   0.106  19.047  0.3830  0.3397 -0.6258
 1401TIP3    H228399   4.100   0.088  19.075  0.5672 -0.1629  0.0304
 1402TIP3   OH228400   5.068   3.800  18.678  0.2867  1.1855 -0.0040
 1402TIP3    H128401   4.993   3.823  18.733  0.1358  1.1132 -0.1782
 1402TIP3    H228402   5.096   3.884  18.641  1.9897  1.6666  2.1597
 1403TIP3   OH228403   6.701   1.981  15.985  0.3101  0.0728  0.4653
 1403TIP3    H128404   6.661   1.899  15.956 -0.2692 -0.2539  2.0936
 1403TIP3    H228405   6.787   1.955  16.020  0.8494  0.4080 -0.5830
 1404TIP3   OH228406   2.234   1.234  16.924 -0.1444 -0.1256 -0.3620
 1404TIP3    H128407   2.141   1.219  16.904 -0.4586  1.4038 -0.1904
 1404TIP3    H228408   2.272   1.146  16.926 -1.3314 -0.7139 -1.6349
 1405TIP3   OH228409   6.939   0.609  16.736 -0.3130  0.5600 -0.0224
 1405TIP3    H128410   7.007   0.571  16.680  1.5577  2.1024  1.0533
 1405TIP3    H228411   6.925   0.697  16.700 -1.0081  0.6232  0.3834
 1406TIP3   OH228412   5.599   4.354  18.443 -0.3842  0.3948  0.2008
 1406TIP3    H128413   5.679   4.308  18.467 -0.3122 -0.3006 -1.2639
 1406TIP3    H228414   5.533   4.285  18.436 -1.4123  1.0632  2.3845
 1407TIP3   OH228415   0.026   6.461  17.088  0.0577 -0.0019  0.3222
 1407TIP3    H128416   0.059   6.373  17.071  0.4578  0.3330 -0.6992
 1407TIP3    H228417   0.066   6.516  17.020 -1.5295  0.6595 -0.1364
 1408TIP3   OH228418   3.096   3.326  18.694 -0.4512  1.0200 -0.2200
 1408TIP3    H128419   3.166   3.282  18.647 -2.0663 -1.3413 -0.5943
 1408TIP3    H228420   3.071   3.399  18.638  1.5944  1.8928 -0.0920
 1409TIP3   OH228421   4.812   7.485  17.792 -0.6089  0.0802  0.6276
 1409TIP3    H128422   4.834   7.577  17.806 -1.1105  0.1367  1.1011
 1409TIP3    H228423   4.717   7.484  17.781 -0.8057 -0.5234  2.0539
 1410TIP3   OH228424   3.878   6.094  18.989  0.2393  0.2677  0.3726
 1410TIP3    H128425   3.961   6.139  19.004  0.1452  0.2847  0.8624
 1410TIP3    H228426   3.824   6.118  19.064  0.4337 -1.2482  1.0320
 1411TIP3   OH228427   4.156   1.173  17.851 -0.5204  0.4093 -0.1631
 1411TIP3    H128428   4.131   1.264  17.836  2.4518  1.4506  0.4781
 1411TIP3    H228429   4.150   1.132  17.765  1.4780  2.2110 -1.2785
 1412TIP3   OH228430   3.663   3.379  17.779  0.0415  0.5746  0.5614
 1412TIP3    H128431   3.606   3.325  17.724  1.5648 -0.5039 -0.0301
 1412TIP3    H228432   3.747   3.334  17.777  0.9024  2.0745  1.4852
 1413TIP3   OH228433   1.892   3.705  17.014 -0.6686 -0.0685  0.2525
 1413TIP3    H128434   1.916   3.793  16.984  0.9913 -1.1476 -1.9045
 1413TIP3    H228435   1.801   3.713  17.043 -1.2482  1.9282 -1.8355
 1414TIP3   OH228436   4.419   0.578  16.956  0.1557  0.2128 -0.6349
 1414TIP3    H128437   4.410   0.559  16.863  0.3580 -0.0021 -0.6127
 1414TIP3    H228438   4.342   0.631  16.978 -1.3157 -1.8653 -0.3691
 1415TIP3   OH228439   6.869   5.677  18.729  0.3496  0.3987  0.5087
 1415TIP3    H128440   6.778   5.648  18.720  0.4063 -0.2632  1.8677
 1415TIP3    H228441   6.876   5.752  18.671 -0.7430 -0.2498 -0.5086
 1416TIP3   OH228442   2.603   6.007  19.188 -0.3580 -0.4896 -0.0709
 1416TIP3    H128443   2.625   5.916  19.167  1.0181 -0.5287  1.3083
 1416TIP3    H228444   2.536   6.000  19.255  0.1334 -0.5233  0.4278
 1417TIP3   OH228445   2.346   6.300  18.095 -0.3077 -0.4192  0.1624
 1417TIP3    H128446   2.414   6.324  18.032  0.4049 -3.1873 -0.2429
 1417TIP3    H228447   2.264   6.313  18.047  0.0790  0.0752 -0.3833
 1418TIP3   OH228448   6.157   0.621  17.159 -0.5333 -0.0034 -0.8203
 1418TIP3    H128449   6.066   0.650  17.167 -0.6681 -0.3627 -1.0086
 1418TIP3    H228450   6.156   0.532  17.196 -0.0711  0.3339  0.0212
 1419TIP3   OH228451   1.501   6.720  17.457 -0.5495 -0.2713 -0.2314
 1419TIP3    H128452   1.595   6.720  17.441 -0.4521  0.8876  0.2861
 1419TIP3    H228453   1.469   6.802  17.419 -1.3699 -0.6997 -0.4975
 1420TIP3   OH228454   7.443   3.832  17.575  0.1411 -0.4104  0.3528
 1420TIP3    H128455   7.464   3.747  17.537 -1.3586 -0.4398 -0.4716
 1420TIP3    H228456   7.460   3.821  17.669 -0.2066 -1.6778  0.2855
 1421TIP3   OH228457   2.193   4.635  16.583 -0.2222  0.0212 -0.1722
 1421TIP3    H128458   2.171   4.670  16.497 -3.1092  0.2047  0.5289
 1421TIP3    H228459   2.287   4.619  16.579  0.2226  2.4885 -2.4403
 1422TIP3   OH228460   3.771   3.346  18.235 -0.5062  0.0662 -0.2920
 1422TIP3    H128461   3.816   3.262  18.222 -1.0787 -0.2087 -0.5553
 1422TIP3    H228462   3.837   3.412  18.218 -0.0085 -0.3339  0.0531
 1423TIP3   OH228463   2.217   1.264  16.492 -0.2991 -0.3989 -0.1032
 1423TIP3    H128464   2.311   1.278  16.483  0.6538 -3.1436  3.2384
 1423TIP3    H228465   2.187   1.335  16.548 -0.5360  1.1168 -2.0710
 1424TIP3   OH228466   0.342   1.144  16.708  0.3580 -0.3115 -0.1241
 1424TIP3    H128467   0.363   1.077  16.643 -1.5679 -0.6490 -0.4722
 1424TIP3    H228468   0.247   1.137  16.718  0.6231 -0.6617  3.1522
 1425TIP3   OH228469   4.446   3.911  18.073  0.0598  0.2117 -0.0242
 1425TIP3    H128470   4.461   3.951  18.158  0.4709 -1.4014  0.7045
 1425TIP3    H228471   4.511   3.951  18.015 -0.0457  1.1215  0.4770
 1426TIP3   OH228472   4.214   6.212  17.041  0.0892  0.0710  0.3214
 1426TIP3    H128473   4.190   6.124  17.011 -4.3809  1.7689 -1.9588
 1426TIP3    H228474   4.168   6.223  17.124 -0.2038  0.5690  0.0973
 1427TIP3   OH228475   6.066   1.200  17.896  0.7156 -0.8218  0.4750
 1427TIP3    H128476   6.086   1.128  17.956  0.0523  0.2224  2.0142
 1427TIP3    H228477   6.088   1.279  17.945  0.1421  0.0757 -0.6638
 1428TIP3   OH228478   3.432   4.821  17.204  0.0170  0.3892 -0.2960
 1428TIP3    H128479   3.357   4.762  17.210 -0.2517  0.6548 -0.9279
 1428TIP3    H228480   3.459   4.835  17.295 -0.6042  0.1706 -0.0725
 1429TIP3   OH228481   5.457   1.890  17.689 -0.5562  0.2189  0.0942
 1429TIP3    H128482   5.428   1.804  17.720 -0.6071  0.1957 -0.0162
 1429TIP3    H228483   5.525   1.870  17.625 -1.1061  0.2327 -0.5006
 1430TIP3   OH228484   4.981   5.017  18.813 -0.3944  0.0506  0.2651
 1430TIP3    H128485   5.023   5.096  18.780 -2.0452  0.6008 -0.6523
 1430TIP3    H228486   4.985   5.026  18.908  0.1057  0.8632  0.1812
 1431TIP3   OH228487   2.758   4.282  18.602 -0.5549  0.1895 -0.2169
 1431TIP3    H128488   2.743   4.208  18.662 -0.8068 -0.0043 -0.5123
 1431TIP3    H228489   2.670   4.318  18.587 -0.5076  0.1607 -0.5629
 1432TIP3   OH228490   3.658   1.616  15.992 -0.0338 -0.9550  0.9034
 1432TIP3    H128491   3.665   1.664  15.910  2.6105 -1.1213  0.9380
 1432TIP3    H228492   3.613   1.676  16.052 -2.7554 -1.1343 -0.7870
 1433TIP3   OH228493   5.243   1.160  16.924 -0.3431  0.2307  0.9896
 1433TIP3    H128494   5.174   1.219  16.953  0.9093  1.1022  2.3255
 1433TIP3    H228495   5.207   1.072  16.938 -1.8840  0.6311 -0.1880
 1434TIP3   OH228496   0.435   1.703  17.103  0.1327 -0.2033 -0.2306
 1434TIP3    H128497   0.383   1.719  17.025  1.8323 -0.3378 -1.4316
 1434TIP3    H228498   0.376   1.656  17.162 -2.1070  2.3358 -0.2221
 1435TIP3   OH228499   4.176   1.203  15.965 -0.4609  0.3050  0.3851
 1435TIP3    H128500   4.208   1.238  16.048 -0.3517  2.7181 -0.5928
 1435TIP3    H228501   4.087   1.175  15.984  0.2529 -1.1881  1.7771
 1436TIP3   OH228502   0.714   3.802  17.721  0.1927  0.0941 -0.1768
 1436TIP3    H128503   0.802   3.786  17.687  0.5994  0.9140  0.4469
 1436TIP3    H228504   0.691   3.722  17.767 -0.2731 -0.9492 -2.1171
 1437TIP3   OH228505   2.913   0.290  16.922  0.4076  0.1391  0.0700
 1437TIP3    H128506   2.938   0.327  16.838 -0.3510  0.4848 -0.0040
 1437TIP3    H228507   2.823   0.259  16.910  1.0395 -1.8268  0.0979
 1438TIP3   OH228508   3.435   0.462  18.452  0.0210 -0.0348  0.0273
 1438TIP3    H128509   3.395   0.418  18.377  1.4215 -1.2861 -0.0282
 1438TIP3    H228510   3.426   0.401  18.525  1.9496 -0.4792 -0.0365
 1439TIP3   OH228511   5.988   3.898  16.749 -0.6070 -0.0455  0.0146
 1439TIP3    H128512   5.970   3.827  16.811  2.6508 -0.9605  0.0605
 1439TIP3    H228513   5.904   3.911  16.703 -1.6371 -3.1392  0.7696
 1440TIP3   OH228514   1.277   3.396  17.797 -0.6769  0.8822 -0.4335
 1440TIP3    H128515   1.188   3.386  17.833 -0.3909  0.3953  0.1581
 1440TIP3    H228516   1.303   3.307  17.773 -0.1159  0.9372 -0.0387
 1441TIP3   OH228517   3.001   7.002  16.175 -0.0400  0.1645 -0.3531
 1441TIP3    H128518   3.092   6.986  16.201 -0.1155  2.5033  1.7617
 1441TIP3    H228519   3.005   7.023  16.082  1.4821 -0.4125 -0.4376
 1442TIP3   OH228520   2.528   6.792  16.537 -0.3651 -0.4881 -0.0883
 1442TIP3    H128521   2.480   6.710  16.523  0.1253 -0.6073 -1.1686
 1442TIP3    H228522   2.609   6.781  16.488 -0.1747  0.5396 -0.0226
 1443TIP3   OH228523   0.222   1.294  18.095  0.0765 -0.6260 -0.2282
 1443TIP3    H128524   0.172   1.250  18.026 -0.2943  2.1936 -1.9424
 1443TIP3    H228525   0.171   1.281  18.174 -1.2461 -1.2555 -1.1479
 1444TIP3   OH228526   2.144   3.587  18.411  0.1718 -0.2709 -0.4072
 1444TIP3    H128527   2.128   3.656  18.476 -0.8805 -0.0592 -0.8641
 1444TIP3    H228528   2.200   3.627  18.346  0.4141 -0.1706 -0.1381
 1445TIP3   OH228529   4.139   6.206  17.574  0.4482 -0.4016 -0.2488
 1445TIP3    H128530   4.068   6.143  17.585  0.1971 -0.1725 -0.5452
 1445TIP3    H228531   4.202   6.183  17.642 -0.6302  0.3906  1.0703
 1446TIP3   OH228532   1.133   3.052  18.404 -0.0985 -0.2559  0.1738
 1446TIP3    H128533   1.170   3.087  18.485  1.3577  0.7126 -0.8713
 1446TIP3    H228534   1.039   3.067  18.413  0.1070  0.4297  1.4000
 1447TIP3   OH228535   6.340   6.889  17.023  0.4670  0.2158 -0.4667
 1447TIP3    H128536   6.322   6.875  16.930 -0.7046  0.2213 -0.2613
 1447TIP3    H228537   6.350   6.983  17.032 -0.3936  0.3162 -0.4443
 1448TIP3   OH228538   3.002   2.809  17.950 -0.2455 -0.3932  0.1343
 1448TIP3    H128539   3.074   2.784  17.893 -0.9859 -0.3872 -0.8167
 1448TIP3    H228540   3.042   2.869  18.014  0.7550 -1.0567  0.1489
 1449TIP3   OH228541   5.366   2.453  16.547 -0.1340  0.0625  0.0585
 1449TIP3    H128542   5.363   2.497  16.462  2.2678  0.7175  0.2465
 1449TIP3    H228543   5.458   2.430  16.560 -0.2057  0.9132  2.9179
 1450TIP3   OH228544   2.442   2.144  18.103 -0.0840  0.1498 -0.0174
 1450TIP3    H128545   2.452   2.105  18.016 -1.9571  2.5717 -1.4437
 1450TIP3    H228546   2.352   2.124  18.128 -0.1747  1.1346  0.4772
 1451TIP3   OH228547   3.915   7.304  18.875  0.4095 -0.0659 -0.6105
 1451TIP3    H128548   3.927   7.227  18.820  1.2380 -0.1106 -0.3739
 1451TIP3    H228549   3.823   7.299  18.903  0.7134 -1.5312  0.2258
 1452TIP3   OH228550   2.442   6.356  18.358 -0.1652 -0.4591  0.4781
 1452TIP3    H128551   2.518   6.404  18.326  1.8001 -2.5859  1.7465
 1452TIP3    H228552   2.375   6.371  18.291  2.2106 -0.7970 -2.1455
 1453TIP3   OH228553   1.585   4.683  18.180 -0.1669  0.2477  0.1924
 1453TIP3    H128554   1.680   4.687  18.168 -0.2250  0.2101 -0.3006
 1453TIP3    H228555   1.570   4.602  18.229 -0.1367 -1.0327 -1.8142
 1454TIP3   OH228556   6.517   6.972  18.025  0.5011 -0.1002 -0.4039
 1454TIP3    H128557   6.582   6.928  18.080  0.1513 -1.8177 -1.2900
 1454TIP3    H228558   6.556   7.058  18.006  2.5032 -1.0476 -0.8401
 1455TIP3   OH228559   6.227   5.139  16.360  0.0402 -0.1032 -1.3669
 1455TIP3    H128560   6.293   5.105  16.300 -0.3889 -2.7489 -0.4481
 1455TIP3    H228561   6.233   5.084  16.437 -1.7254  1.0389 -0.3314
 1456TIP3   OH228562   6.660   3.441  18.470 -0.5968  0.0751  0.5110
 1456TIP3    H128563   6.742   3.459  18.516  0.5010  0.1159 -1.3387
 1456TIP3    H228564   6.599   3.414  18.538  0.5364  1.4143  2.1325
 1457TIP3   OH228565   3.953   3.045  17.042  0.5439  0.3454 -0.9389
 1457TIP3    H128566   3.970   3.135  17.016 -2.6480  0.8944 -1.5826
 1457TIP3    H228567   4.035   3.014  17.079  2.3056  2.8474 -2.5063
 1458TIP3   OH228568   5.825   1.920  17.933  0.2886  0.4931  0.3078
 1458TIP3    H128569   5.736   1.891  17.950 -0.7278  1.2724 -2.9563
 1458TIP3    H228570   5.824   2.014  17.954 -0.5703  1.1357 -2.1703
 1459TIP3   OH228571   1.156   2.148  16.610 -0.1850 -0.1968  0.3413
 1459TIP3    H128572   1.084   2.208  16.631 -0.3761 -0.7108  1.2197
 1459TIP3    H228573   1.167   2.156  16.515 -0.9486  0.3854  0.2869
 1460TIP3   OH228574   2.275   4.698  16.916  0.1016  0.3442 -0.0433
 1460TIP3    H128575   2.305   4.611  16.892 -0.1204  0.6607 -1.6317
 1460TIP3    H228576   2.329   4.758  16.863  0.7825  1.2232  1.5907
 1461TIP3   OH228577   3.129   4.193  17.145  0.0672  0.2309 -0.4457
 1461TIP3    H128578   3.188   4.252  17.098  0.0943  0.8900  0.3730
 1461TIP3    H228579   3.052   4.184  17.088  0.4650  0.3017 -0.9989
 1462TIP3   OH228580   7.000   6.650  17.208 -0.4516 -0.4825 -0.3336
 1462TIP3    H128581   7.011   6.732  17.257  4.4779 -1.5912  0.9963
 1462TIP3    H228582   7.054   6.662  17.130 -4.5269 -0.4727 -3.4868
 1463TIP3   OH228583   1.112   1.735  16.630  0.4614 -0.2393  0.5797
 1463TIP3    H128584   1.097   1.647  16.665 -0.5094 -0.0789  0.6093
 1463TIP3    H228585   1.071   1.733  16.544 -0.1628  0.3788  0.8536
 1464TIP3   OH228586   3.911   6.573  16.823  0.2028 -0.4847 -0.4687
 1464TIP3    H128587   3.955   6.595  16.905 -1.2674  1.9212 -0.2375
 1464TIP3    H228588   3.976   6.523  16.774  2.3725  0.9674  0.7613
 1465TIP3   OH228589   6.434   5.801  17.158  0.4573 -0.1391 -0.1136
 1465TIP3    H128590   6.398   5.731  17.105  1.0116  0.4638 -1.3217
 1465TIP3    H228591   6.503   5.759  17.210  1.6523 -0.2914 -1.7435
 1466TIP3   OH228592   2.805   7.353  17.866  0.7831 -0.1193  0.2525
 1466TIP3    H128593   2.830   7.400  17.787  0.0335 -1.2579 -0.7110
 1466TIP3    H228594   2.883   7.305  17.892  0.3457 -1.8759 -1.4231
 1467TIP3   OH228595   7.457   5.844  19.219 -0.4917 -0.4573 -0.5301
 1467TIP3    H128596   7.508   5.763  19.224  0.7475  0.1939 -1.8596
 1467TIP3    H228597   7.503   5.898  19.155 -1.9775  0.8269 -0.5924
 1468TIP3   OH228598   1.843   3.132  16.716  0.3968  0.1099  0.7017
 1468TIP3    H128599   1.898   3.074  16.663 -0.0777 -0.8423  1.2289
 1468TIP3    H228600   1.831   3.086  16.799 -1.1416  0.3097  0.6312
 1469TIP3   OH228601   6.603   3.958  16.881 -0.0706 -0.2241  0.3381
 1469TIP3    H128602   6.527   3.904  16.901 -0.2414 -0.4770 -0.9116
 1469TIP3    H228603   6.656   3.955  16.960 -0.5359 -1.4417  0.6258
 1470TIP3   OH228604   4.027   2.709  17.518  0.1053 -0.0128  0.1116
 1470TIP3    H128605   4.117   2.679  17.536  0.5096  1.9978  1.8509
 1470TIP3    H228606   3.973   2.658  17.578  0.1369 -0.7848 -0.5004
 1471TIP3   OH228607   1.445   5.211  18.100  0.0560 -0.5830  0.4002
 1471TIP3    H128608   1.441   5.116  18.095 -0.8794 -0.5844  0.8407
 1471TIP3    H228609   1.532   5.230  18.135  1.0634 -1.1603 -1.6808
 1472TIP3   OH228610   2.839   4.849  17.417  0.1208 -0.6178 -0.2602
 1472TIP3    H128611   2.763   4.791  17.428  0.8685 -1.7236 -0.6951
 1472TIP3    H228612   2.802   4.930  17.383 -1.0715 -0.4930  1.2353
 1473TIP3   OH228613   0.543   1.683  16.579 -0.4322  0.2117  0.1438
 1473TIP3    H128614   0.477   1.617  16.603 -0.3344  0.7013  1.8457
 1473TIP3    H228615   0.618   1.631  16.549 -1.4465 -0.3574 -1.5323
 1474TIP3   OH228616   5.503   0.931  16.712  0.1359  0.4844  0.7452
 1474TIP3    H128617   5.506   0.885  16.797 -0.1731 -2.5890 -0.7669
 1474TIP3    H228618   5.411   0.928  16.687  0.2828  1.0670  0.1154
 1475TIP3   OH228619   5.637   6.809  16.367 -0.4065 -0.3969  0.7449
 1475TIP3    H128620   5.624   6.818  16.462  1.4652  1.8391  0.8698
 1475TIP3    H228621   5.707   6.871  16.346  0.6208 -2.2541 -1.8207
 1476TIP3   OH228622   2.305   6.953  17.201 -0.8693  0.1985  0.1486
 1476TIP3    H128623   2.235   6.905  17.244 -0.5003  0.7858  1.4765
 1476TIP3    H228624   2.381   6.941  17.258  0.0663 -0.2320 -1.1416
 1477TIP3   OH228625   0.893   6.328  18.995 -0.6192  0.2625  0.2906
 1477TIP3    H128626   0.845   6.409  19.014 -2.5041 -0.1914 -2.0171
 1477TIP3    H228627   0.941   6.347  18.914 -1.3868 -1.0007 -0.4859
 1478TIP3   OH228628   0.399   4.041  17.773  0.0569  0.0364  0.4419
 1478TIP3    H128629   0.411   3.959  17.726  0.7668 -0.0055  0.6803
 1478TIP3    H228630   0.346   4.018  17.849 -0.8785  0.0573 -0.1897
 1479TIP3   OH228631   3.509   1.696  17.714  0.0285 -0.2127  0.0796
 1479TIP3    H128632   3.498   1.665  17.624 -0.5121 -1.9866  0.7128
 1479TIP3    H228633   3.501   1.617  17.768  0.5969  0.7686  1.6786
 1480TIP3   OH228634   3.519   5.625  18.603 -0.3160 -0.3651  0.0679
 1480TIP3    H128635   3.485   5.608  18.515  1.6475  0.1824 -0.8670
 1480TIP3    H228636   3.530   5.720  18.607 -0.0614 -0.4187  0.7627
 1481TIP3   OH228637   1.200   2.832  18.251 -0.3981  0.3326 -0.1991
 1481TIP3    H128638   1.199   2.902  18.316  0.9300  1.4986 -1.3604
 1481TIP3    H228639   1.236   2.757  18.297  0.6785  1.1824  0.3880
 1482TIP3   OH228640   0.577   4.029  16.734  0.9729 -0.2303  0.0456
 1482TIP3    H128641   0.566   4.092  16.663 -0.0110 -1.3472 -0.8410
 1482TIP3    H228642   0.586   3.944  16.690 -0.1637 -1.0192  1.2424
 1483TIP3   OH228643   6.753   0.929  15.882  0.1927 -0.0295 -0.7591
 1483TIP3    H128644   6.816   0.946  15.953  1.2736  1.7793 -2.0668
 1483TIP3    H228645   6.756   0.834  15.870  0.8272 -0.2434  0.8480
 1484TIP3   OH228646   3.380   3.805  18.306  0.5890 -0.0948 -0.3899
 1484TIP3    H128647   3.383   3.716  18.339  1.5025 -0.1064 -0.4769
 1484TIP3    H228648   3.290   3.817  18.276  0.0919 -0.5198  0.8824
 1485TIP3   OH228649   7.174   6.914  16.708 -0.2788 -0.0912 -0.2892
 1485TIP3    H128650   7.210   6.914  16.619 -0.2635  0.4051 -0.2852
 1485TIP3    H228651   7.090   6.869  16.700  0.7596 -2.1823 -0.1154
 1486TIP3   OH228652   1.898   1.915  17.895 -0.7233 -0.0805  0.1039
 1486TIP3    H128653   1.812   1.926  17.936 -1.4530  0.2331 -1.4599
 1486TIP3    H228654   1.937   2.002  17.899  0.1428 -0.4844  2.0226
 1487TIP3   OH228655   2.278   2.679  16.208 -0.3063 -0.9950  0.0027
 1487TIP3    H128656   2.300   2.771  16.194  0.2589 -0.9345  1.1462
 1487TIP3    H228657   2.352   2.631  16.172 -1.7712 -1.2067 -3.1052
 1488TIP3   OH228658   1.439   5.603  16.501 -0.0922 -0.2105 -0.1781
 1488TIP3    H128659   1.443   5.583  16.594 -1.8189  2.6884  0.6568
 1488TIP3    H228660   1.528   5.630  16.478  0.0103  0.5354  1.0448
 1489TIP3   OH228661   3.187   6.570  18.473 -0.0747  0.4516 -0.0485
 1489TIP3    H128662   3.231   6.624  18.407 -1.3241  0.2074 -1.1494
 1489TIP3    H228663   3.123   6.629  18.513  0.4750  0.5171  0.7507
 1490TIP3   OH228664   3.651   2.136  16.013 -0.1008 -0.1321 -0.1806
 1490TIP3    H128665   3.607   2.179  16.086  1.2913  1.0954 -0.0109
 1490TIP3    H228666   3.581   2.101  15.958 -1.2776  1.8216  0.0183
 1491TIP3   OH228667   2.869   2.134  17.206  0.8820 -0.4117 -0.3904
 1491TIP3    H128668   2.924   2.173  17.273  0.3476 -0.0334 -0.1744
 1491TIP3    H228669   2.929   2.076  17.157  1.4523 -0.0576 -0.1173
 1492TIP3   OH228670   0.273   3.726  18.101  0.2723  0.0471 -0.1747
 1492TIP3    H128671   0.368   3.732  18.094  0.3518 -0.3193  0.5181
 1492TIP3    H228672   0.257   3.637  18.131 -0.4867 -1.1596 -3.6334
 1493TIP3   OH228673   7.649   1.134  18.341  0.1138 -0.0358  0.4394
 1493TIP3    H128674   7.685   1.046  18.348  0.8301  0.0437 -1.6413
 1493TIP3    H228675   7.557   1.125  18.368  0.8217 -0.8379  2.8745
 1494TIP3   OH228676   3.685   0.198  16.376  0.2671 -0.0962  0.0611
 1494TIP3    H128677   3.687   0.247  16.294  0.6742 -0.6894 -0.2865
 1494TIP3    H228678   3.601   0.222  16.416 -0.0773 -0.0519 -0.6785
 1495TIP3   OH228679   0.168   2.540  17.375  0.0291 -0.3149 -0.0466
 1495TIP3    H128680   0.099   2.484  17.338  0.8108 -1.5271  0.2864
 1495TIP3    H228681   0.250   2.496  17.350  0.6636  0.6906  0.2275
 1496TIP3   OH228682   7.479   7.369  16.043  0.9068 -0.5165  0.3076
 1496TIP3    H128683   7.568   7.398  16.063  0.7338 -0.6186  1.2927
 1496TIP3    H228684   7.423   7.432  16.089  0.4877 -0.9370  0.3788
 1497TIP3   OH228685   3.118   3.906  18.359  0.3171  0.3250  0.3867
 1497TIP3    H128686   3.026   3.881  18.345  1.2423 -3.9400  0.5935
 1497TIP3    H228687   3.135   3.971  18.292 -2.6138  0.6135 -0.2387
 1498TIP3   OH228688   0.864   6.827  16.401  0.8023 -0.2461 -0.2746
 1498TIP3    H128689   0.920   6.787  16.334  0.2055  0.2534 -1.0831
 1498TIP3    H228690   0.776   6.819  16.367  0.4508 -0.2759  0.6121
 1499TIP3   OH228691   4.860   4.301  17.432  0.6289  0.3416 -0.3129
 1499TIP3    H128692   4.909   4.294  17.514  0.5849  1.6469 -0.1456
 1499TIP3    H228693   4.925   4.285  17.364  1.2002  1.4766 -0.0715
 1500TIP3   OH228694   1.767   2.730  16.806  0.0744 -0.0203 -0.0733
 1500TIP3    H128695   1.839   2.760  16.750 -0.0988 -2.3589 -1.6908
 1500TIP3    H228696   1.793   2.642  16.833 -2.0923 -0.8596 -0.5720
 1501TIP3   OH228697   4.242   0.837  16.859  0.3791  0.1369 -0.1328
 1501TIP3    H128698   4.337   0.844  16.850  0.3997  2.2453  1.0069
 1501TIP3    H228699   4.208   0.897  16.793 -0.1776 -0.3937 -0.3370
 1502TIP3   OH228700   4.712   5.340  19.064 -0.1635 -0.4399  0.1580
 1502TIP3    H128701   4.626   5.342  19.022  0.3551 -0.4433 -0.9553
 1502TIP3    H228702   4.766   5.398  19.010  0.5644 -0.5563  0.7516
 1503TIP3   OH228703   0.336   5.316  17.309 -0.3290  0.4081  0.7048
 1503TIP3    H128704   0.250   5.325  17.269  0.7803  1.0384 -1.7321
 1503TIP3    H228705   0.358   5.404  17.340 -0.8421  0.0878  2.0541
 1504TIP3   OH228706   2.978   1.631  16.457 -0.1542 -0.6835  1.0058
 1504TIP3    H128707   2.975   1.716  16.413 -0.9878 -0.8623  0.6942
 1504TIP3    H228708   2.962   1.567  16.388  2.7707 -1.3159  0.7619
 1505TIP3   OH228709   2.671   3.945  16.354  0.0930  0.5300 -0.1620
 1505TIP3    H128710   2.648   3.857  16.383 -0.0869  0.0201 -1.7458
 1505TIP3    H228711   2.767   3.946  16.354  0.0964  0.2728 -0.2658
 1506TIP3   OH228712   6.583   5.483  17.539  0.3094 -0.3484  0.0699
 1506TIP3    H128713   6.663   5.533  17.555  1.0007 -1.5192  0.4281
 1506TIP3    H228714   6.585   5.461  17.446 -0.1865  0.5869 -0.1709
 1507TIP3   OH228715   5.378   0.199  18.543 -0.0627 -0.0184  0.5265
 1507TIP3    H128716   5.317   0.184  18.616 -1.8816  0.4643 -0.8200
 1507TIP3    H228717   5.430   0.119  18.539 -1.5550 -1.0576  0.8832
 1508TIP3   OH228718   4.620   2.454  16.912 -0.2678 -0.5331 -0.2060
 1508TIP3    H128719   4.622   2.358  16.909  0.4543 -0.5089 -0.5624
 1508TIP3    H228720   4.531   2.477  16.885 -0.2542 -1.0795 -0.7372
 1509TIP3   OH228721   7.491   3.121  18.329 -0.2216  0.1801  0.6969
 1509TIP3    H128722   7.565   3.065  18.305  1.9952  2.3991  1.8259
 1509TIP3    H228723   7.514   3.207  18.295 -4.1641  0.3667 -2.2265
 1510TIP3   OH228724   0.970   6.853  15.940  0.2731 -0.1684  0.2647
 1510TIP3    H128725   0.984   6.943  15.910  1.9204 -0.9878 -1.7102
 1510TIP3    H228726   0.875   6.846  15.953 -0.2015  1.1993 -1.9472
 1511TIP3   OH228727   5.643   6.573  16.734 -0.0714  0.5314 -0.0793
 1511TIP3    H128728   5.710   6.641  16.742  0.0678  0.5170 -1.0216
 1511TIP3    H228729   5.677   6.514  16.667 -0.6488  0.0656  0.0316
 1512TIP3   OH228730   0.464   3.945  18.622  0.3080  0.1038 -0.1263
 1512TIP3    H128731   0.512   3.900  18.552  0.5610  1.0412 -0.5692
 1512TIP3    H228732   0.389   3.888  18.639  1.0592 -0.9030 -0.0873
 1513TIP3   OH228733   5.810   4.923  17.058  0.0139 -0.3060  0.2693
 1513TIP3    H128734   5.831   4.995  17.117  0.5908  0.4526 -0.8404
 1513TIP3    H228735   5.868   4.852  17.085 -1.4248 -0.8658  2.2088
 1514TIP3   OH228736   3.740   3.414  16.118 -0.3671 -0.4804  0.4644
 1514TIP3    H128737   3.655   3.403  16.075 -0.8257 -2.5300  1.7756
 1514TIP3    H228738   3.720   3.414  16.212  0.8072  2.1124  0.8233
 1515TIP3   OH228739   4.805   7.214  18.118  0.0305  0.0285  0.3942
 1515TIP3    H128740   4.838   7.248  18.035 -0.9615  0.1238  0.0317
 1515TIP3    H228741   4.809   7.119  18.109 -0.1948  0.0379  0.1873
 1516TIP3   OH228742   7.433   5.647  17.680  0.1065  0.3646  0.5220
 1516TIP3    H128743   7.339   5.650  17.697  0.1683 -0.0718  0.9752
 1516TIP3    H228744   7.451   5.555  17.661  0.7162  0.1126  2.1679
 1517TIP3   OH228745   6.688   7.496  17.973 -0.3522 -0.0692 -0.0622
 1517TIP3    H128746   6.694   7.583  18.014  0.0143 -0.6936  1.2618
 1517TIP3    H228747   6.608   7.501  17.921  0.3866  1.5026 -1.1405
 1518TIP3   OH228748   2.317   0.634  17.413  0.2225 -0.9746  0.1005
 1518TIP3    H128749   2.239   0.617  17.466 -1.8392 -0.3602 -2.5527
 1518TIP3    H228750   2.315   0.567  17.345  1.4852 -0.3422 -0.5804
 1519TIP3   OH228751   3.070   1.625  17.869  0.5527  0.1278  0.1798
 1519TIP3    H128752   3.137   1.685  17.835  0.3130  0.2188 -0.1332
 1519TIP3    H228753   2.988   1.658  17.834  0.2968  0.2279  0.8548
 1520TIP3   OH228754   6.629   4.415  17.811  0.4288 -0.4381 -0.3133
 1520TIP3    H128755   6.602   4.438  17.722  0.6874 -1.4447 -0.6558
 1520TIP3    H228756   6.706   4.360  17.800  0.0082 -1.2071  0.5107
 1521TIP3   OH228757   2.585   2.700  17.124 -0.4220 -0.1015 -0.2886
 1521TIP3    H128758   2.658   2.758  17.102 -0.8135  1.0829  1.3287
 1521TIP3    H228759   2.510   2.739  17.078 -0.7827  1.0391  1.1739
 1522TIP3   OH228760   0.540   6.476  17.900 -0.5508  0.7519 -0.4827
 1522TIP3    H128761   0.534   6.460  17.994  1.0880 -2.6037 -0.8154
 1522TIP3    H228762   0.452   6.458  17.867 -0.3887 -1.3688  0.0897
 1523TIP3   OH228763   5.057   0.058  16.550 -0.8001 -0.0719  0.3056
 1523TIP3    H128764   4.985   0.121  16.545 -0.9098 -0.1943  0.3362
 1523TIP3    H228765   5.027  -0.017  16.497 -1.5096 -0.9278  1.8441
 1524TIP3   OH228766   0.676   6.701  17.779 -0.2534  0.1211 -0.4012
 1524TIP3    H128767   0.756   6.649  17.779  0.1150  0.6625  0.4318
 1524TIP3    H228768   0.614   6.649  17.831 -0.7681 -0.7430 -1.8270
 1525TIP3   OH228769   7.311   7.468  18.313  0.0790 -0.1824  0.1249
 1525TIP3    H128770   7.300   7.561  18.297 -0.6904 -0.0585  1.1998
 1525TIP3    H228771   7.238   7.445  18.371 -2.0539 -2.2495 -3.0047
 1526TIP3   OH228772   4.806   7.246  18.859 -0.4957 -0.1545 -0.2060
 1526TIP3    H128773   4.794   7.236  18.764 -3.5527 -0.1519  0.0709
 1526TIP3    H228774   4.787   7.338  18.876 -0.6924 -0.3121  0.4599
 1527TIP3   OH228775   2.185   4.944  17.055 -0.2971 -0.1464  0.1629
 1527TIP3    H128776   2.198   4.859  17.013  0.7750 -0.2335  0.6343
 1527TIP3    H228777   2.268   4.991  17.041  0.0807 -0.1618  2.0913
 1528TIP3   OH228778   1.498   0.901  18.600  0.1204 -0.5878  0.0835
 1528TIP3    H128779   1.579   0.934  18.640  1.9316 -0.3272 -3.4403
 1528TIP3    H228780   1.439   0.977  18.598  0.3507 -0.3604  1.2554
 1529TIP3   OH228781   4.045   4.438  17.274 -0.2547 -0.2287 -0.1886
 1529TIP3    H128782   4.006   4.360  17.315 -0.1271 -0.7026 -0.9352
 1529TIP3    H228783   4.098   4.477  17.343  0.1872 -1.1712  0.0348
 1530TIP3   OH228784   2.818   0.658  16.698 -0.1416 -0.0260 -0.3421
 1530TIP3    H128785   2.854   0.573  16.672 -0.0233 -0.0188 -0.2030
 1530TIP3    H228786   2.724   0.641  16.711  0.1784 -0.6264  1.6412
 1531TIP3   OH228787   7.273   0.250  16.279  0.0659 -0.1311 -0.2948
 1531TIP3    H128788   7.212   0.203  16.222 -0.6306 -2.2156  1.9822
 1531TIP3    H228789   7.269   0.341  16.249 -2.2477 -0.6461 -1.8213
 1532TIP3   OH228790   5.321   1.012  17.664 -0.2361 -0.3530 -0.5008
 1532TIP3    H128791   5.259   1.012  17.737 -1.5056  0.7392 -1.5465
 1532TIP3    H228792   5.308   0.926  17.622 -1.2409 -0.0433 -0.8564
 1533TIP3   OH228793   6.412   3.825  18.844 -0.8492 -0.0829 -0.5080
 1533TIP3    H128794   6.413   3.893  18.911 -0.3305  0.9409 -1.5229
 1533TIP3    H228795   6.387   3.870  18.763  1.5754 -0.6009 -1.6528
 1534TIP3   OH228796   4.136   6.644  18.958 -0.2621 -0.0120  0.7777
 1534TIP3    H128797   4.165   6.727  18.996  0.5154  0.2934 -0.4550
 1534TIP3    H228798   4.070   6.669  18.894  0.8308 -0.2166 -0.4664
 1535TIP3   OH228799   4.805   1.662  17.783  0.7993 -0.1873 -0.6693
 1535TIP3    H128800   4.823   1.706  17.866 -0.8614  0.5223 -0.6434
 1535TIP3    H228801   4.855   1.580  17.788 -0.7865 -1.1315  1.9026
 1536TIP3   OH228802   7.518   5.319  17.384  0.6293  0.2751 -0.1281
 1536TIP3    H128803   7.472   5.341  17.465  2.0228  0.0319  0.7583
 1536TIP3    H228804   7.484   5.233  17.360  1.0287 -0.1723  0.8472
 1537TIP3   OH228805   1.132   3.663  17.757  0.0272 -0.4903  0.4594
 1537TIP3    H128806   1.083   3.591  17.717 -1.2442  1.5629 -1.9800
 1537TIP3    H228807   1.179   3.623  17.830 -0.6590 -3.7330 -0.7297
 1538TIP3   OH228808   4.650   3.113  18.496 -0.5281  0.1571  0.1001
 1538TIP3    H128809   4.698   3.149  18.570  2.2863 -0.2130 -1.3902
 1538TIP3    H228810   4.713   3.058  18.450 -3.0350 -2.0891 -0.9167
 1539TIP3   OH228811   4.116   4.992  18.892  0.0945  0.0130  0.0572
 1539TIP3    H128812   4.045   4.950  18.843  0.8400 -2.0442  0.6549
 1539TIP3    H228813   4.148   5.060  18.832  0.5560 -1.9921 -2.1264
 1540TIP3   OH228814   3.605   5.220  17.635  0.6517  0.3559 -0.4927
 1540TIP3    H128815   3.700   5.222  17.628  0.5306  2.9484 -2.3403
 1540TIP3    H228816   3.573   5.255  17.552 -1.9534 -0.5190  0.0356
 1541TIP3   OH228817   0.876   4.969  17.386  0.2940 -0.6817 -0.1489
 1541TIP3    H128818   0.934   4.915  17.440  2.0257  1.6934  0.5154
 1541TIP3    H228819   0.827   5.021  17.449 -1.7959 -1.7815 -0.7573
 1542TIP3   OH228820   0.388   0.309  17.092 -0.1480 -0.0106 -0.9472
 1542TIP3    H128821   0.397   0.404  17.090  3.4243 -0.2218 -0.6800
 1542TIP3    H228822   0.344   0.291  17.176  3.2013  1.3306  1.3160
 1543TIP3   OH228823   3.486   7.566  17.715  0.6022  0.0102 -0.8007
 1543TIP3    H128824   3.525   7.484  17.685  3.1932  1.7344 -2.5295
 1543TIP3    H228825   3.529   7.583  17.799  1.1827  0.2909 -1.1471
 1544TIP3   OH228826   4.009   6.402  16.244  0.2556 -0.3531  0.3548
 1544TIP3    H128827   4.025   6.307  16.241  1.3202 -0.1833  0.1159
 1544TIP3    H228828   4.088   6.440  16.205 -0.1887  0.6313  0.4048
 1545TIP3   OH228829   1.577   1.238  17.138  0.2716  0.0952 -1.2458
 1545TIP3    H128830   1.521   1.243  17.215  1.8536  1.0106 -0.0998
 1545TIP3    H228831   1.627   1.320  17.140  0.7769 -0.1404 -2.9213
 1546TIP3   OH228832   0.145   5.520  18.071  1.0826  0.6732  0.4862
 1546TIP3    H128833   0.193   5.518  17.988  1.2701  1.9054  0.5447
 1546TIP3    H228834   0.064   5.567  18.051  2.0032  2.7685  1.4077
 1547TIP3   OH228835   7.365   0.775  17.121  0.1016 -0.7238  0.3849
 1547TIP3    H128836   7.353   0.681  17.131  1.3794 -0.9253  0.1963
 1547TIP3    H228837   7.429   0.783  17.050 -0.0375  0.2878  0.3617
 1548TIP3   OH228838   0.570   2.116  17.286  0.0427  0.1010 -0.3464
 1548TIP3    H128839   0.481   2.080  17.294 -0.7565  1.3796 -2.6543
 1548TIP3    H228840   0.582   2.169  17.365  0.2804 -2.9668  1.8815
 1549TIP3   OH228841   7.270   7.040  17.470  0.0558 -0.2246  0.2971
 1549TIP3    H128842   7.294   7.109  17.532  1.4811 -0.8437  0.4757
 1549TIP3    H228843   7.201   6.991  17.514  1.1194 -0.7241  1.5076
 1550TIP3   OH228844   4.236   4.110  17.143  0.2667  0.1004 -0.1455
 1550TIP3    H128845   4.305   4.156  17.191  1.1959 -0.1967 -1.1675
 1550TIP3    H228846   4.183   4.180  17.104 -1.1336  0.3912  2.0741
 1551TIP3   OH228847   2.155   1.104  18.584 -0.6731  0.1198 -0.2409
 1551TIP3    H128848   2.091   1.061  18.640 -0.9826  0.7111 -0.1351
 1551TIP3    H228849   2.138   1.198  18.596  1.1648  0.3505  0.9340
 1552TIP3   OH228850   0.094   5.764  17.225 -0.6158 -0.0623  0.7377
 1552TIP3    H128851   0.037   5.803  17.158 -0.2977 -1.0333 -0.1194
 1552TIP3    H228852   0.049   5.683  17.251  0.4535 -0.9522 -0.1055
 1553TIP3   OH228853   6.073   6.226  17.681 -0.1777 -0.0218 -0.0913
 1553TIP3    H128854   6.120   6.174  17.616 -0.4953 -1.3971  0.7351
 1553TIP3    H228855   6.136   6.292  17.709  1.4606 -2.0503  1.2820
 1554TIP3   OH228856   4.997   1.448  16.977  0.5729 -0.6144 -0.4762
 1554TIP3    H128857   4.914   1.490  16.955  0.4528  1.0327  2.5414
 1554TIP3    H228858   4.976   1.355  16.983 -0.7108 -0.3872 -1.0627
 1555TIP3   OH228859   6.623   7.601  18.310 -0.0481 -0.5422  0.1274
 1555TIP3    H128860   6.562   7.598  18.236  0.0638  0.9894 -0.0717
 1555TIP3    H228861   6.699   7.552  18.280  0.5751  1.2059 -1.3785
 1556TIP3   OH228862   0.799   4.162  17.198  0.2056  0.3893 -0.2691
 1556TIP3    H128863   0.846   4.083  17.168  0.0836  0.2246 -0.0308
 1556TIP3    H228864   0.724   4.169  17.140 -1.9363 -1.8454  1.9733
 1557TIP3   OH228865   6.008   1.126  17.534  0.1424 -0.0683  0.4318
 1557TIP3    H128866   5.991   1.095  17.446  0.3600 -1.2516  0.7918
 1557TIP3    H228867   6.076   1.193  17.524  0.6427 -0.6616 -0.2310
 1558TIP3   OH228868   1.419   5.670  17.983  0.5254 -0.1586 -0.5577
 1558TIP3    H128869   1.345   5.722  18.015  1.3007  0.4873  0.2641
 1558TIP3    H228870   1.408   5.585  18.026  0.2020 -0.1024 -0.5241
 1559TIP3   OH228871   3.718   6.727  17.426  0.2861  0.0460 -0.0206
 1559TIP3    H128872   3.735   6.646  17.474  0.7947  1.0084  1.4832
 1559TIP3    H228873   3.804   6.769  17.419 -0.3524  1.8793  1.9313
 1560TIP3   OH228874   2.828   5.531  16.138  0.4469 -0.5634  0.2185
 1560TIP3    H128875   2.904   5.556  16.085 -1.1228 -1.5541 -2.7490
 1560TIP3    H228876   2.853   5.448  16.178  0.7871 -1.0972 -1.0744
 1561TIP3   OH228877   0.473   6.915  18.318  0.6888  0.3113 -0.2643
 1561TIP3    H128878   0.559   6.878  18.302  1.1580  1.6009 -0.9152
 1561TIP3    H228879   0.414   6.866  18.260  1.2968  0.5747 -1.1288
 1562TIP3   OH228880   5.743   7.100  18.115 -0.0931 -0.1918 -0.5343
 1562TIP3    H128881   5.756   7.007  18.135 -0.9077 -0.6801 -2.0889
 1562TIP3    H228882   5.648   7.111  18.114 -0.0079  1.0204  1.0477
 1563TIP3   OH228883   6.018   2.814  18.724 -0.3878 -0.0559  0.1571
 1563TIP3    H128884   5.923   2.809  18.717 -0.2773 -1.7525 -0.6652
 1563TIP3    H228885   6.042   2.898  18.684 -1.5445  0.4980  0.6051
 1564TIP3   OH228886   2.729   7.646  18.526 -0.1963 -0.1274 -0.7389
 1564TIP3    H128887   2.807   7.644  18.470  0.5274  0.4312  0.2068
 1564TIP3    H228888   2.724   7.558  18.563 -0.1991 -0.2548 -1.0368
 1565TIP3   OH228889   3.173   2.028  16.253  0.0007 -0.3353  0.0731
 1565TIP3    H128890   3.247   1.969  16.239  0.6029  0.5650 -0.6418
 1565TIP3    H228891   3.111   2.006  16.184  0.3614  0.0512 -0.3870
 1566TIP3   OH228892   1.179   0.641  16.800  0.3208  0.6490  0.2027
 1566TIP3    H128893   1.125   0.677  16.871 -1.9683 -1.6578 -0.2605
 1566TIP3    H228894   1.233   0.715  16.772 -1.6187  2.7328  1.6145
 1567TIP3   OH228895   7.102   6.920  17.020 -0.3732 -0.0528 -0.0191
 1567TIP3    H128896   7.194   6.926  17.048 -0.2600 -0.8460 -0.2149
 1567TIP3    H228897   7.094   6.987  16.952  0.2218 -0.3963 -0.4380
 1568TIP3   OH228898   6.376   4.886  18.878 -0.5033  0.0807  0.9481
 1568TIP3    H128899   6.433   4.811  18.897 -0.0807 -0.5363 -2.2318
 1568TIP3    H228900   6.432   4.963  18.890 -0.1947 -0.2481  1.7166
 1569TIP3   OH228901   3.102   7.003  17.685 -0.1613  0.1306 -0.0266
 1569TIP3    H128902   3.141   7.080  17.643  1.0784  0.1769  1.1127
 1569TIP3    H228903   3.108   6.934  17.620 -1.3238  0.9777 -1.0802
 1570TIP3   OH228904   3.276   2.524  17.953 -0.1658 -0.1626 -0.2835
 1570TIP3    H128905   3.349   2.473  17.919  0.0853 -0.9463  1.3298
 1570TIP3    H228906   3.313   2.571  18.028 -0.9799  0.5688 -0.3264
 1571TIP3   OH228907   2.147   1.958  19.078 -0.3419  0.5710  0.2470
 1571TIP3    H128908   2.178   1.937  19.166 -1.6006 -0.5497  0.4729
 1571TIP3    H228909   2.194   1.896  19.021 -0.8833  0.0253  0.3800
 1572TIP3   OH228910   4.406   4.052  18.328  0.7792 -0.1571 -0.2817
 1572TIP3    H128911   4.370   4.131  18.368 -0.1597 -1.1004  0.8087
 1572TIP3    H228912   4.467   4.017  18.394  2.1879  0.3129 -1.2795
 1573TIP3   OH228913   6.507   3.687  17.164  0.0216 -0.2077  0.1576
 1573TIP3    H128914   6.590   3.692  17.211 -0.0983 -1.3574  0.5352
 1573TIP3    H228915   6.448   3.641  17.224 -0.8959  0.5759 -0.1096
 1574TIP3   OH228916   0.107   0.135  16.558  0.5728 -0.6001  0.2824
 1574TIP3    H128917   0.183   0.168  16.607 -0.5437  1.0274  1.0125
 1574TIP3    H228918   0.142   0.114  16.472  1.7569  0.6933  0.4094
 1575TIP3   OH228919   4.547   2.541  17.560 -0.0727  0.2420  0.4867
 1575TIP3    H128920   4.636   2.574  17.552  0.6147 -1.4609  0.7064
 1575TIP3    H228921   4.554   2.467  17.621 -1.5706 -0.1142  0.2630
 1576TIP3   OH228922   1.536   6.727  18.519 -0.4287  0.0326  0.4162
 1576TIP3    H128923   1.552   6.694  18.608 -0.8898  1.0503  0.8960
 1576TIP3    H228924   1.445   6.758  18.521 -0.3713  0.2651 -0.3448
 1577TIP3   OH228925   1.350   1.803  17.659 -0.6163  0.1401 -0.1259
 1577TIP3    H128926   1.419   1.772  17.601  0.6303 -0.3426  1.5575
 1577TIP3    H228927   1.307   1.724  17.691  0.6191  0.2082  1.8400
 1578TIP3   OH228928   6.356   0.370  17.194 -0.6216  0.2835  0.2822
 1578TIP3    H128929   6.422   0.419  17.145 -1.2338  1.1854  0.3398
 1578TIP3    H228930   6.296   0.338  17.127  0.5337 -1.6370  0.0903
 1579TIP3   OH228931   3.818   7.418  18.252  0.0648  0.6932 -0.2855
 1579TIP3    H128932   3.815   7.394  18.344  0.5115  0.9059 -0.2144
 1579TIP3    H228933   3.726   7.433  18.228 -0.6071 -3.2407 -0.9029
 1580TIP3   OH228934   0.653   0.844  17.343  0.0803 -0.3160  0.0841
 1580TIP3    H128935   0.581   0.812  17.397 -0.0702  0.3696  0.2978
 1580TIP3    H228936   0.639   0.938  17.337  0.6960 -0.2392 -0.2657
 1581TIP3   OH228937   2.074   5.082  16.715  0.1042 -0.6088 -0.5311
 1581TIP3    H128938   2.083   5.100  16.621 -0.7695  2.4110 -0.1333
 1581TIP3    H228939   1.979   5.084  16.730  0.2111 -1.5386  0.3632
 1582TIP3   OH228940   5.062   6.805  17.435  0.1855  0.3657  0.4080
 1582TIP3    H128941   5.097   6.849  17.357 -0.2423  1.4638  0.8082
 1582TIP3    H228942   4.970   6.789  17.414  0.5425 -1.2346 -0.0953
 1583TIP3   OH228943   0.400   7.184  18.319 -0.0174  0.2883 -0.4614
 1583TIP3    H128944   0.331   7.191  18.384  0.6823  0.3188  0.2927
 1583TIP3    H228945   0.434   7.095  18.329  0.1951  0.3433 -0.6767
 1584TIP3   OH228946   5.723   1.985  15.983 -0.3651 -0.7258  0.0719
 1584TIP3    H128947   5.790   2.048  15.959  0.1263 -1.5571 -0.7922
 1584TIP3    H228948   5.744   1.906  15.933 -2.4651 -0.7402 -0.8935
 1585TIP3   OH228949   5.077   0.653  16.467  0.2347 -0.7011 -0.2025
 1585TIP3    H128950   5.032   0.734  16.443  0.3072 -0.4239  0.5692
 1585TIP3    H228951   5.164   0.682  16.496 -0.4676 -0.7786  2.2127
 1586TIP3   OH228952   0.706   3.168  17.195 -0.4788 -0.0853 -0.2296
 1586TIP3    H128953   0.655   3.240  17.231  1.5349 -0.1929  3.3222
 1586TIP3    H228954   0.776   3.211  17.145  0.5634  0.4916  1.6552
 1587TIP3   OH228955   7.383   4.927  17.836 -0.9745 -0.3124  0.2342
 1587TIP3    H128956   7.375   4.872  17.758 -1.2083  0.2972 -0.1690
 1587TIP3    H228957   7.352   5.013  17.809  0.7990  0.4359  0.4311
 1588TIP3   OH228958   3.426   2.251  17.656 -0.0162  0.2311 -0.1034
 1588TIP3    H128959   3.408   2.159  17.639  0.6003 -0.2611  1.7958
 1588TIP3    H228960   3.513   2.266  17.618  0.1299 -0.1110  0.0956
 1589TIP3   OH228961   5.702   6.325  18.444  0.4300  0.0510 -0.1766
 1589TIP3    H128962   5.744   6.349  18.361  1.9352  1.4557  0.9228
 1589TIP3    H228963   5.770   6.278  18.492 -0.4007 -0.6693  0.3229
 1590TIP3   OH228964   7.069   2.813  17.922  0.2581 -0.4878 -0.0465
 1590TIP3    H128965   7.005   2.882  17.943  0.0255 -0.5250 -0.6250
 1590TIP3    H228966   7.016   2.740  17.890  0.5997 -0.4708 -0.6608
 1591TIP3   OH228967   7.441   2.945  17.075  0.2747  0.2064  0.1224
 1591TIP3    H128968   7.380   2.876  17.100 -0.2806  0.1008 -1.3756
 1591TIP3    H228969   7.394   3.027  17.093 -0.2066  0.1305 -0.7238
 1592TIP3   OH228970   4.976   2.255  18.787 -0.3542 -0.0586  0.0212
 1592TIP3    H128971   5.010   2.234  18.700 -0.1590 -0.0433  0.0940
 1592TIP3    H228972   5.040   2.315  18.825 -0.3403 -0.2192  0.2521
 1593TIP3   OH228973   1.719   6.951  17.347 -0.1554  0.7240 -0.0357
 1593TIP3    H128974   1.719   6.857  17.365  1.2542  0.7605  0.2557
 1593TIP3    H228975   1.798   6.984  17.390 -1.8204  2.4593  1.9360
 1594TIP3   OH228976   0.138   3.917  17.619  0.6671  0.4812 -0.1808
 1594TIP3    H128977   0.150   3.910  17.714 -2.2261  0.7200  0.3085
 1594TIP3    H228978   0.136   4.012  17.602  1.8053  0.4402 -0.6110
 1595TIP3   OH228979   6.771   2.856  18.149  0.7083 -0.2304  0.0194
 1595TIP3    H128980   6.859   2.874  18.181  0.2780  2.5604 -0.0700
 1595TIP3    H228981   6.746   2.936  18.101 -2.8523  0.2605  2.3174
 1596TIP3   OH228982   3.721   3.366  16.836 -0.2445  0.0226  0.5452
 1596TIP3    H128983   3.650   3.429  16.824  0.8897  1.4629  1.0367
 1596TIP3    H228984   3.748   3.344  16.747 -1.2087 -0.4316  0.3601
 1597TIP3   OH228985   0.684   5.547  16.479 -0.2539  0.0535  0.0624
 1597TIP3    H128986   0.651   5.559  16.390  1.4599 -0.1910 -0.6463
 1597TIP3    H228987   0.777   5.568  16.473 -0.2239  0.5823  1.9374
 1598TIP3   OH228988   7.265   1.351  18.311  0.3321 -0.1700  0.2765
 1598TIP3    H128989   7.337   1.330  18.252  1.2586  0.6429  1.0788
 1598TIP3    H228990   7.253   1.271  18.363  0.4071 -0.4340 -0.1067
 1599TIP3   OH228991   3.496   4.482  17.937 -0.2529  0.2401  0.3683
 1599TIP3    H128992   3.567   4.451  17.881 -1.1070 -0.5826 -0.2822
 1599TIP3    H228993   3.419   4.433  17.908 -1.2613  1.6649  0.5465
 1600TIP3   OH228994   0.047   5.006  16.345  0.6161  0.1481 -0.2493
 1600TIP3    H128995   0.127   4.965  16.379  0.4595 -0.1195 -0.1988
 1600TIP3    H228996  -0.009   4.932  16.319  0.8065  0.3538 -1.2801
 1601TIP3   OH228997   5.741   4.456  17.706  0.4645 -0.5262 -0.3464
 1601TIP3    H128998   5.821   4.419  17.670  0.2048 -2.6984  1.1111
 1601TIP3    H228999   5.675   4.439  17.639  0.9564  0.1716 -1.0262
 1602TIP3   OH229000   3.486   2.847  18.050  0.2420 -0.1307  0.2833
 1602TIP3    H129001   3.514   2.771  18.102  0.4719 -1.1242 -1.2286
 1602TIP3    H229002   3.514   2.826  17.961  0.9082  2.0422 -0.0668
 1603TIP3   OH229003   1.362   0.702  18.445  0.3623 -0.2130 -0.3255
 1603TIP3    H129004   1.356   0.621  18.496 -0.3280 -0.3774 -0.6633
 1603TIP3    H229005   1.400   0.765  18.506 -1.2592 -0.1647  0.7126
 1604TIP3   OH229006   6.179   0.103  18.826  0.1855 -0.3647 -0.1423
 1604TIP3    H129007   6.260   0.075  18.783  1.0509  0.0086  1.2061
 1604TIP3    H229008   6.176   0.051  18.906 -1.5145 -1.2009 -0.6929
 1605TIP3   OH229009   6.243   7.524  17.346 -0.1718  0.3326 -0.5878
 1605TIP3    H129010   6.274   7.486  17.264  0.0595  0.6396 -0.6429
 1605TIP3    H229011   6.281   7.612  17.349 -1.0535  0.7376 -0.6753
 1606TIP3   OH229012   6.678   1.316  17.290  0.2545 -0.0985  0.2494
 1606TIP3    H129013   6.636   1.383  17.235  0.4232  1.0469  1.4757
 1606TIP3    H229014   6.659   1.233  17.245 -2.4639  0.4562  0.2167
 1607TIP3   OH229015   6.720   2.234  18.046 -0.0282  0.1472 -0.2037
 1607TIP3    H129016   6.722   2.328  18.030 -1.4242 -0.2349 -3.3905
 1607TIP3    H229017   6.783   2.220  18.116  0.6897  3.3435 -0.0592
 1608TIP3   OH229018   1.819   5.426  17.327 -0.2058  0.2122 -0.3596
 1608TIP3    H129019   1.871   5.418  17.247 -0.6285 -1.9541 -0.4817
 1608TIP3    H229020   1.848   5.353  17.382 -0.6503  1.0559  1.0515
 1609TIP3   OH229021   5.345   4.675  19.219  0.5549 -0.6184 -0.3821
 1609TIP3    H129022   5.314   4.693  19.308 -0.8796 -0.0245 -0.9815
 1609TIP3    H229023   5.307   4.591  19.196  1.5520 -1.1384 -0.1664
 1610TIP3   OH229024   5.956   2.666  18.475 -0.2451  0.2013 -0.4955
 1610TIP3    H129025   6.003   2.694  18.397  1.0531 -1.5387 -0.4023
 1610TIP3    H229026   6.024   2.660  18.543 -0.8131 -1.1258 -0.0071
 1611TIP3   OH229027   0.317   2.639  18.218  0.0733  0.2321  0.3797
 1611TIP3    H129028   0.225   2.647  18.243 -0.1824  1.9826 -0.9916
 1611TIP3    H229029   0.364   2.690  18.283  0.2410 -1.4991  1.6951
 1612TIP3   OH229030   5.118   1.744  18.280  0.4963 -0.1615 -0.4141
 1612TIP3    H129031   5.078   1.755  18.366 -2.3389  0.5833 -1.6847
 1612TIP3    H229032   5.158   1.657  18.282 -2.4528 -1.6295  0.6538
 1613TIP3   OH229033   6.591   6.452  16.545  0.3150 -0.1158  0.0616
 1613TIP3    H129034   6.681   6.441  16.576  1.3499 -0.7895 -2.8414
 1613TIP3    H229035   6.578   6.547  16.544 -0.3550 -0.0350  3.7256
 1614TIP3   OH229036   2.100   5.198  16.994  0.5788 -0.2879  0.0912
 1614TIP3    H129037   2.131   5.178  16.906 -0.9393 -1.3627 -0.2328
 1614TIP3    H229038   2.133   5.126  17.048 -0.3699 -0.8396 -0.0460
 1615TIP3   OH229039   2.727   3.130  16.836 -0.4004 -0.3588  0.5080
 1615TIP3    H129040   2.669   3.165  16.770  1.0288  2.3934  0.5824
 1615TIP3    H229041   2.740   3.202  16.898  2.7219 -0.9340  0.6794
 1616TIP3   OH229042   4.662   5.929  16.189 -0.2460  0.0203 -0.5460
 1616TIP3    H129043   4.651   6.022  16.210 -1.0987  0.4960 -2.7312
 1616TIP3    H229044   4.756   5.913  16.198 -0.2106  0.8316  0.7409
 1617TIP3   OH229045   7.026   2.623  18.665 -0.1516 -0.4229  0.7787
 1617TIP3    H129046   7.033   2.668  18.580 -0.6697 -0.7876  0.5319
 1617TIP3    H229047   6.996   2.691  18.725  1.9397  0.2985  1.0957
 1618TIP3   OH229048   4.064   6.433  18.190 -0.3813  0.0715  0.8262
 1618TIP3    H129049   4.071   6.502  18.256  0.3148  0.7041  0.1129
 1618TIP3    H229050   4.068   6.352  18.240 -2.3092  0.5236  1.7805
 1619TIP3   OH229051   1.400   0.647  16.218 -0.1183 -0.0178  0.6822
 1619TIP3    H129052   1.346   0.666  16.140 -1.4830 -1.5815  1.1842
 1619TIP3    H229053   1.489   0.638  16.184 -0.4166  0.9118 -0.4390
 1620TIP3   OH229054   4.268   4.214  18.513 -0.0818 -0.5496  0.6831
 1620TIP3    H129055   4.325   4.284  18.544 -1.5386  1.0094  0.0288
 1620TIP3    H229056   4.202   4.205  18.582 -1.1612  0.3076 -0.1967
 1621TIP3   OH229057   5.924   1.362  17.722  0.0610  0.8201 -0.1867
 1621TIP3    H129058   5.961   1.283  17.761  0.4957  0.4554 -1.2966
 1621TIP3    H229059   5.871   1.401  17.792  2.2861  1.2092  1.3660
 1622TIP3   OH229060   4.698   7.386  16.728  0.0241 -0.9656 -0.5785
 1622TIP3    H129061   4.739   7.393  16.815 -0.4704  1.5784 -0.4727
 1622TIP3    H229062   4.770   7.396  16.667  0.2944 -2.1700 -0.4711
 1623TIP3   OH229063   6.916   3.279  18.714  0.1803  0.1884  0.4237
 1623TIP3    H129064   6.892   3.372  18.718 -1.0110  0.1006 -2.3393
 1623TIP3    H229065   6.993   3.276  18.657 -1.0953 -0.6324 -1.3539
 1624TIP3   OH229066   2.846   0.075  18.136 -0.4556 -0.1110 -0.1798
 1624TIP3    H129067   2.873   0.160  18.169 -2.0099  0.0258  0.8835
 1624TIP3    H229068   2.847   0.084  18.041  1.3630  0.4141 -0.1373
 1625TIP3   OH229069   4.525   7.598  17.812  0.4606  0.1621 -0.7889
 1625TIP3    H129070   4.436   7.623  17.788  0.2835 -1.3735 -1.9138
 1625TIP3    H229071   4.513   7.530  17.878  0.6855 -1.3637 -2.2418
 1626TIP3   OH229072   6.350   1.077  18.133 -0.6519  0.2977  0.4310
 1626TIP3    H129073   6.262   1.039  18.138 -0.8040  0.6996  0.9906
 1626TIP3    H229074   6.371   1.078  18.040 -1.2108  0.1317  0.2994
 1627TIP3   OH229075   2.203   3.265  17.124  0.2052  0.2201  0.0885
 1627TIP3    H129076   2.202   3.207  17.048  1.2323  0.7809 -0.3696
 1627TIP3    H229077   2.112   3.269  17.153 -0.0444 -0.7526 -0.5328
 1628TIP3   OH229078   5.749   2.174  18.135  0.6642  0.3557 -0.0285
 1628TIP3    H129079   5.822   2.178  18.074  0.8003 -1.0403  0.0310
 1628TIP3    H229080   5.673   2.200  18.082  0.7436 -1.0345 -0.8601
 1629TIP3   OH229081   3.910   6.359  17.980 -0.2357 -0.0086 -0.1252
 1629TIP3    H129082   3.833   6.360  18.037  0.0411  0.3475  0.2425
 1629TIP3    H229083   3.984   6.371  18.039  0.2415 -1.9338 -0.2657
 1630TIP3   OH229084   0.524   5.175  17.795 -0.2557  0.2951  0.1855
 1630TIP3    H129085   0.512   5.259  17.749  1.8758  0.9432  0.6830
 1630TIP3    H229086   0.438   5.154  17.829 -1.3368  1.1589 -1.8219
 1631TIP3   OH229087   5.070   4.731  19.107  0.0928 -0.2609  0.1246
 1631TIP3    H129088   5.162   4.709  19.095 -0.3663 -1.6463 -1.0391
 1631TIP3    H229089   5.062   4.747  19.201  1.0238 -2.6123  0.6691
 1632TIP3   OH229090   4.622   2.762  16.964  0.0812  0.4878  0.1544
 1632TIP3    H129091   4.600   2.669  16.962  0.0630  0.5032 -0.9922
 1632TIP3    H229092   4.697   2.768  17.023  0.1617 -0.2682  0.1360
 1633TIP3   OH229093   2.475   5.919  17.918  0.3942 -0.4870  0.3132
 1633TIP3    H129094   2.416   5.963  17.979 -0.4828 -1.5139  0.2382
 1633TIP3    H229095   2.538   5.987  17.892 -0.7026  0.6258  0.4482
 1634TIP3   OH229096   7.296   6.000  18.702 -0.1115 -0.0313 -0.2392
 1634TIP3    H129097   7.335   5.963  18.781 -0.7618  1.2406  0.7189
 1634TIP3    H229098   7.213   6.039  18.732 -1.7877 -1.9802 -2.0666
 1635TIP3   OH229099   5.697   7.191  18.841 -0.3377 -0.0097  0.0351
 1635TIP3    H129100   5.720   7.284  18.838  1.6095 -0.4481 -1.7047
 1635TIP3    H229101   5.610   7.186  18.802 -0.5930  1.1096  0.4319
 1636TIP3   OH229102   2.836   0.453  18.813  0.1682  0.1236 -0.4171
 1636TIP3    H129103   2.879   0.526  18.858 -0.5399  0.5946 -0.4856
 1636TIP3    H229104   2.844   0.474  18.720 -0.8944  0.6292 -0.4094
 1637TIP3   OH229105   6.298   4.330  17.455 -0.7148  0.3723  0.2928
 1637TIP3    H129106   6.254   4.252  17.420 -2.4672  1.3468  0.1740
 1637TIP3    H229107   6.344   4.367  17.379  2.3849 -1.8785  0.8909
 1638TIP3   OH229108   4.952   6.296  18.166  0.1575  0.0398 -0.6735
 1638TIP3    H129109   4.993   6.367  18.116  0.1585  0.5514  0.0295
 1638TIP3    H229110   4.927   6.337  18.249  1.1341 -1.0302  0.1900
 1639TIP3   OH229111   0.052   0.407  18.431 -0.3929  0.4660 -0.1797
 1639TIP3    H129112   0.013   0.435  18.349 -1.5256 -1.4109 -0.3423
 1639TIP3    H229113  -0.013   0.430  18.498  0.8353  2.6609  0.3603
 1640TIP3   OH229114   4.054   1.499  17.153 -0.1899 -0.4618  0.6278
 1640TIP3    H129115   4.034   1.513  17.246 -0.4396  1.3214  0.3502
 1640TIP3    H229116   4.148   1.483  17.151  0.0230  0.6229  1.1130
 1641TIP3   OH229117   3.954   3.575  16.001 -0.7510  0.0603  0.3585
 1641TIP3    H129118   3.888   3.514  16.035 -0.5658 -0.7881 -0.7345
 1641TIP3    H229119   3.917   3.606  15.918  0.0875 -0.2241 -0.1390
 1642TIP3   OH229120   6.368   6.413  18.915  0.1801 -0.6259  0.8046
 1642TIP3    H129121   6.453   6.454  18.929 -0.3346  1.3493 -1.3272
 1642TIP3    H229122   6.304   6.481  18.939 -0.6993 -0.2802 -2.1143
 1643TIP3   OH229123   1.232   5.016  16.292 -0.0023 -0.0411 -0.4324
 1643TIP3    H129124   1.142   4.987  16.282  0.5268 -2.5467  1.2307
 1643TIP3    H229125   1.258   5.044  16.204 -1.7902 -1.1177 -1.3657
 1644TIP3   OH229126   6.441   7.405  18.475 -0.1619 -0.0711  0.3035
 1644TIP3    H129127   6.508   7.469  18.451  0.7814 -1.1867 -0.1425
 1644TIP3    H229128   6.478   7.321  18.449 -0.8617 -0.9343  1.9369
 1645TIP3   OH229129   6.674   1.069  18.058  0.3629 -0.2040  0.3925
 1645TIP3    H129130   6.766   1.092  18.073  0.2013  1.1979 -0.5704
 1645TIP3    H229131   6.628   1.104  18.134  0.5927 -0.7280  0.7778
 1646TIP3   OH229132   1.866   6.635  16.928 -0.5456 -0.2128  0.1996
 1646TIP3    H129133   1.859   6.619  16.834 -1.8162 -0.7946  0.3700
 1646TIP3    H229134   1.959   6.652  16.943 -0.6798  2.5877 -1.5613
 1647TIP3   OH229135   6.693   7.531  17.001 -0.1360 -0.2503  0.2795
 1647TIP3    H129136   6.699   7.493  16.914 -2.3880 -1.2054  0.4809
 1647TIP3    H229137   6.631   7.603  16.992  0.7713  0.6437  0.8239
 1648TIP3   OH229138   4.027   0.281  17.014 -0.1986  0.3114 -0.1362
 1648TIP3    H129139   4.106   0.265  17.066 -1.2700  0.2875  1.5594
 1648TIP3    H229140   4.051   0.252  16.926  0.7925 -2.4389  0.9030
 1649TIP3   OH229141   2.266   4.367  17.081  0.3038 -0.2402 -0.4402
 1649TIP3    H129142   2.299   4.454  17.104  1.0684 -0.5073 -0.4637
 1649TIP3    H229143   2.306   4.309  17.146 -2.7902 -0.2305  1.6810
 1650TIP3   OH229144   1.525   1.913  16.739 -0.1666 -0.2078  0.3048
 1650TIP3    H129145   1.555   1.929  16.649 -0.1028  0.1463  0.3865
 1650TIP3    H229146   1.429   1.917  16.733 -0.1440  2.2097  0.6544
 1651TIP3   OH229147   6.208   0.917  17.176 -0.3511  0.0975 -0.1623
 1651TIP3    H129148   6.134   0.872  17.218  0.0231  0.3660  0.8293
 1651TIP3    H229149   6.285   0.866  17.202  0.0509  1.0989  0.7462
 1652TIP3   OH229150   5.247   1.282  17.834  0.4017 -0.2622 -0.3340
 1652TIP3    H129151   5.304   1.213  17.869  0.3202 -0.2213 -0.1191
 1652TIP3    H229152   5.159   1.259  17.867  0.3377 -0.1811 -0.4479
 1653TIP3   OH229153   3.125   6.550  19.030  0.1406  0.7490  0.1231
 1653TIP3    H129154   3.088   6.622  19.081  1.3600  0.5096  1.4293
 1653TIP3    H229155   3.137   6.586  18.942 -1.1667  1.4650  0.2178
 1654TIP3   OH229156   0.714   6.534  19.205 -0.1154 -0.5856  0.1439
 1654TIP3    H129157   0.737   6.465  19.267  0.5864 -0.2885  0.2167
 1654TIP3    H229158   0.661   6.489  19.139  0.1827 -1.1524  0.2844
 1655TIP3   OH229159   0.386   7.556  18.816 -0.3747  0.3137  0.2138
 1655TIP3    H129160   0.304   7.599  18.837 -1.2444 -0.4417 -1.4498
 1655TIP3    H229161   0.365   7.463  18.816  0.4180  0.1257 -0.5076
 1656TIP3   OH229162   5.097   6.031  17.723  1.0780  0.1790  0.1294
 1656TIP3    H129163   5.179   6.034  17.773  0.5444 -1.3008  1.1713
 1656TIP3    H229164   5.032   6.000  17.786  0.0700 -0.3347 -1.1235
 1657TIP3   OH229165   4.096   3.111  18.011  0.5631  0.3186 -0.1925
 1657TIP3    H129166   4.037   3.095  18.085 -0.0464 -0.1114 -0.7637
 1657TIP3    H229167   4.043   3.158  17.947  0.6735 -0.5017 -0.9136
 1658TIP3   OH229168   0.939   4.208  18.043 -0.8777 -0.0748  0.2592
 1658TIP3    H129169   0.948   4.254  17.959  0.2477  0.9005  0.8837
 1658TIP3    H229170   1.029   4.194  18.073 -1.2305  1.1994  2.1330
 1659TIP3   OH229171   4.354   0.889  17.593  0.2753 -0.3806  0.4213
 1659TIP3    H129172   4.375   0.803  17.630  0.1076 -0.6042  0.0012
 1659TIP3    H229173   4.388   0.952  17.657 -1.8898 -0.7505  2.0348
 1660TIP3   OH229174   4.517   5.152  17.566 -0.4628  0.0589  0.5067
 1660TIP3    H129175   4.483   5.064  17.584  0.7761 -0.7159 -0.6611
 1660TIP3    H229176   4.567   5.174  17.645  0.5322 -1.0031  0.2130
 1661TIP3   OH229177   3.679   6.397  18.122  0.3848 -0.0377  0.2889
 1661TIP3    H129178   3.703   6.456  18.194 -1.3738 -0.3405  1.1807
 1661TIP3    H229179   3.586   6.379  18.136  0.3607 -1.2952 -1.2315
 1662TIP3   OH229180   3.889   2.583  18.209 -0.4211  0.1017  0.0132
 1662TIP3    H129181   3.796   2.560  18.200 -0.5515  1.0919 -1.5055
 1662TIP3    H229182   3.922   2.588  18.120  0.9095  0.5344  0.4990
 1663TIP3   OH229183   6.494   2.539  16.729 -0.4451  0.4387 -0.0482
 1663TIP3    H129184   6.469   2.503  16.643  0.4927  0.5482 -0.3793
 1663TIP3    H229185   6.443   2.488  16.792  0.5568 -1.2137 -0.5322
 1664TIP3   OH229186   5.189   0.652  18.469 -0.1857  0.0639 -0.2726
 1664TIP3    H129187   5.244   0.693  18.403  1.1969 -1.1458  0.0847
 1664TIP3    H229188   5.227   0.680  18.552 -0.2894 -0.5259 -0.0204
 1665TIP3   OH229189   1.648   1.500  18.849 -0.6056  0.0792 -0.1302
 1665TIP3    H129190   1.621   1.495  18.758  1.0718 -0.6948 -0.6204
 1665TIP3    H229191   1.586   1.444  18.896 -2.3764  1.6156 -0.5225
 1666TIP3   OH229192   6.011   5.094  18.091  0.3859  0.3740 -0.1596
 1666TIP3    H129193   5.988   5.134  18.175 -0.9985  0.6127 -0.6266
 1666TIP3    H229194   6.089   5.043  18.110  0.3742  0.7950  1.1701
 1667TIP3   OH229195   5.822   5.960  16.890  0.0454  0.3072  0.0865
 1667TIP3    H129196   5.888   5.951  16.822  0.6595  0.7353  0.6123
 1667TIP3    H229197   5.828   5.880  16.941 -0.3181  0.0472 -0.2792
 1668TIP3   OH229198   5.975   6.042  17.867  0.2068 -0.9250  0.4292
 1668TIP3    H129199   6.024   6.103  17.812 -0.1487  0.1062  1.2201
 1668TIP3    H229200   5.948   5.972  17.807 -0.8308  0.5377 -0.9024
 1669TIP3   OH229201   4.374   5.077  16.888  0.3683  0.6803 -0.0070
 1669TIP3    H129202   4.441   5.017  16.855 -2.1495 -1.1693 -2.2203
 1669TIP3    H229203   4.423   5.145  16.933  3.6309 -1.1103 -0.5195
 1670TIP3   OH229204   0.117   0.401  17.286 -0.6665  0.5424  0.0880
 1670TIP3    H129205   0.068   0.395  17.204  0.7259 -1.4841 -0.6560
 1670TIP3    H229206   0.112   0.313  17.323  1.0278  0.7144  0.7808
 1671TIP3   OH229207   3.052   2.933  17.406  0.1903  0.6056 -0.6587
 1671TIP3    H129208   3.064   2.916  17.313  1.7703 -1.3420 -0.1964
 1671TIP3    H229209   3.140   2.956  17.438 -0.3696  1.4900  0.3057
 1672TIP3   OH229210   7.080   1.868  18.414  0.1971 -0.0777 -0.5189
 1672TIP3    H129211   7.114   1.779  18.411  0.7674  0.1481 -0.9611
 1672TIP3    H229212   7.120   1.907  18.491  0.3824 -0.0376 -0.6338
 1673TIP3   OH229213   4.123   1.460  16.869 -0.4583  0.2372 -0.3498
 1673TIP3    H129214   4.096   1.542  16.910 -0.9878  0.1638 -0.5415
 1673TIP3    H229215   4.153   1.405  16.942 -2.6322 -0.3811  0.1338
 1674TIP3   OH229216   4.580   4.268  17.901 -0.3544  0.2000 -0.6141
 1674TIP3    H129217   4.605   4.226  17.984 -0.3539 -1.7505 -1.5713
 1674TIP3    H229218   4.486   4.284  17.909 -0.4917 -0.6356 -0.5070
 1675TIP3   OH229219   3.152   3.474  16.367  0.0475 -0.4753 -0.4055
 1675TIP3    H129220   3.197   3.494  16.285  0.9235 -0.8854 -0.0303
 1675TIP3    H229221   3.191   3.392  16.397 -1.3863 -1.1759 -0.3822
 1676TIP3   OH229222   5.578   6.778  18.458  0.8029 -0.3985  0.7082
 1676TIP3    H129223   5.653   6.733  18.419 -0.2119 -0.8153 -0.8583
 1676TIP3    H229224   5.559   6.850  18.399  1.0594  0.8161  2.0564
 1677TIP3   OH229225   0.861   0.196  17.402 -0.3766 -0.0342  0.0665
 1677TIP3    H129226   0.767   0.194  17.389 -0.2057 -0.4164 -1.2711
 1677TIP3    H229227   0.892   0.265  17.343  0.6400 -3.0973 -3.4086
 1678TIP3   OH229228   7.507   6.621  17.484  0.5282  0.2685  0.1874
 1678TIP3    H129229   7.563   6.686  17.441 -1.0477  1.0815 -0.6919
 1678TIP3    H229230   7.533   6.537  17.445  0.7304  0.7054 -0.6286
 1679TIP3   OH229231   0.213   7.202  17.824 -0.2540 -0.2224  0.2677
 1679TIP3    H129232   0.299   7.159  17.819 -0.1704 -0.1101  0.6897
 1679TIP3    H229233   0.218   7.254  17.904 -0.2816  0.7283 -0.3401
 1680TIP3   OH229234   5.018   3.198  17.436  0.7617  0.2924  0.0458
 1680TIP3    H129235   4.955   3.166  17.371  1.6920 -0.4288 -0.5344
 1680TIP3    H229236   5.074   3.258  17.387 -0.1672  1.8819  0.8330
 1681TIP3   OH229237   1.110   2.523  17.978  0.0660  0.1670 -0.2150
 1681TIP3    H129238   1.150   2.527  18.064 -2.2611  1.3218  0.9260
 1681TIP3    H229239   1.055   2.445  17.980  0.4032 -0.0906 -0.8450
 1682TIP3   OH229240   5.048   3.760  16.662  0.2770  0.2969  0.3872
 1682TIP3    H129241   5.085   3.793  16.580 -0.4749 -2.4592 -1.2147
 1682TIP3    H229242   4.976   3.819  16.682  0.5926  1.1369 -0.8610
 1683TIP3   OH229243   5.081   6.174  17.462 -0.3812  0.6145 -0.1383
 1683TIP3    H129244   5.133   6.125  17.399 -0.4304 -0.5287  0.6939
 1683TIP3    H229245   5.109   6.141  17.547 -0.0236  2.4145  0.4903
 1684TIP3   OH229246   6.490   0.316  15.825  0.0914 -0.1545 -0.2048
 1684TIP3    H129247   6.404   0.319  15.782  0.2603 -0.2635 -0.5556
 1684TIP3    H229248   6.513   0.223  15.825  0.0142 -0.1741  0.2820
 1685TIP3   OH229249   7.157   1.974  15.898 -0.2250  0.3619  0.3757
 1685TIP3    H129250   7.117   2.012  15.820 -0.4610  0.1821  0.4088
 1685TIP3    H229251   7.203   1.897  15.866  0.0866  0.5583  0.3401
 1686TIP3   OH229252   0.943   4.426  18.249 -0.0019  0.2679  0.2538
 1686TIP3    H129253   0.932   4.359  18.182 -0.1334  0.6771 -0.1351
 1686TIP3    H229254   0.887   4.396  18.321 -0.6116  0.3188 -0.1899
 1687TIP3   OH229255   4.997   4.295  17.685  0.2311  0.0927 -0.9750
 1687TIP3    H129256   4.944   4.268  17.760 -2.5724  1.7889 -2.1815
 1687TIP3    H229257   5.044   4.373  17.716 -0.5279  0.4993 -0.8415
 1688TIP3   OH229258   2.063   0.994  18.117 -0.1799  0.1631  0.3408
 1688TIP3    H129259   2.000   0.927  18.091  1.5150 -1.8625  1.1389
 1688TIP3    H229260   2.021   1.040  18.190 -0.5651 -1.5179  1.2390
 1689TIP3   OH229261   2.037   5.749  18.794 -0.2319  0.4509 -0.5428
 1689TIP3    H129262   2.126   5.748  18.832 -0.6767  0.4369  0.5421
 1689TIP3    H229263   2.006   5.838  18.808 -0.8675  0.1168  0.2799
 1690TIP3   OH229264   5.016   4.125  19.133  0.2644  0.1977 -0.3446
 1690TIP3    H129265   5.092   4.105  19.078 -0.3973  0.6408 -1.4668
 1690TIP3    H229266   4.941   4.090  19.084 -0.3777  0.8993  0.0990
 1691TIP3   OH229267   0.562   3.527  18.651 -0.4423  0.1224 -0.2550
 1691TIP3    H129268   0.506   3.509  18.727  0.4212 -0.2968  0.2997
 1691TIP3    H229269   0.501   3.550  18.581 -1.2085  2.6004  1.0921
 1692TIP3   OH229270   6.777   6.200  17.880  0.8262 -0.1877  0.5130
 1692TIP3    H129271   6.778   6.117  17.832 -1.0801 -0.2641  0.5265
 1692TIP3    H229272   6.828   6.260  17.825  1.0375 -1.0034 -0.2005
 1693TIP3   OH229273   2.642   1.352  17.168 -0.4832 -0.0980 -0.3067
 1693TIP3    H129274   2.702   1.344  17.094 -1.0208  0.9001 -0.8721
 1693TIP3    H229275   2.564   1.394  17.131 -0.2666  1.6371  1.0631
 1694TIP3   OH229276   7.317   5.718  18.809 -0.5157 -0.8094 -0.4484
 1694TIP3    H129277   7.386   5.656  18.831  0.5157  0.4394 -0.0428
 1694TIP3    H229278   7.303   5.706  18.715  0.7181 -0.6474 -0.6659
 1695TIP3   OH229279   5.622   2.706  16.457 -0.3876  0.0136  0.0721
 1695TIP3    H129280   5.683   2.632  16.458 -0.6858 -0.2753  1.8774
 1695TIP3    H229281   5.669   2.776  16.413  0.0296 -1.1243 -1.3771
 1696TIP3   OH229282   4.704   2.683  18.518 -0.4076 -0.0162  0.1578
 1696TIP3    H129283   4.717   2.591  18.537  1.7816  0.2815  0.3067
 1696TIP3    H229284   4.682   2.722  18.603  1.0294 -0.0472  0.5696
 1697TIP3   OH229285   3.103   7.014  18.912 -0.0940 -0.6912 -0.0585
 1697TIP3    H129286   3.173   7.058  18.961 -1.7442 -1.0183  2.7978
 1697TIP3    H229287   3.037   7.082  18.898 -1.6375 -1.5464  2.3585
 1698TIP3   OH229288   7.534   1.626  17.451  0.3307  0.1272  0.6393
 1698TIP3    H129289   7.582   1.550  17.419  2.5615  1.4284  0.6621
 1698TIP3    H229290   7.498   1.598  17.535 -2.1733 -2.0370 -0.9740
 1699TIP3   OH229291   5.520   0.192  18.239  0.3286 -0.4921 -0.3548
 1699TIP3    H129292   5.457   0.255  18.274 -1.0053 -0.5567 -2.4647
 1699TIP3    H229293   5.587   0.246  18.198  1.6214 -0.4316  1.6579
 1700TIP3   OH229294   3.770   4.239  16.885 -0.2710  0.2285 -0.6198
 1700TIP3    H129295   3.805   4.165  16.935 -0.0258  1.0396  0.4300
 1700TIP3    H229296   3.848   4.287  16.857 -0.4122 -0.1315 -1.6823
 1701TIP3   OH229297   4.707   7.582  18.126 -0.1792 -0.4656  0.5982
 1701TIP3    H129298   4.698   7.490  18.101  0.3662  0.1065 -1.9876
 1701TIP3    H229299   4.625   7.623  18.098  0.9117  0.4212 -1.4663
 1702TIP3   OH229300   4.177   7.273  17.430 -0.5830  0.0116 -0.0115
 1702TIP3    H129301   4.248   7.334  17.411  0.4048 -0.7402  1.0975
 1702TIP3    H229302   4.164   7.225  17.349  0.6478 -0.2871 -0.0434
 1703TIP3   OH229303   2.103   4.095  17.272 -0.1290  0.2520  0.6339
 1703TIP3    H129304   2.075   4.157  17.205  1.6042  0.8815  0.4500
 1703TIP3    H229305   2.062   4.012  17.246  0.8352  0.3734 -1.4852
 1704TIP3   OH229306   5.545   5.996  16.879  0.1486 -0.1331  0.6586
 1704TIP3    H129307   5.539   6.080  16.833 -0.3886 -0.9703 -0.8966
 1704TIP3    H229308   5.638   5.975  16.878  0.0881 -0.4030 -0.6053
 1705TIP3   OH229309   2.326   6.752  16.829  0.0861 -0.1709 -0.4465
 1705TIP3    H129310   2.278   6.795  16.758 -1.5339  0.4634  0.9521
 1705TIP3    H229311   2.380   6.822  16.867 -0.6739  0.0709  0.2484
 1706TIP3   OH229312   5.840   5.563  16.777 -0.4434  0.0314 -0.2905
 1706TIP3    H129313   5.841   5.470  16.802 -1.2473  0.4294  1.3224
 1706TIP3    H229314   5.915   5.601  16.822 -0.9566  0.4435  0.2262
 1707TIP3   OH229315   7.023   6.048  17.589 -0.6721 -0.5470 -0.4864
 1707TIP3    H129316   7.017   5.995  17.510  2.5830  1.4216 -2.2695
 1707TIP3    H229317   7.024   6.138  17.558  0.0538  0.3248  1.8336
 1708TIP3   OH229318   2.884   7.226  18.876  0.2201  0.5662  0.3112
 1708TIP3    H129319   2.883   7.312  18.833  1.6429 -0.1430 -1.2711
 1708TIP3    H229320   2.798   7.218  18.917 -0.6135  1.9945 -1.0691
 1709TIP3   OH229321   5.370   7.623  17.364 -0.0251  0.9440  0.5054
 1709TIP3    H129322   5.312   7.603  17.438  0.1367 -2.2495 -0.0600
 1709TIP3    H229323   5.311   7.629  17.288  0.1121  0.3481  0.3434
 1710TIP3   OH229324   5.107   0.424  17.648  0.8393 -0.0746  0.1540
 1710TIP3    H129325   5.074   0.506  17.683  0.8643  0.1494 -0.3338
 1710TIP3    H229326   5.039   0.360  17.667 -0.0917  0.4613 -1.2105
 1711TIP3   OH229327   0.504   2.104  17.903 -0.8985 -0.0029 -0.0418
 1711TIP3    H129328   0.592   2.129  17.930 -0.4318 -1.5001 -0.0515
 1711TIP3    H229329   0.514   2.074  17.813 -1.2393 -0.9736  0.2305
 1712TIP3   OH229330   4.673   3.679  17.490 -0.6116 -0.0449  0.1008
 1712TIP3    H129331   4.758   3.637  17.481 -0.4677  0.5460 -1.7673
 1712TIP3    H229332   4.613   3.608  17.512  0.4046 -0.3939  1.9211
 1713TIP3   OH229333   0.383   5.689  16.357  0.3160  0.0329 -0.3096
 1713TIP3    H129334   0.360   5.608  16.402  0.9817  0.9426  1.7734
 1713TIP3    H229335   0.385   5.665  16.264 -2.2430 -1.6749 -0.0364
 1714TIP3   OH229336   3.206   0.977  18.400 -0.4662  0.1160  0.5381
 1714TIP3    H129337   3.138   1.043  18.405  0.3169  0.9479  4.9165
 1714TIP3    H229338   3.285   1.026  18.378 -0.7022 -0.3152 -1.3808
 1715TIP3   OH229339   0.784   1.441  18.398  0.2814  0.0770 -0.5108
 1715TIP3    H129340   0.844   1.502  18.441  1.8400 -1.1634 -0.8397
 1715TIP3    H229341   0.756   1.382  18.467 -0.4154  0.5121 -0.4075
 1716TIP3   OH229342   4.661   0.633  17.818 -0.8141  0.0086  0.4276
 1716TIP3    H129343   4.680   0.618  17.726  1.3783 -0.9819  0.9724
 1716TIP3    H229344   4.591   0.571  17.839  0.2556 -1.4073 -0.0661
 1717TIP3   OH229345   0.657   0.886  17.662  0.1512 -0.2637  0.1260
 1717TIP3    H129346   0.664   0.848  17.750  0.2025 -0.1104  0.1880
 1717TIP3    H229347   0.728   0.846  17.613  1.4510  1.2093  0.7291
 1718TIP3   OH229348   3.971   0.182  17.555 -0.2979 -0.3832 -0.1737
 1718TIP3    H129349   3.915   0.128  17.501 -0.4191 -0.8225  0.3830
 1718TIP3    H229350   3.911   0.242  17.600 -0.0368  1.3019 -1.9650
 1719TIP3   OH229351   1.865   3.565  18.453 -0.3533  0.3404  0.3112
 1719TIP3    H129352   1.952   3.558  18.413 -0.2336  2.8557 -0.0037
 1719TIP3    H229353   1.882   3.558  18.547  0.0253 -0.2956  0.2035
 1720TIP3   OH229354   3.595   2.262  16.925 -0.0190  0.4287 -0.0410
 1720TIP3    H129355   3.620   2.258  16.833  1.1631 -2.2527  0.3031
 1720TIP3    H229356   3.657   2.204  16.970 -1.9737 -0.1562  2.1036
 1721TIP3   OH229357   1.164   4.106  18.240 -0.6538  0.5938 -0.3377
 1721TIP3    H129358   1.125   4.158  18.311 -1.4082 -0.1505 -0.1815
 1721TIP3    H229359   1.234   4.161  18.205  1.1186  0.2196  2.3004
 1722TIP3   OH229360   0.233   0.621  16.865 -0.2542 -0.2938  0.3120
 1722TIP3    H129361   0.211   0.701  16.817  0.6740 -0.8830 -1.1698
 1722TIP3    H229362   0.176   0.554  16.826 -1.2135 -0.3453  1.7161
 1723TIP3   OH229363   6.121   1.607  16.567  0.1750  0.3445 -0.1054
 1723TIP3    H129364   6.133   1.539  16.501  1.9111  0.7391 -0.2439
 1723TIP3    H229365   6.178   1.678  16.539 -0.1393  1.0892  1.0698
 1724TIP3   OH229366   3.284   1.101  17.663 -0.0770 -0.4181  0.1503
 1724TIP3    H129367   3.230   1.048  17.605 -0.6198  1.1706 -0.8848
 1724TIP3    H229368   3.332   1.159  17.604  1.8194 -0.9161  1.1355
 1725TIP3   OH229369   4.167   5.265  18.430  0.2534  0.9873  0.1220
 1725TIP3    H129370   4.217   5.211  18.368 -1.6102  0.2193 -0.7733
 1725TIP3    H229371   4.181   5.355  18.398 -0.2141  0.6491 -1.1052
 1726TIP3   OH229372   6.310   4.772  18.588  0.2437 -0.1414 -0.7494
 1726TIP3    H129373   6.287   4.805  18.675  0.2925 -1.2582 -0.3076
 1726TIP3    H229374   6.245   4.813  18.530 -1.5092 -1.4692  0.1746
 1727TIP3   OH229375   1.534   0.825  17.655  0.4549  0.2464 -0.2495
 1727TIP3    H129376   1.578   0.858  17.733  1.0391 -0.6573 -0.1796
 1727TIP3    H229377   1.605   0.792  17.600  0.1142  1.4660 -1.4721
 1728TIP3   OH229378   3.668   2.508  16.576  0.1483 -0.1478 -0.5253
 1728TIP3    H129379   3.726   2.566  16.526  1.4357 -0.5466  0.4711
 1728TIP3    H229380   3.680   2.534  16.667 -1.0513 -0.4186 -0.2750
 1729TIP3   OH229381   5.174   2.452  18.830 -0.0929  0.4788  0.2737
 1729TIP3    H129382   5.179   2.510  18.906 -0.7135 -0.6107  1.1823
 1729TIP3    H229383   5.264   2.422  18.816  0.0305  0.7168  0.5531
 1730TIP3   OH229384   0.190   4.940  17.534  0.0287 -0.1916 -0.1283
 1730TIP3    H129385   0.224   5.029  17.527  1.0517 -0.5849 -0.2886
 1730TIP3    H229386   0.125   4.945  17.605 -0.1543  0.7391 -0.3434
 1731TIP3   OH229387   4.363   5.575  17.303  0.3482 -0.0521 -0.1252
 1731TIP3    H129388   4.321   5.499  17.263 -0.1111 -0.4074  0.9864
 1731TIP3    H229389   4.300   5.605  17.369  1.9775 -0.8644  1.9169
 1732TIP3   OH229390   1.490   2.023  17.460  0.2285  0.5581 -0.3430
 1732TIP3    H129391   1.519   2.070  17.538  0.3470 -1.1744  0.7029
 1732TIP3    H229392   1.424   1.962  17.491  0.2874 -0.1835 -1.6001
 1733TIP3   OH229393   0.088   7.031  18.178  0.0362 -0.1058 -0.3187
 1733TIP3    H129394   0.100   6.993  18.091 -1.1372 -0.1223 -0.4938
 1733TIP3    H229395   0.072   7.124  18.161 -1.8977 -0.3986 -0.2779
 1734TIP3   OH229396   4.427   0.494  16.697  0.0309 -0.4830 -0.1656
 1734TIP3    H129397   4.475   0.564  16.652 -2.4608  0.7139 -1.1197
 1734TIP3    H229398   4.454   0.414  16.651  1.5278  0.0552 -0.2727
 1735TIP3   OH229399   3.218   3.269  16.065  0.0513 -0.0802 -0.8873
 1735TIP3    H129400   3.124   3.251  16.057 -0.7340  0.2031  4.2682
 1735TIP3    H229401   3.257   3.184  16.085  0.5068  0.1781 -0.6677
 1736TIP3   OH229402   7.008   4.563  18.017  0.0180 -0.2702 -0.6658
 1736TIP3    H129403   6.960   4.481  18.026 -1.1132  0.1654 -2.2212
 1736TIP3    H229404   7.091   4.539  17.977 -0.1245 -0.7027 -0.6967
 1737TIP3   OH229405   3.361   3.439  17.619  0.1404 -0.3864 -0.8186
 1737TIP3    H129406   3.266   3.440  17.626  0.1044 -0.9780 -1.2286
 1737TIP3    H229407   3.391   3.468  17.705 -0.3956 -1.6074 -0.1998
 1738TIP3   OH229408   0.392   1.974  18.577  0.0492 -0.3505  0.0817
 1738TIP3    H129409   0.392   1.884  18.546  0.6502 -0.2953 -0.0813
 1738TIP3    H229410   0.406   2.027  18.499 -0.6521 -0.0882  0.1211
 1739TIP3   OH229411   1.261   6.610  18.065 -0.1341  0.1328 -0.3131
 1739TIP3    H129412   1.309   6.540  18.109  0.3038  0.5277 -0.1551
 1739TIP3    H229413   1.315   6.632  17.989 -1.0044 -0.7131 -1.2026
 1740TIP3   OH229414   4.743   3.048  17.826  0.1386  0.2587 -0.4604
 1740TIP3    H129415   4.711   2.977  17.770 -1.1836  0.3405  0.1522
 1740TIP3    H229416   4.679   3.118  17.814  0.3620  0.6239  0.4331
 1741TIP3   OH229417   5.245   2.053  16.403  0.6203 -0.8165 -0.2402
 1741TIP3    H129418   5.257   2.040  16.497 -0.1223  1.1372  0.1747
 1741TIP3    H229419   5.322   2.012  16.363  1.4355 -0.8565  1.2893
 1742TIP3   OH229420   4.482   3.550  17.853 -0.2704  0.5216  0.1394
 1742TIP3    H129421   4.531   3.565  17.934 -2.2054  1.8500  1.1439
 1742TIP3    H229422   4.477   3.636  17.811  0.9919 -0.2106 -1.6202
 1743TIP3   OH229423   5.994   0.256  18.184  0.0293  0.5564 -0.3686
 1743TIP3    H129424   5.940   0.219  18.253 -2.1290  1.7850 -1.3031
 1743TIP3    H229425   5.981   0.198  18.109  2.4745 -0.8567  0.1920
 1744TIP3   OH229426   6.642   0.214  16.195 -0.1401  0.7430 -0.1633
 1744TIP3    H129427   6.712   0.243  16.137  1.0637 -0.5819  0.5723
 1744TIP3    H229428   6.673   0.131  16.231 -1.4471  0.8503  1.3268
 1745TIP3   OH229429   2.735   2.081  18.467  0.1395 -0.5768 -0.1722
 1745TIP3    H129430   2.816   2.113  18.428  0.4151 -0.8378  0.1747
 1745TIP3    H229431   2.708   2.009  18.410  0.1402 -0.4770 -0.3000
 1746TIP3   OH229432   5.730   2.433  17.186 -0.2456  0.3003 -0.3372
 1746TIP3    H129433   5.768   2.467  17.267 -2.0639  0.8530  0.3166
 1746TIP3    H229434   5.802   2.437  17.123  1.1230  0.1627  1.1367
 1747TIP3   OH229435   4.705   6.795  16.424 -0.3072 -0.5548 -0.3561
 1747TIP3    H129436   4.671   6.878  16.390  0.2623 -0.5854 -1.0128
 1747TIP3    H229437   4.648   6.729  16.385 -0.0348 -0.5475 -0.7742
 1748TIP3   OH229438   1.788   1.852  17.649  0.2098 -0.1444  0.2169
 1748TIP3    H129439   1.813   1.932  17.603  0.0917  1.2243  2.4015
 1748TIP3    H229440   1.840   1.853  17.730  1.2584 -3.0270 -0.2796
 1749TIP3   OH229441   2.838   6.294  18.192 -0.2409 -0.0325 -0.3341
 1749TIP3    H129442   2.924   6.315  18.228 -0.1049 -0.0603 -0.6373
 1749TIP3    H229443   2.792   6.251  18.263 -0.5960  1.4585  0.3564
 1750TIP3   OH229444   6.464   0.467  18.178 -0.2102 -0.1266  0.0679
 1750TIP3    H129445   6.521   0.420  18.118 -1.1734 -0.4013 -0.6499
 1750TIP3    H229446   6.440   0.547  18.131 -2.4998 -1.2172 -0.7536
 1751TIP3   OH229447   2.166   2.210  16.675 -0.4519 -0.8664  0.3400
 1751TIP3    H129448   2.209   2.126  16.689  1.0918 -0.2141 -0.2201
 1751TIP3    H229449   2.105   2.194  16.604  1.6889 -0.9958 -1.6071
 1752TIP3   OH229450   2.070   5.009  18.085  1.2263  0.1122  0.2388
 1752TIP3    H129451   2.150   5.050  18.051  1.3879 -0.6202 -0.2962
 1752TIP3    H229452   2.084   4.915  18.072  0.2345 -0.0206  0.0521
 1753TIP3   OH229453   2.026   6.559  17.257 -0.0557 -0.5274  0.1950
 1753TIP3    H129454   2.050   6.606  17.178 -1.2873 -0.5148 -0.1829
 1753TIP3    H229455   2.060   6.470  17.244  2.7737  0.2784  1.1467
 1754TIP3   OH229456   0.360   1.948  17.210 -0.4223  0.0169 -0.0859
 1754TIP3    H129457   0.266   1.947  17.227 -0.7880 -0.4934 -1.8542
 1754TIP3    H229458   0.381   1.858  17.183  0.3362  0.3706 -0.7503
 1755TIP3   OH229459   0.658   1.467  18.136 -0.2482  0.0211 -0.0616
 1755TIP3    H129460   0.694   1.469  18.224  1.3378  0.1124 -0.6858
 1755TIP3    H229461   0.602   1.544  18.131  2.8913  2.4581 -0.4260
 1756TIP3   OH229462   1.239   6.753  16.942 -0.5136 -0.4886 -0.2515
 1756TIP3    H129463   1.296   6.699  16.887 -0.7864 -0.4602 -0.5694
 1756TIP3    H229464   1.271   6.739  17.031  0.1434 -0.2841 -0.4486
 1757TIP3   OH229465   6.184   0.686  17.621 -0.0230 -0.5042 -0.2570
 1757TIP3    H129466   6.163   0.592  17.621 -2.1542 -0.1040 -1.3367
 1757TIP3    H229467   6.102   0.728  17.647  0.6475  1.0858 -0.6298
 1758TIP3   OH229468   1.109   1.555  17.101  0.1019  0.7323  0.5845
 1758TIP3    H129469   1.204   1.560  17.115  0.3690  0.7125 -1.0856
 1758TIP3    H229470   1.086   1.639  17.061 -0.4564  0.4395  0.2772
 1759TIP3   OH229471   3.334   2.922  17.426 -0.7105 -0.1941  0.2575
 1759TIP3    H129472   3.372   3.005  17.397 -2.3063  0.4971  0.0443
 1759TIP3    H229473   3.311   2.876  17.346 -2.5899  0.5146  0.3315
 1760TIP3   OH229474   7.064   7.465  18.116 -0.2677 -0.3172 -0.0903
 1760TIP3    H129475   7.159   7.475  18.125 -0.0702 -0.5745 -1.5887
 1760TIP3    H229476   7.030   7.553  18.126  0.3320  0.0968 -1.4881
 1761TIP3   OH229477   6.639   3.428  18.995 -0.3343 -0.4191  0.4483
 1761TIP3    H129478   6.687   3.499  19.038 -0.0365  0.4661 -1.2116
 1761TIP3    H229479   6.550   3.462  18.985 -0.1915 -0.2404 -0.3481
 1762TIP3   OH229480   6.322   2.276  17.258 -0.0623 -0.1846  0.0748
 1762TIP3    H129481   6.410   2.285  17.294 -0.2015 -1.5134  0.8214
 1762TIP3    H229482   6.324   2.193  17.209 -0.9666 -0.3967  0.3756
 1763TIP3   OH229483   1.999   3.519  17.334 -0.1020  0.2830 -0.7194
 1763TIP3    H129484   1.976   3.478  17.251 -0.6242 -0.2991 -0.3006
 1763TIP3    H229485   2.092   3.500  17.345 -0.4326 -1.3040 -0.2877
 1764TIP3   OH229486   3.268   4.268  17.812  0.4911 -0.5355  0.6923
 1764TIP3    H129487   3.311   4.200  17.865 -0.2160 -1.1627  0.4910
 1764TIP3    H229488   3.291   4.247  17.722  1.2354  0.2021  0.7033
 1765TIP3   OH229489   1.173   7.214  16.999  0.4680 -0.2387  0.0502
 1765TIP3    H129490   1.264   7.233  16.980  1.3286 -3.4836  0.2343
 1765TIP3    H229491   1.171   7.197  17.093 -0.6192  0.9712  0.2758
 1766TIP3   OH229492   0.688   2.612  17.984 -0.0191  0.3460 -0.5048
 1766TIP3    H129493   0.721   2.558  18.056 -1.9044 -0.0725  0.0999
 1766TIP3    H229494   0.658   2.693  18.026 -2.4357 -0.4521 -0.5163
 1767TIP3   OH229495   5.308   3.677  18.811 -0.0582 -0.5477 -0.3367
 1767TIP3    H129496   5.359   3.757  18.819 -0.7691 -0.1110 -0.1099
 1767TIP3    H229497   5.222   3.706  18.782 -0.5477 -1.1480  0.4810
 1768TIP3   OH229498   0.283   1.794  18.248  0.2958 -0.2150 -0.1474
 1768TIP3    H129499   0.354   1.858  18.254  1.1345 -1.1064 -0.1445
 1768TIP3    H229500   0.315   1.729  18.185 -0.8645 -0.2266 -0.7499
 1769TIP3   OH229501   7.564   2.140  16.870 -0.3066 -0.2538  0.1330
 1769TIP3    H129502   7.537   2.230  16.889 -0.7129 -0.3971  0.2430
 1769TIP3    H229503   7.560   2.133  16.775  1.1090  0.2711  0.0090
 1770TIP3   OH229504   1.843   4.714  18.143 -0.0833  0.0343  0.2003
 1770TIP3    H129505   1.856   4.729  18.049 -1.2376  0.5667  0.1126
 1770TIP3    H229506   1.907   4.646  18.165  1.5513  1.2488 -0.5430
 1771TIP3   OH229507   1.183   5.092  18.707  0.2545  0.2269 -0.8594
 1771TIP3    H129508   1.109   5.143  18.739  1.6643 -0.4786  4.6476
 1771TIP3    H229509   1.147   5.003  18.696 -0.1484  0.2923 -0.1561
 1772TIP3   OH229510   1.235   4.456  17.952 -0.3157  0.1635  0.3473
 1772TIP3    H129511   1.201   4.464  17.863 -0.9387  1.9425  0.7037
 1772TIP3    H229512   1.272   4.542  17.971  1.5934 -0.7826  1.1190
 1773TIP3   OH229513   6.668   4.918  17.978 -0.6332 -0.0032 -0.1869
 1773TIP3    H129514   6.691   4.917  18.071 -1.4322  1.3971  0.0501
 1773TIP3    H229515   6.711   4.840  17.942  0.0691 -0.3170  1.2541
 1774TIP3   OH229516   4.263   6.953  17.152 -0.0622 -0.0631 -0.1603
 1774TIP3    H129517   4.262   6.877  17.210  1.9539  0.5527  0.7723
 1774TIP3    H229518   4.214   7.020  17.199 -1.1884 -0.5127 -0.6465
 1775TIP3   OH229519   3.277   6.183  18.454  0.1230 -0.7422  0.0691
 1775TIP3    H129520   3.221   6.242  18.403  0.4813  0.8573  1.4011
 1775TIP3    H229521   3.229   6.170  18.536  0.2987 -1.8976 -0.0011
 1776TIP3   OH229522   2.083   2.210  18.901  0.1367  0.9520  0.5873
 1776TIP3    H129523   2.017   2.278  18.897  0.5318  1.3160  0.2131
 1776TIP3    H229524   2.077   2.176  18.991 -1.8194 -0.3018  0.0427
 1777TIP3   OH229525   7.046   5.944  18.325  0.1639 -0.4181  0.1097
 1777TIP3    H129526   6.991   5.880  18.281  0.6785  0.6180 -2.2121
 1777TIP3    H229527   7.075   5.901  18.404 -2.7976 -1.5185  0.7212
 1778TIP3   OH229528   3.768   6.153  16.220  0.0420  0.5361  0.2518
 1778TIP3    H129529   3.847   6.099  16.217 -0.7054 -0.5479 -0.7057
 1778TIP3    H229530   3.792   6.233  16.172  0.5725  0.2445  0.0229
 1779TIP3   OH229531   0.193   2.463  16.917 -0.3247  0.4451  0.2962
 1779TIP3    H129532   0.167   2.522  16.988 -1.1352 -0.7511  1.0383
 1779TIP3    H229533   0.149   2.381  16.938  0.9236 -0.4819 -0.6122
 1780TIP3   OH229534   2.405   0.161  17.563  0.1805 -0.4224  0.1086
 1780TIP3    H129535   2.464   0.088  17.541 -0.8491 -1.1534 -0.3222
 1780TIP3    H229536   2.442   0.198  17.644  1.0885 -1.0112 -0.0191
 1781TIP3   OH229537   2.667   2.111  17.398 -0.7132 -0.1708  0.6117
 1781TIP3    H129538   2.706   2.025  17.416 -1.3318 -0.2011  1.9382
 1781TIP3    H229539   2.710   2.141  17.318 -2.1398 -2.7258 -1.2609
 1782TIP3   OH229540   3.131   6.721  18.790  0.1031  0.1762  0.0566
 1782TIP3    H129541   3.081   6.738  18.710  0.6775 -0.2021 -0.3914
 1782TIP3    H229542   3.112   6.796  18.847 -0.8639  0.1073 -0.1515
 1783TIP3   OH229543   0.662   4.419  17.937 -0.0367 -0.2937  0.1833
 1783TIP3    H129544   0.593   4.352  17.939 -0.4513  0.0669 -1.3833
 1783TIP3    H229545   0.630   4.488  17.996  0.1978 -1.2471  1.4785
 1784TIP3   OH229546   5.612   5.052  18.209 -0.1938 -0.0914  0.3552
 1784TIP3    H129547   5.637   5.003  18.288 -2.3379  0.5121  1.4939
 1784TIP3    H229548   5.538   5.003  18.172  1.8593 -1.3601 -2.3964
 1785TIP3   OH229549   3.480   1.772  18.188 -0.2231 -0.2023  0.0865
 1785TIP3    H129550   3.387   1.763  18.207 -0.3108  1.3171  0.5109
 1785TIP3    H229551   3.513   1.829  18.258  0.9115 -0.2877 -0.3598
 1786TIP3   OH229552   1.294   6.816  17.794  0.4870  0.6360 -0.2456
 1786TIP3    H129553   1.255   6.861  17.719 -0.1007  1.1569  0.3610
 1786TIP3    H229554   1.326   6.734  17.758  0.8271  1.1677 -1.2075
 1787TIP3   OH229555   2.319   4.065  17.456 -0.0995  0.2758 -0.2120
 1787TIP3    H129556   2.275   4.079  17.372  1.0520  1.7152 -0.6055
 1787TIP3    H229557   2.306   3.972  17.475  0.0002 -0.1710 -2.1905
 1788TIP3   OH229558   6.271   1.149  17.316  0.1192 -0.4631 -0.4593
 1788TIP3    H129559   6.342   1.127  17.376  2.6150 -0.6005 -3.2292
 1788TIP3    H229560   6.261   1.072  17.261 -0.8591  0.2761 -1.3614
 1789TIP3   OH229561   3.266   3.744  17.591  0.1337 -0.3400  0.3496
 1789TIP3    H129562   3.359   3.727  17.580  0.0557 -0.9206  0.5475
 1789TIP3    H229563   3.247   3.720  17.681 -0.1527  0.0466  0.3953
 1790TIP3   OH229564   2.061   0.682  18.299 -0.1083  0.2923  0.2686
 1790TIP3    H129565   2.028   0.592  18.292 -1.1264  0.4908  2.0515
 1790TIP3    H229566   1.986   0.732  18.332  1.0296  1.4184  1.2043
 1791TIP3   OH229567   0.504   6.925  16.523  0.3157 -0.1701  0.2617
 1791TIP3    H129568   0.491   6.898  16.433 -1.6292  1.8389 -0.1605
 1791TIP3    H229569   0.593   6.959  16.526  0.0947  0.5856 -1.1682
 1792TIP3   OH229570   4.396   6.170  17.685  0.2009 -0.4649  0.4743
 1792TIP3    H129571   4.419   6.108  17.754  0.4973 -0.7277  0.1383
 1792TIP3    H229572   4.397   6.256  17.729  0.4932 -0.6180  0.7711
 1793TIP3   OH229573   1.347   1.030  17.602 -0.3947 -0.0189 -0.5201
 1793TIP3    H129574   1.313   0.991  17.682 -1.8836 -1.3764 -1.7615
 1793TIP3    H229575   1.433   0.989  17.590 -0.2564  0.0316  0.2483
 1794TIP3   OH229576   1.749   4.544  17.501  0.1498 -0.4662 -0.1905
 1794TIP3    H129577   1.695   4.550  17.580 -0.5800 -1.4972 -0.5868
 1794TIP3    H229578   1.818   4.482  17.524 -0.3235 -1.1186 -0.4849
 1795TIP3   OH229579   4.405   2.029  18.052  0.1858  0.1585 -0.0550
 1795TIP3    H129580   4.480   2.043  17.995 -0.1161 -0.1451 -0.5302
 1795TIP3    H229581   4.403   2.107  18.108  0.5830  0.3760 -0.3348
 1796TIP3   OH229582   7.481   5.135  18.132  0.0390 -0.4533  0.3771
 1796TIP3    H129583   7.388   5.152  18.152 -0.3874 -1.3131 -0.7561
 1796TIP3    H229584   7.485   5.040  18.121  0.4456 -0.1921 -2.4082
 1797TIP3   OH229585   5.034   6.996  18.790 -0.0874 -0.0314 -0.1995
 1797TIP3    H129586   4.945   6.986  18.757 -0.4724  1.6423  0.2406
 1797TIP3    H229587   5.066   7.075  18.747  0.8004 -0.0108  0.4822
 1798TIP3   OH229588   4.884   4.939  18.407  0.2307  0.0776 -0.0205
 1798TIP3    H129589   4.907   4.849  18.429 -0.4525 -0.1396 -0.1501
 1798TIP3    H229590   4.837   4.971  18.485 -0.3618 -0.0035 -0.3322
 1799TIP3   OH229591   3.287   5.457  16.828 -0.6923  0.0517 -0.1759
 1799TIP3    H129592   3.342   5.432  16.903 -1.4870 -1.3557 -0.0402
 1799TIP3    H229593   3.265   5.375  16.786  1.0733  0.8768 -2.9870
 1800TIP3   OH229594   2.675   1.333  17.749  0.1698 -0.7036  0.1759
 1800TIP3    H129595   2.767   1.320  17.728  0.1299 -1.8504  0.6609
 1800TIP3    H229596   2.643   1.392  17.680  1.2535 -0.2786  0.0154
 1801TIP3   OH229597   1.712   5.311  18.706 -0.2326  0.9247 -0.0216
 1801TIP3    H129598   1.636   5.369  18.715 -1.5512 -0.9236  1.5089
 1801TIP3    H229599   1.675   5.225  18.688  1.4329 -0.1918  1.5499
 1802TIP3   OH229600   7.465   1.472  17.673  0.2355  0.3918  0.0353
 1802TIP3    H129601   7.536   1.447  17.733  0.6443  0.5387 -0.3772
 1802TIP3    H229602   7.395   1.502  17.730  0.2884 -0.3032  0.4767
 1803TIP3   OH229603   1.442   1.134  16.850  0.2329 -0.4968  0.2473
 1803TIP3    H129604   1.490   1.060  16.886  0.0195 -1.7131 -1.7836
 1803TIP3    H229605   1.508   1.201  16.835  0.7777 -1.0147  0.3073
 1804TIP3   OH229606   7.219   2.291  18.073 -0.2512 -0.2868  0.6457
 1804TIP3    H129607   7.179   2.205  18.088  1.3436 -0.7661  2.6433
 1804TIP3    H229608   7.155   2.353  18.106 -1.5557 -0.6376 -1.1018
 1805TIP3   OH229609   3.811   6.915  18.411 -0.0436  0.0548  0.0715
 1805TIP3    H129610   3.861   6.992  18.384 -1.6134  1.8244  1.8841
 1805TIP3    H229611   3.862   6.879  18.484 -0.1194  0.3277  0.2605
 1806TIP3   OH229612   5.544   6.287  18.697  0.2307  0.3734  0.2187
 1806TIP3    H129613   5.495   6.361  18.733  0.4494  0.3008  0.6730
 1806TIP3    H229614   5.586   6.322  18.618  0.3714  0.7510  0.4550
 1807TIP3   OH229615   5.765   3.979  18.857  0.2184 -0.3184  0.0167
 1807TIP3    H129616   5.747   4.048  18.793  1.5241 -1.2168 -1.4157
 1807TIP3    H229617   5.686   3.975  18.911 -1.5726 -0.4359 -2.4287
 1808TIP3   OH229618   2.847   0.099  16.620  0.3544 -0.1694 -0.0023
 1808TIP3    H129619   2.936   0.123  16.592 -0.2335  2.2792  0.0193
 1808TIP3    H229620   2.797   0.179  16.612 -1.3332 -0.8942  2.2358
 1809TIP3   OH229621   6.123   4.991  18.904  0.2388 -0.9948 -0.0544
 1809TIP3    H129622   6.086   4.917  18.856  0.7907 -0.2655 -1.6768
 1809TIP3    H229623   6.218   4.980  18.896  0.3393  0.2952 -1.0433
 1810TIP3   OH229624   3.229   4.637  17.194 -0.2758  0.5748 -0.1604
 1810TIP3    H129625   3.266   4.596  17.272 -1.7585 -0.7890 -0.1335
 1810TIP3    H229626   3.154   4.583  17.171  1.2512 -0.3334 -3.7459
 1811TIP3   OH229627   2.601   6.771  17.640  0.1866 -0.5331  0.2240
 1811TIP3    H129628   2.540   6.829  17.686 -0.0466 -0.7584  0.2015
 1811TIP3    H229629   2.687   6.812  17.653 -0.0581  0.2201 -0.4078
 1812TIP3   OH229630   1.398   1.856  16.005  0.5069  0.0122 -0.0952
 1812TIP3    H129631   1.364   1.766  16.012  1.8737 -0.4407  1.2427
 1812TIP3    H229632   1.482   1.846  15.962 -0.9912  1.1605 -3.6177
 1813TIP3   OH229633   1.086   6.767  16.587  0.0804 -0.0241  0.6635
 1813TIP3    H129634   1.013   6.788  16.528  1.4462  0.7394 -0.8449
 1813TIP3    H229635   1.056   6.795  16.673 -1.7592 -0.6024  0.2587
 1814TIP3   OH229636   0.380   4.208  18.656  0.2760 -1.1475 -0.4860
 1814TIP3    H129637   0.394   4.113  18.651 -0.2073 -1.1572 -2.3926
 1814TIP3    H229638   0.321   4.227  18.583  0.6441  0.6736 -0.3443
 1815TIP3   OH229639   1.996   6.290  17.655 -0.0392  0.4259 -0.6192
 1815TIP3    H129640   1.905   6.262  17.666  0.2801 -0.6062 -0.5169
 1815TIP3    H229641   2.027   6.242  17.578  0.5569  0.4207 -0.3802
 1816TIP3   OH229642   7.301   2.625  18.227  0.2564  0.2419  0.1763
 1816TIP3    H129643   7.293   2.591  18.317 -0.3474  0.8864  0.3722
 1816TIP3    H229644   7.303   2.547  18.172 -2.0570 -0.1472  0.5335
 1817TIP3   OH229645   7.089   2.337  17.805 -0.1441 -0.0697  0.3356
 1817TIP3    H129646   7.061   2.250  17.777  1.8749 -0.5270 -0.4416
 1817TIP3    H229647   7.046   2.349  17.890 -1.2425 -1.3881  0.0159
 1818TIP3   OH229648   1.707   2.193  16.621  0.3639 -0.1779  0.1716
 1818TIP3    H129649   1.802   2.187  16.631  0.1444 -0.8133  2.5136
 1818TIP3    H229650   1.681   2.107  16.589  0.3999 -0.8206  1.7766
 1819TIP3   OH229651   1.841   1.915  18.830  0.2259 -0.2088  0.4731
 1819TIP3    H129652   1.875   1.828  18.852  1.5562  0.0204 -0.5403
 1819TIP3    H229653   1.907   1.953  18.772 -2.1182 -0.0462 -2.3560
 1820TIP3   OH229654   1.661   1.321  18.062 -0.3063 -0.1659  0.6329
 1820TIP3    H129655   1.742   1.281  18.028  0.6057  1.1129  1.2024
 1820TIP3    H229656   1.645   1.275  18.145 -1.0122 -1.4233 -0.1679
 1821TIP3   OH229657   5.643   4.018  18.285 -0.4951  0.1411  0.1445
 1821TIP3    H129658   5.568   4.052  18.333 -2.0681 -2.9670  0.1914
 1821TIP3    H229659   5.695   3.972  18.351  0.3182  0.4621 -0.2544
 1822TIP3   OH229660   0.710   4.674  17.558 -0.6008  0.2966 -0.2723
 1822TIP3    H129661   0.637   4.614  17.545  1.2296 -1.8744 -1.1087
 1822TIP3    H229662   0.725   4.674  17.652 -1.9132  1.1293 -0.0340
 1823TIP3   OH229663   1.762   5.743  16.711  0.3061 -0.2794  0.1904
 1823TIP3    H129664   1.837   5.698  16.671 -0.5928 -1.0182 -0.7014
 1823TIP3    H229665   1.750   5.700  16.795 -1.2772 -2.6415 -1.1241
 1824TIP3   OH229666   5.556   3.938  17.486  0.0598  0.1384 -0.6355
 1824TIP3    H129667   5.580   3.882  17.412  0.7889 -1.5871  0.8167
 1824TIP3    H229668   5.640   3.969  17.521 -0.3382  2.8933 -1.8534
 1825TIP3   OH229669   1.117   2.769  16.500  0.1874  0.0526 -0.1241
 1825TIP3    H129670   1.066   2.786  16.580  0.9312  0.5024  0.2694
 1825TIP3    H229671   1.092   2.840  16.441 -0.5069 -0.3874 -0.3687
 1826TIP3   OH229672   5.995   3.569  16.353 -0.9824 -0.3871 -0.2906
 1826TIP3    H129673   5.939   3.498  16.386 -0.3361 -0.6951  0.1599
 1826TIP3    H229674   6.038   3.603  16.431 -1.2560  0.4860 -0.5088
 1827TIP3   OH229675   2.232   2.311  16.216 -0.4118  0.0789 -0.4049
 1827TIP3    H129676   2.146   2.330  16.179 -0.1949 -1.0547 -1.5789
 1827TIP3    H229677   2.217   2.234  16.271 -0.6480  1.5034  1.6333
 1828TIP3   OH229678   3.122   5.954  16.848  0.1621  0.2105  0.3830
 1828TIP3    H129679   3.122   5.860  16.829 -0.6564  0.0279  1.2205
 1828TIP3    H229680   3.036   5.985  16.822  0.9227  1.0454 -1.2537
 1829TIP3   OH229681   1.966   6.131  18.030  0.5155  0.0139  0.2498
 1829TIP3    H129682   2.014   6.099  17.954 -0.8590  1.9067 -1.5383
 1829TIP3    H229683   1.966   6.058  18.092  3.5039 -0.8716 -0.6554
 1830TIP3   OH229684   3.285   0.382  18.217 -0.0716 -0.2347 -0.1519
 1830TIP3    H129685   3.284   0.322  18.143  2.5688 -1.1231  0.4144
 1830TIP3    H229686   3.208   0.437  18.205 -0.8500 -1.6952 -2.4027
 1831TIP3   OH229687   2.175   6.382  17.885 -0.3870  0.0532 -0.1468
 1831TIP3    H129688   2.222   6.314  17.837 -1.2826 -1.1074  0.5348
 1831TIP3    H229689   2.096   6.397  17.834  0.2415  1.3012 -0.7895
 1832TIP3   OH229690   3.095   4.771  17.496 -0.3102 -0.2857 -0.0274
 1832TIP3    H129691   3.137   4.851  17.464  0.9864 -1.3160 -1.0384
 1832TIP3    H229692   3.002   4.791  17.495  0.0267  2.5500  3.4398
 1833TIP3   OH229693   5.445   1.041  17.362 -0.1762  0.1096  0.0118
 1833TIP3    H129694   5.470   1.021  17.453 -2.5220 -0.5100  0.5928
 1833TIP3    H229695   5.413   0.958  17.327  1.6480  0.0891 -1.7837
 1834TIP3   OH229696   3.323   5.682  16.085 -0.0441 -0.2104  0.4520
 1834TIP3    H129697   3.306   5.595  16.122 -1.3641  0.5426  1.7163
 1834TIP3    H229698   3.396   5.716  16.137 -0.4728 -0.0101  0.9329
 1835TIP3   OH229699   3.502   3.353  18.183 -0.0103  0.3121  0.1950
 1835TIP3    H129700   3.495   3.258  18.197 -0.7814  0.2379 -0.6446
 1835TIP3    H229701   3.596   3.371  18.193  0.1230 -0.4991  0.5714
 1836TIP3   OH229702   4.840   4.585  18.722  0.1976  0.9414  0.0467
 1836TIP3    H129703   4.898   4.642  18.672 -0.2324  0.6193 -0.8377
 1836TIP3    H229704   4.784   4.544  18.656 -1.2553  1.4938  0.8909
 1837TIP3   OH229705   5.342   0.115  16.636 -0.2125 -0.8526 -0.5758
 1837TIP3    H129706   5.391   0.151  16.563 -1.3553 -1.0045 -1.4529
 1837TIP3    H229707   5.250   0.122  16.609 -0.8462  1.0777  1.7150
 1838TIP3   OH229708   1.711   5.890  18.215  0.0739  0.5308  0.2164
 1838TIP3    H129709   1.764   5.963  18.245 -0.7676  1.3703 -0.2832
 1838TIP3    H229710   1.670   5.921  18.134  0.2172 -0.7309 -0.3581
 1839TIP3   OH229711   5.822   3.458  18.799  0.1215  0.5236 -0.4386
 1839TIP3    H129712   5.824   3.553  18.812  0.7998  0.2237  2.1282
 1839TIP3    H229713   5.735   3.432  18.829 -0.7007  0.4215 -2.6601
 1840TIP3   OH229714   6.611   3.085  18.041  0.0893  0.6229 -0.0642
 1840TIP3    H129715   6.628   3.131  18.123  0.2840  0.7415 -0.1730
 1840TIP3    H229716   6.608   3.154  17.974 -0.1261  0.5337 -0.1489
 1841TIP3   OH229717   3.387   4.183  17.559  0.1611 -0.2075  0.1980
 1841TIP3    H129718   3.379   4.224  17.473 -0.8127  0.9295  0.7976
 1841TIP3    H229719   3.329   4.107  17.555 -0.9131  0.5863  0.2532
 1842TIP3   OH229720   6.613   6.266  17.629 -0.5070  0.2557 -0.1164
 1842TIP3    H129721   6.617   6.213  17.709  0.8894 -0.4273 -0.6022
 1842TIP3    H229722   6.655   6.349  17.654  0.3833 -0.1425 -0.2590
 1843TIP3   OH229723   6.223   7.144  17.462  0.0552 -0.3302  0.1724
 1843TIP3    H129724   6.148   7.143  17.403  0.2248 -1.9014 -0.0437
 1843TIP3    H229725   6.299   7.142  17.404  0.3140  1.3632  0.3863
 1844TIP3   OH229726   5.760   0.515  17.038  0.2068 -0.0632 -0.4039
 1844TIP3    H129727   5.846   0.520  16.997  1.1964  0.6145  1.6007
 1844TIP3    H229728   5.725   0.431  17.010  2.0266 -0.8768 -0.3786
 1845TIP3   OH229729   5.517   7.262  16.767 -0.2227  0.3265  0.5551
 1845TIP3    H129730   5.507   7.342  16.818 -1.6409 -0.7026  2.0053
 1845TIP3    H229731   5.606   7.233  16.784  0.9399  2.4264 -1.3760
 1846TIP3   OH229732   2.977   4.274  17.883 -0.2560 -0.6033  0.4935
 1846TIP3    H129733   2.930   4.357  17.895 -2.5429 -1.6892 -0.4894
 1846TIP3    H229734   3.052   4.297  17.827 -0.0475  1.0142  1.3628
 1847TIP3   OH229735   6.635   0.665  18.300  0.2462 -0.3405 -0.1736
 1847TIP3    H129736   6.639   0.573  18.275 -0.1352 -0.3422 -0.2378
 1847TIP3    H229737   6.677   0.711  18.227  0.6384 -0.4785 -0.0374
 1848TIP3   OH229738   6.475   2.839  15.698 -0.2849 -0.2217 -0.0831
 1848TIP3    H129739   6.539   2.909  15.714 -0.9364  0.2302  0.5993
 1848TIP3    H229740   6.390   2.881  15.710 -0.6838 -1.4507  1.8046
 1849TIP3   OH229741   3.648   1.971  17.593 -0.4608 -0.6569 -0.2366
 1849TIP3    H129742   3.553   1.958  17.597 -0.4488 -0.4172  1.0354
 1849TIP3    H229743   3.670   1.954  17.501 -1.6864 -1.0076 -0.4858
 1850TIP3   OH229744   2.913   0.141  17.583 -0.6379 -0.4208 -0.2570
 1850TIP3    H129745   2.994   0.097  17.558 -0.7582 -1.5352  1.2227
 1850TIP3    H229746   2.911   0.136  17.678 -2.7108 -0.8993 -0.2812
 1851TIP3   OH229747   3.919   5.884  18.044  0.2922 -0.1174 -0.3618
 1851TIP3    H129748   3.898   5.862  18.135  1.8348 -0.3551 -0.0442
 1851TIP3    H229749   3.906   5.979  18.040  1.2603  0.0694  0.4233
 1852TIP3   OH229750   6.587   2.851  17.865  0.2940 -0.2690  0.2932
 1852TIP3    H129751   6.613   2.917  17.930  2.5991 -1.5797  0.8331
 1852TIP3    H229752   6.593   2.768  17.912  0.0618 -1.0838 -1.0756
 1853TIP3   OH229753   3.891   3.545  18.569  0.2421 -0.6748  0.1464
 1853TIP3    H129754   3.921   3.549  18.659 -0.6134  0.0511  0.4137
 1853TIP3    H229755   3.887   3.636  18.540 -1.3739 -0.7437  0.0407
 1854TIP3   OH229756   6.027   6.388  17.992 -0.3155 -0.4323  0.2771
 1854TIP3    H129757   5.991   6.396  18.080 -1.5221 -1.6237 -0.0803
 1854TIP3    H229758   6.101   6.328  18.001  1.3142  1.5448  0.9056
 1855TIP3   OH229759   5.613   2.357  16.423  0.0653 -0.0214  0.1960
 1855TIP3    H129760   5.702   2.366  16.389 -0.5499  1.9056 -1.0833
 1855TIP3    H229761   5.557   2.376  16.348 -1.4186  0.0077  1.2719
 1856TIP3   OH229762   4.891   7.212  16.957  0.5464  0.2072  0.2655
 1856TIP3    H129763   4.871   7.169  17.040 -0.0047 -0.0530  0.0081
 1856TIP3    H229764   4.912   7.141  16.897  3.3503  0.5226  0.7772
 1857TIP3   OH229765   3.951   0.884  18.390 -0.4478  1.0084  0.2474
 1857TIP3    H129766   3.931   0.915  18.301 -0.6863  0.2992  0.0447
 1857TIP3    H229767   4.034   0.926  18.412 -0.1167  0.7838 -0.5237
 1858TIP3   OH229768   5.550   1.483  15.940 -0.5207 -0.2551  0.2262
 1858TIP3    H129769   5.498   1.500  16.018  1.1811  1.2638  1.1139
 1858TIP3    H229770   5.504   1.413  15.894 -2.5721  0.1165  1.6204
 1859TIP3   OH229771   0.730   3.963  17.482  0.3962  0.4732 -0.1747
 1859TIP3    H129772   0.679   3.891  17.446  0.0464  2.3765 -3.9373
 1859TIP3    H229773   0.821   3.937  17.469  0.2893  0.2864 -0.5545
 1860TIP3   OH229774   5.588   5.466  16.670  0.4447 -0.2864  0.0238
 1860TIP3    H129775   5.649   5.539  16.674 -1.6535  1.5228  1.9358
 1860TIP3    H229776   5.595   5.424  16.756 -1.2777  0.2955  0.4990
 1861TIP3   OH229777   7.152   2.786  18.475  0.3576  0.0020  0.4415
 1861TIP3    H129778   7.116   2.832  18.400  0.4273 -1.0624 -0.2594
 1861TIP3    H229779   7.211   2.849  18.516 -0.6955  1.0538  0.4013
 1862TIP3   OH229780   1.000   6.955  18.722 -0.4868 -0.2070  0.2740
 1862TIP3    H129781   0.990   6.923  18.632  0.3441  0.0662  0.0770
 1862TIP3    H229782   1.012   7.050  18.713  0.1875 -0.2514  0.6241
 1863TIP3   OH229783   4.276   7.541  17.515  0.1011 -0.3379  0.4326
 1863TIP3    H129784   4.356   7.590  17.534  0.1984 -0.5020  0.4419
 1863TIP3    H229785   4.278   7.526  17.421  0.0192 -0.2332  0.4145
 1864TIP3   OH229786   3.651   0.403  18.739 -0.3918  0.4067  0.4493
 1864TIP3    H129787   3.592   0.370  18.807 -0.4173 -0.2216  0.1303
 1864TIP3    H229788   3.652   0.497  18.752 -1.0907  0.3760  0.7640
 1865TIP3   OH229789   0.230   4.395  17.287 -0.2643 -0.3127 -0.2486
 1865TIP3    H129790   0.177   4.323  17.255 -0.7082 -0.0574 -0.0914
 1865TIP3    H229791   0.308   4.395  17.231 -0.3548 -0.7876 -0.3740
 1866TIP3   OH229792   6.812   0.487  17.866  0.0922  0.3008  0.5376
 1866TIP3    H129793   6.854   0.443  17.793 -0.4919  0.4151  0.1202
 1866TIP3    H229794   6.785   0.572  17.830 -0.6896  0.1386  0.7208
 1867TIP3   OH229795   3.540   0.960  18.391  0.1884 -0.4242  0.0953
 1867TIP3    H129796   3.601   0.920  18.329  0.6315  1.7501 -0.9781
 1867TIP3    H229797   3.516   0.889  18.450  0.5497 -2.3581 -1.9342
 1868TIP3   OH229798   5.398   1.186  16.458 -0.0825  0.5371 -0.1200
 1868TIP3    H129799   5.416   1.262  16.404 -1.0190  0.2054 -0.9254
 1868TIP3    H229800   5.442   1.114  16.413  0.2949  0.4999  0.3095
 1869TIP3   OH229801   3.249   1.230  16.908 -0.1015  0.0047  0.0797
 1869TIP3    H129802   3.268   1.160  16.846 -2.3963 -0.1594 -0.5119
 1869TIP3    H229803   3.241   1.309  16.853 -0.6038  0.1511  0.3633
 1870TIP3   OH229804   5.106   6.095  18.098 -0.2280  0.1819  0.0860
 1870TIP3    H129805   5.034   6.158  18.098 -0.4344  0.0014  1.8375
 1870TIP3    H229806   5.144   6.102  18.186  1.7772  0.1358 -0.7475
 1871TIP3   OH229807   2.844   5.477  18.236  0.0825 -0.2842  0.3471
 1871TIP3    H129808   2.765   5.508  18.280 -0.0522 -0.3842  0.1778
 1871TIP3    H229809   2.903   5.552  18.237  0.7614 -0.7872  2.2558
 1872TIP3   OH229810   4.718   6.849  19.023  0.1747 -0.0860 -0.2016
 1872TIP3    H129811   4.667   6.874  18.946 -1.0414 -1.0631  0.2523
 1872TIP3    H229812   4.718   6.929  19.077 -1.0778 -0.1153 -0.1209
 1873TIP3   OH229813   4.860   3.689  16.987  0.0280 -0.3565 -0.2190
 1873TIP3    H129814   4.905   3.765  17.025  0.2302  0.0704 -1.2867
 1873TIP3    H229815   4.926   3.620  16.988 -0.4956 -0.9217  1.8494
 1874TIP3   OH229816   7.169   7.403  17.357 -0.2501 -0.2578  0.7652
 1874TIP3    H129817   7.107   7.376  17.290 -1.4220  1.7589  0.9672
 1874TIP3    H229818   7.175   7.498  17.348  2.7478 -0.3217  0.8420
 1875TIP3   OH229819   5.049   3.871  17.100 -0.5214  0.6126  0.1866
 1875TIP3    H129820   5.031   3.862  17.194 -5.1656  0.0538 -0.4967
 1875TIP3    H229821   5.127   3.817  17.085 -0.3859 -0.3471  3.5131
 1876TIP3   OH229822   4.330   3.798  17.461  0.4051 -0.3275  0.0366
 1876TIP3    H129823   4.375   3.865  17.409 -0.0422 -0.6972 -0.8351
 1876TIP3    H229824   4.380   3.718  17.445  0.4139 -0.3932  0.3809
 1877TIP3   OH229825   5.083   0.089  17.418  0.6999 -0.7045 -0.1246
 1877TIP3    H129826   5.153   0.101  17.354  1.4913 -0.0652  0.8347
 1877TIP3    H229827   5.129   0.079  17.502 -0.3221 -1.2462  0.3823
 1878TIP3   OH229828   2.794   1.827  16.778  0.1883  0.4783 -0.2091
 1878TIP3    H129829   2.768   1.908  16.822  0.7502  0.0092  1.0350
 1878TIP3    H229830   2.759   1.757  16.834  1.3546 -0.1362 -0.2291
 1879TIP3   OH229831   3.181   5.047  18.673  0.1734  0.1724 -0.4342
 1879TIP3    H129832   3.249   5.066  18.608  0.0021 -0.7746 -0.9081
 1879TIP3    H229833   3.177   5.126  18.727  0.2237  1.0455 -1.6571
 1880TIP3   OH229834   3.225   1.202  18.087  0.1808 -0.0152  0.0713
 1880TIP3    H129835   3.238   1.122  18.036 -1.9037 -0.3006 -0.0725
 1880TIP3    H229836   3.188   1.265  18.025 -0.2244  0.3748  0.6995
 1881TIP3   OH229837   5.220   2.601  17.627 -0.1311  0.2162  0.1791
 1881TIP3    H129838   5.136   2.591  17.671 -0.2998  2.3731  0.4699
 1881TIP3    H229839   5.206   2.568  17.538 -1.3823  0.7988  0.1480
 1882TIP3   OH229840   0.121   4.119  18.203 -0.4753 -0.3378 -0.2557
 1882TIP3    H129841   0.163   4.131  18.118 -0.4191  0.8734 -0.0713
 1882TIP3    H229842   0.028   4.105  18.182 -0.3635 -0.6910 -0.5369
 1883TIP3   OH229843   2.983   0.409  16.672  0.6857  0.4131  0.2735
 1883TIP3    H129844   2.932   0.409  16.591 -0.3371 -0.1365  0.8955
 1883TIP3    H229845   3.074   0.404  16.643  0.4195  1.5145 -0.8668
 1884TIP3   OH229846   7.282   1.394  16.727  0.2984  0.0698  0.2286
 1884TIP3    H129847   7.283   1.476  16.776 -1.0825  0.1732  0.1310
 1884TIP3    H229848   7.194   1.358  16.743  0.1383 -0.3500 -1.4139
 1885TIP3   OH229849   1.466   4.334  16.341 -0.2503 -0.5953  0.1360
 1885TIP3    H129850   1.516   4.370  16.415  0.1355 -2.5429  0.8661
 1885TIP3    H229851   1.519   4.261  16.309 -1.3171 -0.9615 -0.8673
 1886TIP3   OH229852   2.240   0.500  17.838  0.5381 -0.3554 -0.4033
 1886TIP3    H129853   2.168   0.439  17.821  0.4171 -0.0272 -1.1086
 1886TIP3    H229854   2.285   0.464  17.914  0.6328 -1.4688 -0.9739
 1887TIP3   OH229855   6.791   1.863  18.419  0.4551  0.0185  0.0492
 1887TIP3    H129856   6.780   1.806  18.343  1.5876 -0.3084  0.1097
 1887TIP3    H229857   6.886   1.873  18.427  0.2921  1.6688  0.2226
 1888TIP3   OH229858   7.410   0.789  18.539  0.5081 -0.3854  0.0901
 1888TIP3    H129859   7.488   0.762  18.587  0.9248  0.1883 -0.2582
 1888TIP3    H229860   7.440   0.802  18.449  0.1474  0.4407  0.0854
 1889TIP3   OH229861   2.257   5.517  17.954  0.0923 -0.8172 -0.4598
 1889TIP3    H129862   2.214   5.433  17.967  0.6816 -1.0026  0.4079
 1889TIP3    H229863   2.198   5.567  17.897 -1.0293 -1.2225  0.3278
 1890TIP3   OH229864   1.837   2.151  18.111 -0.1118 -0.0422  0.3195
 1890TIP3    H129865   1.760   2.204  18.091 -0.7962 -1.3801 -0.7676
 1890TIP3    H229866   1.909   2.194  18.064  0.1316  1.9456  2.3632
 1891TIP3   OH229867   6.015   1.353  18.546 -0.2157  0.7972 -0.1593
 1891TIP3    H129868   6.053   1.292  18.608 -1.3489  0.1088 -0.1052
 1891TIP3    H229869   6.076   1.427  18.544  0.7607  0.0348  0.3896
 1892TIP3   OH229870   5.132   4.560  17.550 -0.1759 -0.2303  0.1113
 1892TIP3    H129871   5.092   4.559  17.464 -1.8358 -1.7669  0.8470
 1892TIP3    H229872   5.076   4.618  17.602 -0.2576 -0.7615  0.6229
 1893TIP3   OH229873   1.409   3.764  18.494  0.4427 -0.7877 -0.5500
 1893TIP3    H129874   1.362   3.841  18.527  1.9337 -0.8795  1.9857
 1893TIP3    H229875   1.406   3.774  18.398 -1.6072  1.0424 -0.3826
 1894TIP3   OH229876   4.563   6.607  16.298 -0.4296 -0.4232  0.9002
 1894TIP3    H129877   4.472   6.635  16.303 -0.8146 -1.3872 -0.3072
 1894TIP3    H229878   4.560   6.512  16.297  0.4086 -0.5001 -1.2149
 1895TIP3   OH229879   5.143   4.039  17.935 -0.4711  0.3961  0.5768
 1895TIP3    H129880   5.235   4.060  17.951 -0.3582  0.6176 -0.3177
 1895TIP3    H229881   5.130   3.956  17.980 -0.0907  0.8259  1.5049
 1896TIP3   OH229882   0.119   0.351  17.764  0.1857  0.2129 -0.2653
 1896TIP3    H129883   0.188   0.290  17.790  0.1930 -0.1799 -1.1808
 1896TIP3    H229884   0.140   0.374  17.673 -0.0086  1.3097 -0.0529
 1897TIP3   OH229885   3.755   1.086  17.257 -0.1355  0.3499  0.0607
 1897TIP3    H129886   3.692   1.079  17.329 -0.6577  0.1906 -0.4010
 1897TIP3    H229887   3.727   1.163  17.208 -0.5003 -0.2023 -0.6291
 1898TIP3   OH229888   5.036   4.801  18.120 -0.7627  0.2245  0.4004
 1898TIP3    H129889   5.096   4.758  18.180 -1.0152  0.0076  0.4997
 1898TIP3    H229890   5.068   4.778  18.033 -0.6548  0.1764  0.4535
 1899TIP3   OH229891   6.014   7.110  18.544 -0.3798  0.0516 -0.0198
 1899TIP3    H129892   6.015   7.132  18.637 -1.7439  0.9991 -0.1991
 1899TIP3    H229893   5.978   7.022  18.540 -0.6058  0.1268  0.3423
 1900TIP3   OH229894   1.145   6.239  17.243 -0.2330  0.0518  0.2014
 1900TIP3    H129895   1.187   6.292  17.175  0.1673 -0.0769  0.3421
 1900TIP3    H229896   1.196   6.158  17.245  0.5787  0.5692  1.5454
 1901TIP3   OH229897   1.242   0.200  17.880 -0.8628  0.4920 -0.1272
 1901TIP3    H129898   1.184   0.233  17.812  0.1206  0.5354 -0.9761
 1901TIP3    H229899   1.206   0.236  17.962 -1.8565  0.7253 -0.6522
 1902TIP3   OH229900   2.523   4.722  17.913  0.2643  0.4676 -0.0785
 1902TIP3    H129901   2.463   4.723  17.839 -1.0479 -0.5267  0.9321
 1902TIP3    H229902   2.468   4.703  17.989  1.6225  1.1234  1.1234
 1903TIP3   OH229903   5.263   0.364  16.183  1.0349  0.6187 -0.3220
 1903TIP3    H129904   5.204   0.294  16.156  0.0354  0.9761  0.8632
 1903TIP3    H229905   5.249   0.372  16.278  3.0730  0.6264  0.0265
 1904TIP3   OH229906   5.173   6.750  18.709 -0.2850  0.6638 -0.0647
 1904TIP3    H129907   5.116   6.684  18.748  0.7239  0.2494  0.7531
 1904TIP3    H229908   5.160   6.828  18.762 -1.2680  1.0625 -0.8620
 1905TIP3   OH229909   2.236   6.928  17.726 -0.6275 -0.1736  0.0396
 1905TIP3    H129910   2.321   6.971  17.719  0.1846 -1.9074 -2.0387
 1905TIP3    H229911   2.257   6.835  17.737 -2.2767 -0.5234  0.5184
 1906TIP3   OH229912   4.276   1.909  17.215 -0.4444  0.3456  0.0840
 1906TIP3    H129913   4.369   1.928  17.216 -0.3691  0.1792 -1.1940
 1906TIP3    H229914   4.266   1.831  17.269  0.0061  0.9233  1.0147
 1907TIP3   OH229915   0.795   5.156  16.126 -0.3502 -0.2088  0.1682
 1907TIP3    H129916   0.702   5.161  16.149 -0.2070 -0.0967  0.7310
 1907TIP3    H229917   0.815   5.243  16.090 -0.3589 -0.0916  0.4440
 1908TIP3   OH229918   2.675   5.382  16.983  1.2463 -0.3240  0.1679
 1908TIP3    H129919   2.732   5.314  16.946  0.4083 -2.5512  2.6506
 1908TIP3    H229920   2.659   5.353  17.073 -1.0869  1.9916  0.6064
 1909TIP3   OH229921   3.942   2.236  16.614 -0.3624 -0.0378  0.1930
 1909TIP3    H129922   3.932   2.174  16.543  0.7466 -0.3311  0.2762
 1909TIP3    H229923   3.966   2.318  16.571 -1.4812  0.2687  0.1099
 1910TIP3   OH229924   4.106   7.666  17.680 -0.3379  0.3391 -0.1631
 1910TIP3    H129925   4.073   7.741  17.631 -1.0415  0.0068 -0.2084
 1910TIP3    H229926   4.162   7.618  17.618 -1.9110 -0.5602 -0.9433
 1911TIP3   OH229927   5.373   5.190  17.526 -0.4927 -0.1034 -0.1330
 1911TIP3    H129928   5.415   5.111  17.492 -0.5515 -0.7631  1.2718
 1911TIP3    H229929   5.280   5.179  17.506 -0.6571 -0.9073  0.9598
 1912TIP3   OH229930   1.199   4.655  18.512 -0.0619 -0.5763 -0.0086
 1912TIP3    H129931   1.283   4.694  18.538  0.0438 -0.2650 -0.8015
 1912TIP3    H229932   1.134   4.716  18.547  0.0584 -0.5046  0.0963
 1913TIP3   OH229933   5.377   7.273  15.857  0.5220 -0.3318  0.1370
 1913TIP3    H129934   5.349   7.348  15.806 -1.4049 -1.1472 -0.0765
 1913TIP3    H229935   5.414   7.311  15.937 -0.6906  0.8370  0.1707
 1914TIP3   OH229936   6.985   4.882  18.728 -0.2205 -0.7464  0.3209
 1914TIP3    H129937   7.012   4.929  18.649 -4.1843 -1.9842 -2.0981
 1914TIP3    H229938   7.046   4.809  18.734 -0.4645 -1.2942 -2.4108
 1915TIP3   OH229939   4.011   0.623  17.865  0.0113  0.4078  0.7760
 1915TIP3    H129940   4.006   0.719  17.869  2.7466  0.5886  1.7641
 1915TIP3    H229941   4.032   0.597  17.955  1.4540 -0.9059  0.0950
 1916TIP3   OH229942   2.742   0.454  19.111  0.2647 -0.5185  0.6878
 1916TIP3    H129943   2.755   0.451  19.017 -0.6147 -1.2031  0.5741
 1916TIP3    H229944   2.829   0.436  19.148  0.5119 -0.7506  0.0118
 1917TIP3   OH229945   6.452   0.719  17.248 -0.6087 -0.0385  0.1027
 1917TIP3    H129946   6.395   0.646  17.222 -0.5107  0.2404 -0.9162
 1917TIP3    H229947   6.419   0.746  17.334 -1.1730 -0.7328  0.1120
 1918TIP3   OH229948   3.773   7.022  17.972 -0.1702 -0.3645 -0.0068
 1918TIP3    H129949   3.811   6.952  18.025  1.4937  0.2195 -0.3563
 1918TIP3    H229950   3.750   7.090  18.035 -2.2409 -1.3712  0.3861
 1919TIP3   OH229951   6.531   1.498  17.768  0.4304 -0.1453 -0.3752
 1919TIP3    H129952   6.541   1.510  17.673  0.2881  2.8475 -0.0966
 1919TIP3    H229953   6.447   1.453  17.777 -1.2031  2.3801 -1.6711
 1920TIP3   OH229954   5.200   2.352  16.988  0.0814  0.0817 -0.1410
 1920TIP3    H129955   5.216   2.421  17.053  0.3008 -0.8528  0.8204
 1920TIP3    H229956   5.174   2.400  16.909  1.0729  1.3103  0.2389
 1921TIP3   OH229957   3.990   4.894  17.348  0.0533  0.2993  0.1183
 1921TIP3    H129958   3.949   4.980  17.362  0.3883  0.7599 -1.4408
 1921TIP3    H229959   3.927   4.847  17.293  0.8837  0.4542 -1.0181
 1922TIP3   OH229960   7.367   1.917  18.110 -0.4357  0.2218 -0.9019
 1922TIP3    H129961   7.440   1.903  18.050 -0.8309 -1.7729 -0.9820
 1922TIP3    H229962   7.407   1.958  18.187  0.8371 -1.0069 -0.8686
 1923TIP3   OH229963   2.119   7.586  17.721  0.3394 -0.5380  0.1517
 1923TIP3    H129964   2.065   7.529  17.776  0.5746 -1.8751 -0.9662
 1923TIP3    H229965   2.058   7.619  17.655  0.2591  0.3598  0.6511
 1924TIP3   OH229966   3.140   0.462  16.970  0.2766  0.3130 -0.0679
 1924TIP3    H129967   3.084   0.395  17.010 -0.1643  0.2782 -0.7207
 1924TIP3    H229968   3.197   0.412  16.911 -0.5583  0.5734 -1.1214
 1925TIP3   OH229969   6.011   0.734  17.997 -0.4756  0.5570  0.2616
 1925TIP3    H129970   5.933   0.784  17.972  1.0858  2.9301 -0.2700
 1925TIP3    H229971   6.020   0.668  17.929 -2.2076 -0.0065  0.5467
 1926TIP3   OH229972   4.371   3.427  18.124  0.3542  0.2844  0.5196
 1926TIP3    H129973   4.328   3.431  18.038 -1.1771 -2.3853  1.0552
 1926TIP3    H229974   4.436   3.357  18.115  1.1625  0.9350  1.1629
 1927TIP3   OH229975   1.984   1.876  18.459  0.0491  0.1723 -0.1919
 1927TIP3    H129976   1.981   1.878  18.363  0.7783  1.5946 -0.2170
 1927TIP3    H229977   2.046   1.945  18.482 -0.6075  0.2869  1.3382
 1928TIP3   OH229978   3.618   1.558  18.215  0.3741 -0.3963 -0.3094
 1928TIP3    H129979   3.664   1.604  18.285  0.7067 -1.1840 -0.0007
 1928TIP3    H229980   3.564   1.625  18.174  0.4307  0.1472  0.4865
 1929TIP3   OH229981   1.568   3.938  17.637  0.7189 -0.5085  0.1339
 1929TIP3    H129982   1.509   3.867  17.662  0.3287  0.0278  0.7919
 1929TIP3    H229983   1.516   3.992  17.577  0.9202 -0.6326 -0.1532
 1930TIP3   OH229984   0.797   1.887  17.156  0.5203 -0.2394  0.0364
 1930TIP3    H129985   0.779   1.807  17.204  0.7433  0.1394  0.7826
 1930TIP3    H229986   0.713   1.931  17.149  0.3341 -0.7113 -0.7011
 1931TIP3   OH229987   0.827   6.557  18.354  0.4293 -0.6830 -0.2534
 1931TIP3    H129988   0.917   6.585  18.335  0.3176 -0.4924 -0.5054
 1931TIP3    H229989   0.818   6.566  18.449  0.1841  0.7637 -0.4009
 1932TIP3   OH229990   0.326   7.149  16.394 -0.5596 -0.0714  0.2969
 1932TIP3    H129991   0.400   7.119  16.447 -0.4994  1.0382  0.8570
 1932TIP3    H229992   0.352   7.236  16.363 -1.6363  0.3445  0.5253
 1933TIP3   OH229993   7.453   3.822  18.345 -0.5281 -0.8530  0.3817
 1933TIP3    H129994   7.378   3.875  18.317 -0.3891 -2.0269 -2.5140
 1933TIP3    H229995   7.431   3.733  18.319  0.6046 -1.7341  2.2765
 1934TIP3   OH229996   3.246   4.379  16.993 -0.0092 -0.1804 -0.0411
 1934TIP3    H129997   3.339   4.399  16.986 -0.1764  1.8356  2.0628
 1934TIP3    H229998   3.207   4.418  16.914  0.6689  1.1430  0.2472
 1935TIP3   OH229999   6.195   4.975  16.574  0.1848 -0.2450  0.1784
 1935TIP3    H130000   6.219   4.996  16.665  0.7597 -1.2828  0.2795
 1935TIP3    H230001   6.111   4.931  16.582 -0.9110  1.6974 -0.0147
 1936TIP3   OH230002   6.159   1.399  17.346 -0.4189  0.4299 -0.0757
 1936TIP3    H130003   6.197   1.312  17.336 -0.5051  0.5532 -1.7949
 1936TIP3    H230004   6.213   1.455  17.290 -0.1582  1.5681  1.2570
 1937TIP3   OH230005   1.146   1.311  16.505 -0.2328  0.1987  0.4036
 1937TIP3    H130006   1.171   1.375  16.439 -2.8015  0.5480 -0.3525
 1937TIP3    H230007   1.210   1.240  16.497  2.8913  2.6496  1.4420
 1938TIP3   OH230008   0.131   3.646  17.506 -0.0653 -0.4372 -0.3241
 1938TIP3    H130009   0.179   3.578  17.554 -0.9957 -1.3754 -0.6830
 1938TIP3    H230010   0.129   3.721  17.565 -0.4885 -1.2999  0.7754
 1939TIP3   OH230011   5.142   2.553  18.537 -0.1951  0.1459  0.0168
 1939TIP3    H130012   5.113   2.519  18.621  0.8799 -0.2498  0.2396
 1939TIP3    H230013   5.234   2.527  18.530  0.3140  1.8869 -0.3879
 1940TIP3   OH230014   4.213   1.934  17.884  0.3902 -0.6023 -0.4661
 1940TIP3    H130015   4.135   1.962  17.931  0.8426 -1.4315  0.8541
 1940TIP3    H230016   4.286   1.971  17.935  0.8761  0.5882 -1.9494
 1941TIP3   OH230017   6.592   0.570  16.601 -0.2792 -0.5156  0.4130
 1941TIP3    H130018   6.657   0.613  16.546 -1.9498  1.5264 -0.0932
 1941TIP3    H230019   6.538   0.641  16.636 -1.7478 -2.0471  1.4431
 1942TIP3   OH230020   5.942   7.564  17.424 -0.4359  0.4370 -0.0726
 1942TIP3    H130021   6.032   7.533  17.433 -0.8239 -0.8198 -0.3991
 1942TIP3    H230022   5.950   7.647  17.376  0.3927 -0.6549 -1.9061
 1943TIP3   OH230023   0.654   2.857  18.116 -0.1429 -0.8856 -0.3618
 1943TIP3    H130024   0.582   2.901  18.162  0.7844  0.9515 -0.6064
 1943TIP3    H230025   0.732   2.878  18.167  0.8128  0.6513 -2.3678
 1944TIP3   OH230026   3.946   1.324  16.704 -0.4726 -0.6121 -0.6081
 1944TIP3    H130027   3.864   1.373  16.711 -0.4480 -0.4339 -1.4362
 1944TIP3    H230028   4.010   1.376  16.753 -0.6791 -0.3378 -0.6292
 1945TIP3   OH230029   0.379   5.944  19.216 -0.0475 -0.3816  0.7197
 1945TIP3    H130030   0.373   5.904  19.303  2.2661  1.7664  1.9961
 1945TIP3    H230031   0.312   6.013  19.217  0.6703  0.3252  1.2418
 1946TIP3   OH230032   2.029   6.311  18.400  0.0936 -0.5343 -0.6001
 1946TIP3    H130033   2.061   6.332  18.313  1.0967 -1.1208 -0.3942
 1946TIP3    H230034   2.108   6.295  18.451 -0.3972  1.2521  0.8203
 1947TIP3   OH230035   4.737   5.831  18.697 -0.1921  0.1319 -0.8788
 1947TIP3    H130036   4.721   5.901  18.634 -3.3632 -0.7251 -1.2142
 1947TIP3    H230037   4.708   5.867  18.781  1.3575  0.3042 -0.3848
 1948TIP3   OH230038   5.784   2.729  17.397 -0.0863  0.1872  0.0920
 1948TIP3    H130039   5.752   2.797  17.455 -1.6404  0.3736 -0.9197
 1948TIP3    H230040   5.855   2.687  17.445 -1.1402  0.5008  2.0103
 1949TIP3   OH230041   0.901   2.326  16.669 -0.0462  0.1151  0.4458
 1949TIP3    H130042   0.865   2.352  16.753 -1.2874  1.1250 -0.3672
 1949TIP3    H230043   0.895   2.405  16.615  0.7164 -0.5175 -0.6058
 1950TIP3   OH230044   7.034   5.654  18.925 -0.2517  0.2094 -0.3107
 1950TIP3    H130045   6.948   5.656  18.883 -0.9449  0.6916  1.0338
 1950TIP3    H230046   7.094   5.628  18.856 -1.3477  0.7271 -1.5178
 1951TIP3   OH230047   6.493   7.264  16.434  0.0136  0.0881  0.2987
 1951TIP3    H130048   6.543   7.260  16.516  0.3285 -0.2363  0.0899
 1951TIP3    H230049   6.548   7.314  16.374 -0.2443  0.3792  0.2960
 1952TIP3   OH230050   2.783   4.976  18.537  0.1545  0.3550 -0.4472
 1952TIP3    H130051   2.760   4.914  18.468 -1.2594 -0.1326  0.4218
 1952TIP3    H230052   2.833   5.045  18.492  0.7891 -0.8298 -1.6159
 1953TIP3   OH230053   1.227   4.231  16.416  0.3006  0.4237  0.2966
 1953TIP3    H130054   1.307   4.267  16.378 -0.7449  1.2185 -1.2777
 1953TIP3    H230055   1.212   4.282  16.496  1.3124  0.3100  0.5639
 1954TIP3   OH230056   3.793   1.881  17.839 -0.1450 -0.3749 -0.1700
 1954TIP3    H130057   3.715   1.875  17.784 -0.0653 -0.4714 -0.2758
 1954TIP3    H230058   3.807   1.792  17.871  0.2616 -0.4908 -0.6364
 1955TIP3   OH230059   3.185   3.030  17.069  0.0840 -0.3129  0.5242
 1955TIP3    H130060   3.213   3.102  17.127  0.8419  0.4556 -0.7507
 1955TIP3    H230061   3.151   3.074  16.991 -1.5491 -1.3195  0.6259
 1956TIP3   OH230062   0.262   5.010  16.983 -0.0634  0.0844 -0.1072
 1956TIP3    H130063   0.182   5.060  16.999 -0.5208 -0.7248  0.2147
 1956TIP3    H230064   0.311   5.016  17.066 -0.5048 -0.6661  0.2229
 1957TIP3   OH230065   6.758   4.365  18.456 -0.5975 -0.6391  0.4228
 1957TIP3    H130066   6.811   4.287  18.439 -0.4654 -0.5359  0.3582
 1957TIP3    H230067   6.681   4.332  18.502 -0.9995 -0.9366 -0.4508
 1958TIP3   OH230068   5.626   7.261  17.832  0.3075 -0.3259 -0.8752
 1958TIP3    H130069   5.679   7.182  17.846  1.2812  0.5652  0.7484
 1958TIP3    H230070   5.675   7.312  17.768  2.0760  0.9769  1.3808
 1959TIP3   OH230071   2.226   2.244  17.631 -0.2107  0.1513 -0.9038
 1959TIP3    H130072   2.176   2.301  17.573 -0.1624  1.8478  0.6344
 1959TIP3    H230073   2.274   2.187  17.571 -0.7535  1.2782 -2.5154
 1960TIP3   OH230074   6.629   7.215  18.373 -0.1635  0.4620 -0.6101
 1960TIP3    H130075   6.695   7.283  18.359  1.9115 -1.3708 -0.1336
 1960TIP3    H230076   6.676   7.144  18.416 -2.7353 -0.4601  0.8787
 1961TIP3   OH230077   7.487   7.580  16.544 -0.5547 -0.0135  0.0847
 1961TIP3    H130078   7.507   7.493  16.508  3.4571  0.0958  1.4912
 1961TIP3    H230079   7.506   7.640  16.473  2.7533 -0.0897  0.7093
 1962TIP3   OH230080   6.690   4.533  18.245  0.2892 -0.1294 -0.0759
 1962TIP3    H130081   6.601   4.567  18.245  0.6783  1.2778  3.3462
 1962TIP3    H230082   6.700   4.490  18.330  2.3370 -1.9375 -1.1063
 1963TIP3   OH230083   2.899   5.515  18.567 -0.4127 -0.7653 -0.2855
 1963TIP3    H130084   2.983   5.483  18.533 -0.4960 -0.6359 -0.6199
 1963TIP3    H230085   2.889   5.471  18.651  0.9779  0.7401  0.7413
 1964TIP3   OH230086   1.589   3.409  17.246  0.2205  0.3362  0.3532
 1964TIP3    H130087   1.513   3.359  17.276  1.2399 -1.0953  0.6243
 1964TIP3    H230088   1.630   3.440  17.326 -0.2627  1.4546  0.1958
 1965TIP3   OH230089   0.222   5.165  19.134  0.2434 -0.1696  0.1884
 1965TIP3    H130090   0.210   5.113  19.214  0.1649  0.9331  0.9137
 1965TIP3    H230091   0.146   5.222  19.131  0.2296 -0.2217 -0.7073
 1966TIP3   OH230092   3.236   5.465  18.247  0.0151  0.4257  0.1581
 1966TIP3    H130093   3.233   5.371  18.233 -0.6354  0.0272  2.5681
 1966TIP3    H230094   3.148   5.496  18.225 -0.3669  0.1345  1.2118
 1967TIP3   OH230095   1.621   6.186  18.507 -0.6928 -0.0959 -0.1466
 1967TIP3    H130096   1.599   6.229  18.590  0.5632  0.7830 -0.2427
 1967TIP3    H230097   1.696   6.234  18.474 -0.0498 -1.5590 -0.9221
 1968TIP3   OH230098   2.168   4.784  17.256  0.0522  0.0692  0.2822
 1968TIP3    H130099   2.140   4.712  17.199 -2.7122 -0.1362  1.7235
 1968TIP3    H230100   2.148   4.863  17.206 -2.2367 -0.1105  0.8113
 1969TIP3   OH230101   5.326   2.757  18.054  0.7266  0.2261  0.0354
 1969TIP3    H130102   5.272   2.723  18.125  3.2222  1.0206  2.5200
 1969TIP3    H230103   5.396   2.693  18.043 -0.1676 -0.4348 -2.6040
 1970TIP3   OH230104   0.556   5.513  18.997 -0.6616 -1.0162  0.4723
 1970TIP3    H130105   0.479   5.472  18.957 -0.6886 -0.7669  0.2611
 1970TIP3    H230106   0.519   5.577  19.058 -0.6383 -0.1495 -0.3961
 1971TIP3   OH230107   0.835   5.515  16.736  0.5925 -0.4771  0.3614
 1971TIP3    H130108   0.768   5.536  16.670 -0.3158 -1.9058  0.7710
 1971TIP3    H230109   0.788   5.464  16.802  1.3232  1.4069  2.4717
 1972TIP3   OH230110   1.670   5.156  17.499 -0.0360 -0.2571  0.2989
 1972TIP3    H130111   1.660   5.129  17.408  0.5874  0.3218  0.0475
 1972TIP3    H230112   1.608   5.102  17.547 -0.8196 -0.1363 -0.5477
 1973TIP3   OH230113   6.013   0.517  16.934  0.4442 -0.7055  0.1847
 1973TIP3    H130114   6.055   0.601  16.953  0.7553 -1.1786  1.7538
 1973TIP3    H230115   6.085   0.454  16.934 -0.0334 -1.2982  1.4091
 1974TIP3   OH230116   5.079   4.388  19.173  0.6193 -0.0796 -0.1623
 1974TIP3    H130117   5.031   4.308  19.192 -0.9235  1.1163  1.3382
 1974TIP3    H230118   5.068   4.401  19.078  0.4489 -1.3466 -0.3261
 1975TIP3   OH230119   4.545   7.039  17.902  0.5926 -0.0613  0.2517
 1975TIP3    H130120   4.520   7.121  17.858  0.2407  0.2053  0.9384
 1975TIP3    H230121   4.467   6.984  17.896  0.1357  0.4010  1.5170
 1976TIP3   OH230122   6.957   3.895  17.406 -0.2649  0.3627 -0.3305
 1976TIP3    H130123   7.042   3.853  17.398  0.5359  1.6469  0.9755
 1976TIP3    H230124   6.943   3.937  17.320  0.9206  1.0261 -0.2206
 1977TIP3   OH230125   7.015   4.904  17.799  0.4527  0.0359  0.1826
 1977TIP3    H130126   6.952   4.852  17.848  1.5848 -0.5080  1.0906
 1977TIP3    H230127   7.074   4.940  17.865  1.6820 -0.2750 -0.7083
 1978TIP3   OH230128   7.606   6.420  16.735  0.5253 -0.6042  0.4099
 1978TIP3    H130129   7.562   6.381  16.811  0.5280 -1.0145  0.2026
 1978TIP3    H230130   7.629   6.508  16.764 -0.7232 -0.2584  0.4218
 1979TIP3   OH230131   6.573   0.581  18.598 -0.2190 -0.3191  0.8406
 1979TIP3    H130132   6.593   0.640  18.526 -0.6837 -1.0239  0.1029
 1979TIP3    H230133   6.538   0.502  18.555  0.0014 -0.9668  1.8072
 1980TIP3   OH230134   2.975   1.775  17.261 -0.0493 -0.2624  0.4581
 1980TIP3    H130135   3.018   1.689  17.265 -0.1563 -0.4940 -1.7981
 1980TIP3    H230136   3.048   1.836  17.250 -0.1108 -0.4910 -1.6809
 1981TIP3   OH230137   2.972   4.494  17.169  0.0546 -0.1834 -0.6842
 1981TIP3    H130138   2.952   4.401  17.156  1.2773 -0.7284  1.0125
 1981TIP3    H230139   2.900   4.527  17.222  1.4754 -1.1948  2.0820
 1982TIP3   OH230140   7.226   3.504  16.471  0.1252 -0.1064 -0.1114
 1982TIP3    H130141   7.311   3.511  16.515  0.3609 -0.9069 -0.4297
 1982TIP3    H230142   7.171   3.570  16.515  0.4775 -0.5840  1.0867
 1983TIP3   OH230143   6.834   0.272  15.973  0.2423 -0.2520  0.1477
 1983TIP3    H130144   6.916   0.321  15.976  0.2780 -0.0563 -2.1803
 1983TIP3    H230145   6.860   0.186  15.938 -0.1342 -1.2981  2.2537
 1984TIP3   OH230146   5.147   1.818  18.564  1.1617 -0.3163 -0.8426
 1984TIP3    H130147   5.162   1.911  18.583 -0.4659 -0.0826 -0.5554
 1984TIP3    H230148   5.232   1.786  18.535  2.1311  0.9019  0.4932
 1985TIP3   OH230149   6.005   7.097  17.286  0.4085  0.5653 -0.2135
 1985TIP3    H130150   5.953   7.164  17.330  1.6495  0.6700  1.1633
 1985TIP3    H230151   5.980   7.104  17.194 -3.1128 -0.4264  0.5505
 1986TIP3   OH230152   0.820   3.637  18.715  0.8040 -0.3221  0.3465
 1986TIP3    H130153   0.888   3.590  18.666  0.2505  0.0151 -0.7814
 1986TIP3    H230154   0.738   3.600  18.684  0.4556 -1.3073  2.3141
 1987TIP3   OH230155   4.809   2.619  18.855  0.1455 -0.0795  0.5428
 1987TIP3    H130156   4.811   2.577  18.770  0.0207 -0.6607  0.8243
 1987TIP3    H230157   4.733   2.677  18.851 -0.6118 -1.0337  0.6848
 1988TIP3   OH230158   4.689   2.065  17.451  0.1285  0.1201 -0.3487
 1988TIP3    H130159   4.671   2.001  17.382 -2.5640  0.2612  0.1229
 1988TIP3    H230160   4.779   2.092  17.435 -0.2090 -0.2361 -3.5139
 1989TIP3   OH230161   0.007   5.216  17.957  0.6565 -0.3274 -0.1053
 1989TIP3    H130162  -0.025   5.296  17.998  1.2340  0.5614 -1.3163
 1989TIP3    H230163  -0.001   5.149  18.025 -1.7234  0.3064  0.3092
 1990TIP3   OH230164   5.568   1.840  16.750 -0.1511  0.1395  0.2874
 1990TIP3    H130165   5.610   1.924  16.771  1.2039  0.0679 -1.8362
 1990TIP3    H230166   5.634   1.774  16.771  0.1271 -0.1148 -1.2444
 1991TIP3   OH230167   0.345   6.641  17.707 -0.1540  0.4300 -0.1263
 1991TIP3    H130168   0.296   6.701  17.764 -0.0256 -0.6331  1.1600
 1991TIP3    H230169   0.315   6.554  17.733  1.3736 -0.1783 -0.3006
 1992TIP3   OH230170   3.767   5.410  16.724  0.0594  0.0219 -0.0659
 1992TIP3    H130171   3.784   5.497  16.687 -1.5512  0.4240  0.0208
 1992TIP3    H230172   3.769   5.351  16.649  0.2441  0.2950 -0.2773
 1993TIP3   OH230173   0.218   4.543  17.527 -0.3362 -0.0499 -0.7926
 1993TIP3    H130174   0.204   4.486  17.452  1.4257  0.5947 -1.6716
 1993TIP3    H230175   0.130   4.562  17.559 -1.0479 -1.6365 -1.6845
 1994TIP3   OH230176   2.449   2.397  18.624 -0.4344 -0.2294  0.2684
 1994TIP3    H130177   2.458   2.369  18.533 -2.0711  1.8804 -0.6220
 1994TIP3    H230178   2.539   2.403  18.656  0.1977 -0.6496 -1.3255
 1995TIP3   OH230179   0.881   2.935  16.620  0.2817 -0.0845  0.5846
 1995TIP3    H130180   0.835   2.911  16.540  1.3170 -2.0272  0.5239
 1995TIP3    H230181   0.812   2.935  16.687 -0.2388 -0.5284  0.0660
 1996TIP3   OH230182   6.223   4.710  16.941 -0.3392  0.3911  1.0098
 1996TIP3    H130183   6.248   4.628  16.896  1.9691  1.7921 -0.4836
 1996TIP3    H230184   6.134   4.727  16.910 -1.3129 -2.0130  2.1771
 1997TIP3   OH230185   6.430   7.269  16.051  0.0515  0.0949 -0.0557
 1997TIP3    H130186   6.466   7.304  15.970 -3.2040 -1.3369 -2.3575
 1997TIP3    H230187   6.426   7.175  16.037 -1.5928 -0.0884  1.2848
 1998TIP3   OH230188   5.723   3.739  16.955 -0.0470 -0.3888  0.0578
 1998TIP3    H130189   5.659   3.670  16.934 -0.6737  0.4510 -0.9243
 1998TIP3    H230190   5.808   3.696  16.948 -0.4765 -1.5200  1.3435
 1999TIP3   OH230191   7.035   4.208  16.422  0.5010  0.4745 -0.0105
 1999TIP3    H130192   7.075   4.124  16.399  0.9723  0.2718  1.4478
 1999TIP3    H230193   7.023   4.203  16.517 -3.1842  0.4437 -0.3180
 2000TIP3   OH230194   6.337   3.423  16.497 -0.1012 -0.1094 -0.3953
 2000TIP3    H130195   6.285   3.348  16.524 -0.0988  0.4005  1.0798
 2000TIP3    H230196   6.338   3.481  16.573  0.7713  0.9049 -1.1476
 2001TIP3   OH230197   1.391   3.139  17.890  0.0447  0.6622 -0.2495
 2001TIP3    H130198   1.439   3.172  17.966  0.5349 -1.1648  0.2773
 2001TIP3    H230199   1.445   3.069  17.855 -0.5853  0.9000 -1.8043
 2002TIP3   OH230200   4.615   4.969  16.848 -0.9434 -0.9528  0.0945
 2002TIP3    H130201   4.644   4.884  16.815 -1.0013 -1.2933  0.9015
 2002TIP3    H230202   4.639   5.031  16.779  1.8750 -1.1790  0.7576
 2003TIP3   OH230203   7.225   2.696  16.083  0.1361  0.1406 -0.4016
 2003TIP3    H130204   7.153   2.640  16.113 -0.8347  1.7026  0.3325
 2003TIP3    H230205   7.259   2.737  16.163 -0.1454  1.6809 -1.0222
 2004TIP3   OH230206   3.046   5.626  16.026  0.8631 -0.0816 -0.3670
 2004TIP3    H130207   3.006   5.680  15.958  2.8421  1.8445 -0.1044
 2004TIP3    H230208   3.137   5.617  15.999  1.1290 -1.3095  0.8391
 2005TIP3   OH230209   2.368   2.401  16.589 -0.0480  0.0979  0.2109
 2005TIP3    H130210   2.293   2.345  16.611 -1.6038  1.8518 -0.3265
 2005TIP3    H230211   2.335   2.459  16.520  2.4689 -0.4236 -1.5774
 2006TIP3   OH230212   3.376   3.404  16.986  0.0045 -0.5068  0.0427
 2006TIP3    H130213   3.347   3.377  16.899  2.0436  3.1368 -2.0428
 2006TIP3    H230214   3.457   3.356  17.000  0.7621  0.3346 -1.1425
 2007TIP3   OH230215   3.540   6.852  18.025 -0.3131 -0.0020 -0.2659
 2007TIP3    H130216   3.595   6.911  17.974  1.2443  1.0956  2.4443
 2007TIP3    H230217   3.453   6.858  17.984  1.1605 -0.7655 -3.8734
 2008TIP3   OH230218   0.966   4.163  16.300 -0.1711 -0.2050 -0.5366
 2008TIP3    H130219   0.964   4.073  16.332  1.2577  0.8008  2.8472
 2008TIP3    H230220   1.055   4.193  16.318 -1.0738  2.3829  0.1623
 2009TIP3   OH230221   5.735   1.381  16.092 -0.7857 -0.4119  0.0151
 2009TIP3    H130222   5.745   1.287  16.074 -1.9288 -1.1580  2.7861
 2009TIP3    H230223   5.676   1.411  16.023  0.7743 -1.3160 -1.8277
 2010TIP3   OH230224   3.165   1.529  17.306 -0.5142 -0.1064  0.5021
 2010TIP3    H130225   3.137   1.439  17.325 -0.0988 -0.3597 -0.0411
 2010TIP3    H230226   3.203   1.524  17.218 -3.0677  1.1695 -0.7800
 2011TIP3   OH230227   2.073   1.185  17.461 -0.4682  0.1795  0.1500
 2011TIP3    H130228   2.021   1.175  17.381  0.3543 -0.6389 -0.3044
 2011TIP3    H230229   2.009   1.181  17.532 -0.9333 -2.1362 -0.3269
 2012TIP3   OH230230   2.365   2.491  18.306 -0.2075 -0.1042 -0.6203
 2012TIP3    H130231   2.292   2.491  18.367  0.5878  0.2848  0.3428
 2012TIP3    H230232   2.415   2.413  18.329  1.0503  0.9650  0.4172
 2013TIP3   OH230233   5.853   5.730  18.078  0.0302 -0.2110  0.3430
 2013TIP3    H130234   5.800   5.809  18.077  0.6292  0.2099  0.9427
 2013TIP3    H230235   5.830   5.684  17.997 -3.0733 -1.2674  1.6401
 2014TIP3   OH230236   2.334   5.840  18.745 -0.1041 -0.3087 -0.4326
 2014TIP3    H130237   2.295   5.927  18.760  0.4808 -0.2693  1.0069
 2014TIP3    H230238   2.420   5.860  18.709 -0.0372 -0.2970 -0.2662
 2015TIP3   OH230239   4.791   0.368  18.974 -0.1397 -0.0148 -0.0209
 2015TIP3    H130240   4.717   0.401  19.026  1.3488  0.5582  1.8389
 2015TIP3    H230241   4.852   0.333  19.039 -0.1498 -3.5835 -1.6753
 2016TIP3   OH230242   6.055   2.893  18.325  0.1199  0.0704 -0.0410
 2016TIP3    H130243   5.988   2.961  18.326 -0.6529 -0.5921  2.7550
 2016TIP3    H230244   6.040   2.846  18.243 -2.0454  0.7152 -0.0662
 2017TIP3   OH230245   1.515   6.676  18.798  0.4560  0.2761 -0.3696
 2017TIP3    H130246   1.439   6.734  18.804 -0.0324 -0.4485  0.5500
 2017TIP3    H230247   1.479   6.588  18.801  1.3914 -0.0793  1.1658
 2018TIP3   OH230248   7.191   1.897  17.227  0.1656 -0.1298  0.1915
 2018TIP3    H130249   7.175   1.956  17.153 -0.1842  0.7857  0.9794
 2018TIP3    H230250   7.111   1.844  17.233  0.0179  0.0910  0.1834
 2019TIP3   OH230251   3.926   5.181  17.586 -0.4070  0.5421 -0.0119
 2019TIP3    H130252   3.934   5.250  17.652  0.5917  0.8544 -0.4342
 2019TIP3    H230253   4.015   5.146  17.578 -0.9789 -1.1751  0.5814
 2020TIP3   OH230254   5.485   1.945  16.305 -0.5574  0.1398 -0.2879
 2020TIP3    H130255   5.460   1.982  16.221 -0.6079  0.0163 -0.3281
 2020TIP3    H230256   5.523   1.860  16.283 -1.4418 -0.3183 -0.1189
 2021TIP3   OH230257   6.017   0.293  18.709 -0.6622 -0.3350 -0.0416
 2021TIP3    H130258   6.052   0.375  18.743 -0.7535  0.2851 -1.3935
 2021TIP3    H230259   6.065   0.225  18.757  1.7909  0.4736 -1.1590
 2022TIP3   OH230260   5.436   2.925  17.549 -0.3677  1.0204  0.1831
 2022TIP3    H130261   5.414   2.855  17.610 -2.1282 -0.9516 -2.4724
 2022TIP3    H230262   5.357   2.979  17.545  0.1762  1.8536  0.5362
 2023TIP3   OH230263   4.949   7.228  17.872  0.2542 -0.0199 -0.2466
 2023TIP3    H130264   4.914   7.167  17.807  0.0337  1.2132 -1.3271
 2023TIP3    H230265   4.941   7.314  17.831  1.2835  0.6665  0.9196
 2024TIP3   OH230266   1.754   6.148  17.409 -0.3138  0.3602  0.3944
 2024TIP3    H130267   1.757   6.156  17.505 -0.7595  0.4155  0.4100
 2024TIP3    H230268   1.775   6.056  17.392  0.3988  0.4975  0.5004
 2025TIP3   OH230269   6.512   1.356  17.074  0.4176  0.0790  0.1583
 2025TIP3    H130270   6.419   1.344  17.091  0.2803  1.6798  0.7550
 2025TIP3    H230271   6.539   1.278  17.026 -2.0422  1.1074 -3.2997
 2026TIP3   OH230272   0.377   6.592  17.027 -0.2542 -0.0865  0.1045
 2026TIP3    H130273   0.331   6.613  17.108  0.8403  1.1083  0.4408
 2026TIP3    H230274   0.461   6.556  17.056  0.2278  0.5404 -0.4914
 2027TIP3   OH230275   3.818   7.348  18.525 -0.4038 -0.3459  0.2463
 2027TIP3    H130276   3.882   7.306  18.583 -0.1169  1.6347  1.4714
 2027TIP3    H230277   3.784   7.422  18.577 -1.7903  0.1763 -1.3239
 2028TIP3   OH230278   6.744   1.241  17.760 -0.0567 -0.9219 -0.4919
 2028TIP3    H130279   6.734   1.306  17.830 -1.0512 -0.2543 -1.2170
 2028TIP3    H230280   6.790   1.288  17.690  0.0670 -1.2902 -0.6608
 2029TIP3   OH230281   5.611   3.848  17.842 -0.0420 -0.0661  0.2438
 2029TIP3    H130282   5.667   3.790  17.895  0.3062  0.0315 -0.0130
 2029TIP3    H230283   5.540   3.792  17.812  0.5185 -0.4667 -0.3523
 2030TIP3   OH230284   3.126   5.066  17.078  0.3168 -0.3035 -0.2436
 2030TIP3    H130285   3.201   5.080  17.135  0.5720  1.7384 -1.0138
 2030TIP3    H230286   3.099   4.976  17.096  1.0841 -0.1183  2.2425
 2031TIP3   OH230287   0.687   4.067  18.098 -0.2301  0.3313 -0.3888
 2031TIP3    H130288   0.623   4.108  18.040 -0.3813 -2.7063 -2.6002
 2031TIP3    H230289   0.770   4.110  18.077 -0.6565  0.7152 -1.3120
 2032TIP3   OH230290   5.376   7.003  16.722 -0.0055 -0.0511 -0.0920
 2032TIP3    H130291   5.439   6.946  16.678 -1.8024 -0.7049 -1.9713
 2032TIP3    H230292   5.426   7.082  16.742  1.5152 -0.6707 -1.1962
 2033TIP3   OH230293   7.212   4.188  18.375 -0.5081  0.2965 -0.0690
 2033TIP3    H130294   7.283   4.153  18.321  0.5329  0.3883  1.1963
 2033TIP3    H230295   7.170   4.254  18.320  0.9776  0.8987 -0.5238
 2034TIP3   OH230296   4.053   6.957  17.413  0.3396 -0.3996  0.4412
 2034TIP3    H130297   3.998   6.962  17.334  2.8097  0.4466 -1.3487
 2034TIP3    H230298   4.015   7.022  17.472 -1.5596 -1.0286 -0.0027
 2035TIP3   OH230299   2.949   3.325  16.116  0.3195  0.2079  0.1849
 2035TIP3    H130300   2.859   3.340  16.086  0.4744  0.6708 -0.0737
 2035TIP3    H230301   2.941   3.302  16.208  0.0519  2.3952  0.7651
 2036TIP3   OH230302   7.390   2.962  16.756  0.8054 -0.2773 -0.9496
 2036TIP3    H130303   7.431   2.879  16.733  1.8847 -0.0067 -0.1002
 2036TIP3    H230304   7.383   2.960  16.851  1.4970  0.8800 -0.8496
 2037TIP3   OH230305   3.243   7.294  18.178 -0.0278  0.1724  0.3353
 2037TIP3    H130306   3.241   7.375  18.127 -1.5913 -0.0777 -0.0548
 2037TIP3    H230307   3.250   7.225  18.113  3.6968 -0.0498  0.7173
 2038TIP3   OH230308   7.547   3.738  17.208 -0.1257  0.5049 -0.9794
 2038TIP3    H130309   7.486   3.810  17.192  0.7139  0.8063 -3.4288
 2038TIP3    H230310   7.569   3.707  17.120  3.7950  0.9357 -0.3262
 2039TIP3   OH230311   0.973   3.241  16.523  0.2566 -0.7483 -0.3570
 2039TIP3    H130312   1.021   3.278  16.449  0.4774  1.3526  0.7485
 2039TIP3    H230313   1.041   3.215  16.585  0.0368 -0.1000  0.1648
 2040TIP3   OH230314   6.660   3.365  17.252  0.4991 -0.0715  0.1232
 2040TIP3    H130315   6.749   3.383  17.223  1.3231 -0.9938  1.8802
 2040TIP3    H230316   6.638   3.439  17.309 -0.1133  0.4460 -0.7585
 2041TIP3   OH230317   1.011   1.703  17.533  0.3498 -0.1878 -0.0068
 2041TIP3    H130318   1.084   1.757  17.504 -0.4790 -0.0428 -2.0153
 2041TIP3    H230319   0.971   1.671  17.452 -0.2456 -2.4135  1.0745
 2042TIP3   OH230320   2.465   2.059  18.594 -0.5257 -0.0085  0.6088
 2042TIP3    H130321   2.559   2.076  18.580 -0.6238  1.5211  1.6471
 2042TIP3    H230322   2.450   2.078  18.686 -2.6657  4.2455 -0.3365
 2043TIP3   OH230323   7.428   1.789  16.298  0.3837  0.5094 -0.2329
 2043TIP3    H130324   7.473   1.818  16.377  0.2180  2.3382 -0.7532
 2043TIP3    H230325   7.486   1.814  16.226  0.2411 -0.5430 -0.7382
 2044TIP3   OH230326   7.020   7.084  16.261  0.0592  0.1801  0.1987
 2044TIP3    H130327   6.935   7.105  16.298  0.3596 -0.6929  1.4565
 2044TIP3    H230328   7.008   7.000  16.217  0.0941  0.4377 -0.3163
 2045TIP3   OH230329   4.624   7.286  18.340 -0.0868 -0.2835  0.3128
 2045TIP3    H130330   4.543   7.259  18.297  0.8200 -2.6341 -0.0839
 2045TIP3    H230331   4.687   7.295  18.268 -0.9047  6.4691 -0.1611
 2046TIP3   OH230332   5.713   2.010  17.558  1.1069 -0.0136 -0.2637
 2046TIP3    H130333   5.730   1.925  17.516 -1.3512 -2.2633  2.7757
 2046TIP3    H230334   5.632   2.041  17.517  1.3703  0.2578 -0.5756
 2047TIP3   OH230335   2.377   1.831  18.060 -0.3513 -0.2544  0.6678
 2047TIP3    H130336   2.332   1.909  18.091 -0.7963  0.5950 -1.8747
 2047TIP3    H230337   2.312   1.784  18.008  0.3434 -1.5467  0.9229
 2048TIP3   OH230338   5.144   1.199  18.174 -0.1434 -0.4037  0.2206
 2048TIP3    H130339   5.211   1.151  18.126 -0.2373  0.4205 -0.7694
 2048TIP3    H230340   5.161   1.177  18.266  2.2204  0.6826  0.1233
 2049TIP3   OH230341   4.727   0.529  17.509 -0.9600 -0.1787  0.0287
 2049TIP3    H130342   4.736   0.512  17.415 -0.5280  0.6411 -0.0906
 2049TIP3    H230343   4.755   0.448  17.551  1.3174  0.2474 -0.5025
 2050TIP3   OH230344   6.025   5.636  17.157 -0.3738  0.0430  0.4834
 2050TIP3    H130345   5.949   5.602  17.205 -2.0616  2.7086 -0.0735
 2050TIP3    H230346   6.098   5.625  17.217 -1.4981 -1.1603  1.6947
 2051TIP3   OH230347   0.285   0.508  18.117 -0.1555 -0.4284  0.2819
 2051TIP3    H130348   0.231   0.512  18.196  0.4672 -0.5468  0.7221
 2051TIP3    H230349   0.344   0.434  18.132  0.2869 -0.1560 -0.0852
 2052TIP3   OH230350   6.117   0.939  16.571  0.0656 -0.3297 -0.0361
 2052TIP3    H130351   6.151   0.855  16.540 -0.4785 -0.4840 -0.2259
 2052TIP3    H230352   6.133   1.000  16.499  0.5454 -0.2475  0.1371
 2053TIP3   OH230353   5.033   1.528  17.881  0.0479  0.4211 -0.0986
 2053TIP3    H130354   5.018   1.592  17.950  0.8047  0.1622  0.3140
 2053TIP3    H230355   5.018   1.443  17.922  1.2557  0.2254 -0.0294
 2054TIP3   OH230356   5.754   4.058  17.727  0.3500  0.3138 -0.1466
 2054TIP3    H130357   5.714   3.980  17.766  0.3303 -0.0151 -0.8059
 2054TIP3    H230358   5.681   4.119  17.717  0.4234  0.5500  0.6668
 2055TIP3   OH230359   4.251   0.769  16.017 -0.4069  0.2884  0.2570
 2055TIP3    H130360   4.282   0.852  15.981  0.4232  0.4010  1.2192
 2055TIP3    H230361   4.330   0.721  16.039 -0.8908 -0.5710  0.1577
 2056TIP3   OH230362   7.492   1.697  18.236 -0.3688  0.2745 -0.6414
 2056TIP3    H130363   7.529   1.729  18.154 -0.6535  1.0653 -0.4673
 2056TIP3    H230364   7.403   1.733  18.239 -0.0072  1.1303  0.4980
 2057TIP3   OH230365   5.419   5.107  17.788  0.2448 -0.1089 -0.0397
 2057TIP3    H130366   5.484   5.146  17.845  0.9544  0.1832 -1.0185
 2057TIP3    H230367   5.385   5.180  17.736 -1.1314 -0.1958  0.6947
 2058TIP3   OH230368   6.373   2.362  16.521  0.0736  0.1790 -0.2404
 2058TIP3    H130369   6.342   2.355  16.430  2.4850  3.8696 -1.6043
 2058TIP3    H230370   6.463   2.331  16.517 -0.5206 -2.0197  1.6008
 2059TIP3   OH230371   7.031   5.311  19.078 -0.1628  0.5115  0.0208
 2059TIP3    H130372   7.075   5.396  19.071  1.6219 -0.2087  1.5716
 2059TIP3    H230373   6.952   5.329  19.130 -0.3256  1.3766 -0.5079
 2060TIP3   OH230374   4.447   1.550  17.326 -0.0872  0.8469 -0.5438
 2060TIP3    H130375   4.498   1.522  17.402 -0.8034 -2.1363 -1.0087
 2060TIP3    H230376   4.512   1.575  17.261  0.6196  1.1149  0.2491
 2061TIP3   OH230377   1.025   0.660  17.054 -0.2879 -0.2186  0.3151
 2061TIP3    H130378   1.101   0.658  17.112 -0.5489 -0.6768  0.6558
 2061TIP3    H230379   0.983   0.575  17.069  0.5944 -1.0921 -1.8323
 2062TIP3   OH230380   1.881   4.016  18.488 -0.2101  0.2543  0.0069
 2062TIP3    H130381   1.973   4.019  18.518 -0.2295 -0.0119  0.0958
 2062TIP3    H230382   1.831   4.004  18.568 -0.2080 -1.3100 -0.2094
 2063TIP3   OH230383   7.533   5.268  18.605  0.0744 -0.6835  0.1402
 2063TIP3    H130384   7.617   5.254  18.649 -0.2102  0.9637  1.3254
 2063TIP3    H230385   7.557   5.298  18.517  0.6517 -3.9523 -0.9256
 2064TIP3   OH230386   1.525   5.387  17.228  0.0055 -0.3219  0.0608
 2064TIP3    H130387   1.607   5.336  17.227  1.3219  1.6861 -0.2400
 2064TIP3    H230388   1.501   5.395  17.136  0.7605  1.0139 -0.0363
 2065TIP3   OH230389   3.197   6.070  16.284 -0.4147 -0.1959 -0.4670
 2065TIP3    H130390   3.104   6.096  16.282 -0.8250 -1.5762 -0.0434
 2065TIP3    H230391   3.216   6.057  16.377  0.2524  0.2278 -0.5432
 2066TIP3   OH230392   3.351   1.795  16.990  0.3313 -0.5818  0.2860
 2066TIP3    H130393   3.427   1.768  17.042  1.1423  0.5822 -0.2533
 2066TIP3    H230394   3.369   1.761  16.902 -1.1650 -2.7871  0.7463
 2067TIP3   OH230395   6.150   0.223  17.422 -0.3935  0.5275 -0.8062
 2067TIP3    H130396   6.114   0.192  17.339 -0.3793 -1.0302 -0.2664
 2067TIP3    H230397   6.242   0.240  17.403 -0.2291 -0.4773 -0.9744
 2068TIP3   OH230398   5.789   6.061  18.067 -0.6919  0.0356 -0.0823
 2068TIP3    H130399   5.863   6.066  18.007 -0.2785 -2.3682  0.1271
 2068TIP3    H230400   5.712   6.055  18.010 -0.7103  1.8039 -0.2999
 2069TIP3   OH230401   4.005   2.283  17.861 -0.2338  0.1836  0.1941
 2069TIP3    H130402   4.091   2.276  17.818 -0.9090 -0.6143 -1.0885
 2069TIP3    H230403   3.991   2.196  17.899 -0.6746  0.1710  0.0017
 2070TIP3   OH230404   5.028   6.894  18.133  0.4553 -0.3477  0.0662
 2070TIP3    H130405   5.070   6.980  18.135 -0.9351  0.3314  0.6151
 2070TIP3    H230406   4.970   6.897  18.056  0.6423 -0.9273 -0.1097
 2071TIP3   OH230407   0.409   2.308  16.811  0.0672 -0.2495 -0.4923
 2071TIP3    H130408   0.424   2.255  16.889 -1.8462 -0.4051 -0.1883
 2071TIP3    H230409   0.377   2.392  16.844  1.3364  0.4836 -1.0523
 2072TIP3   OH230410   4.872   5.951  17.964 -0.0466 -0.0520 -0.4119
 2072TIP3    H130411   4.822   5.905  18.031  0.8901  1.1116  1.1460
 2072TIP3    H230412   4.962   5.952  17.998  1.2315 -2.3309 -3.2207
 2073TIP3   OH230413   6.135   3.011  18.573  0.8990  0.0016 -0.1405
 2073TIP3    H130414   6.202   3.072  18.541  0.0194  2.1312  1.8090
 2073TIP3    H230415   6.100   2.971  18.493  1.1820  2.4546 -1.6168
 2074TIP3   OH230416   3.365   0.945  16.796 -0.2058  0.5474 -0.2820
 2074TIP3    H130417   3.320   0.997  16.730 -1.3597  2.1741  1.6791
 2074TIP3    H230418   3.457   0.972  16.789 -0.5710  1.8711 -0.2085
 2075TIP3   OH230419   1.193   1.821  18.045  0.3399  0.4332  0.1834
 2075TIP3    H130420   1.258   1.787  18.106 -0.4255 -1.2270  0.1229
 2075TIP3    H230421   1.131   1.749  18.033 -0.5512  1.3691 -1.1138
 2076TIP3   OH230422   1.984   5.583  18.139  0.4232  0.1028  0.2506
 2076TIP3    H130423   1.900   5.602  18.098  0.5960 -0.4429 -0.3683
 2076TIP3    H230424   2.042   5.652  18.107  0.4869 -0.1609 -0.2120
 2077TIP3   OH230425   2.217   5.465  17.000 -0.4769 -0.0348 -0.5905
 2077TIP3    H130426   2.267   5.547  17.003 -1.7605  0.7913  2.5782
 2077TIP3    H230427   2.274   5.401  17.043 -0.5528 -0.0692 -0.5396
 2078TIP3   OH230428   3.888   2.575  15.949 -0.1277 -0.8366  0.4022
 2078TIP3    H130429   3.800   2.539  15.937  0.0302 -0.5949 -2.1656
 2078TIP3    H230430   3.944   2.519  15.895  0.7188  1.0306 -0.7652
 2079TIP3   OH230431   0.161   6.431  18.113  0.2449  0.1411 -0.1296
 2079TIP3    H130432   0.175   6.461  18.203 -1.2630  1.0820 -0.1855
 2079TIP3    H230433   0.141   6.338  18.122  0.9666  0.0299  0.4165
 2080TIP3   OH230434   2.438   5.724  16.236  0.6120  0.4213 -0.3732
 2080TIP3    H130435   2.363   5.755  16.184  1.2367 -0.1175 -1.6417
 2080TIP3    H230436   2.446   5.789  16.306 -1.2038  0.3420 -0.0289
 2081TIP3   OH230437   2.428   3.972  18.518  0.2087  0.3770 -0.6994
 2081TIP3    H130438   2.457   3.881  18.521  0.9929  0.6273 -0.3042
 2081TIP3    H230439   2.467   4.007  18.439 -3.5598 -0.7065 -3.3080
 2082TIP3   OH230440   3.931   0.976  18.132  0.1854  0.3425  0.4708
 2082TIP3    H130441   3.974   0.929  18.060 -1.3973  1.0034 -0.9964
 2082TIP3    H230442   3.883   1.047  18.088  0.2994  1.6471  2.3489
 2083TIP3   OH230443   6.772   2.062  16.277 -0.2369  0.0014  0.3248
 2083TIP3    H130444   6.760   2.157  16.271 -1.6642 -0.2691 -3.2341
 2083TIP3    H230445   6.866   2.049  16.263 -0.2932  0.8613 -1.0977
 2084TIP3   OH230446   1.614   4.169  17.110  0.3499 -0.3842  0.2096
 2084TIP3    H130447   1.520   4.166  17.128  0.4202  0.0929  0.6595
 2084TIP3    H230448   1.649   4.232  17.173  1.1285 -1.2892  0.6992
 2085TIP3   OH230449   0.283   1.386  17.336  0.4005 -0.1800 -0.4401
 2085TIP3    H130450   0.378   1.400  17.338  0.4617 -0.6135 -0.0507
 2085TIP3    H230451   0.267   1.347  17.250  0.3896  1.0766 -1.0315
 2086TIP3   OH230452   5.776   6.340  17.837  0.2108  0.2185 -0.0495
 2086TIP3    H130453   5.715   6.307  17.903 -0.3555 -1.6725 -1.3972
 2086TIP3    H230454   5.859   6.351  17.883 -0.7077  1.2431  1.4571
 2087TIP3   OH230455   0.989   3.896  18.164 -0.5565 -0.6194  0.5449
 2087TIP3    H130456   1.052   3.967  18.179 -1.2101  0.0188  0.3389
 2087TIP3    H230457   0.914   3.920  18.218 -0.7511 -1.2077  0.5416
 2088TIP3   OH230458   6.974   1.822  17.656 -0.0502  0.2388  0.0633
 2088TIP3    H130459   6.954   1.876  17.732  1.3526  0.1744  0.5057
 2088TIP3    H230460   6.980   1.733  17.691  0.6529  0.2160 -0.1048
 2089TIP3   OH230461   7.201   3.038  17.390  0.3519  0.3180 -0.2134
 2089TIP3    H130462   7.246   3.006  17.468  3.1428 -3.3928 -2.9863
 2089TIP3    H230463   7.117   2.993  17.391 -0.1674  1.2497  1.1548
 2090TIP3   OH230464   2.637   0.355  16.660 -0.0982  0.5749  0.4736
 2090TIP3    H130465   2.668   0.382  16.574  0.0898  0.7320  0.5873
 2090TIP3    H230466   2.592   0.432  16.695  0.5737  0.8047  0.8609
 2091TIP3   OH230467   0.974   0.352  18.306  0.6205  0.0464  0.1565
 2091TIP3    H130468   0.968   0.331  18.399  0.2886 -0.8849 -0.0558
 2091TIP3    H230469   0.951   0.444  18.300 -1.0969 -0.3088  0.8042
 2092TIP3   OH230470   7.075   0.071  16.747  0.5931 -0.5311  0.1657
 2092TIP3    H130471   7.165   0.044  16.763  0.4891 -0.9530  0.0700
 2092TIP3    H230472   7.075   0.104  16.657  0.2392 -2.5042 -0.6215
 2093TIP3   OH230473   3.206   3.030  17.821 -0.1158 -0.4024  0.3721
 2093TIP3    H130474   3.253   2.956  17.781 -0.0446 -0.8461  1.2406
 2093TIP3    H230475   3.114   3.013  17.802 -0.2472 -1.5488  1.8325
 2094TIP3   OH230476   3.618   4.504  18.503 -0.2160  0.1582  0.5470
 2094TIP3    H130477   3.685   4.559  18.543 -0.8721  2.6775 -1.5200
 2094TIP3    H230478   3.632   4.514  18.409 -1.9670 -1.2319  0.0837
 2095TIP3   OH230479   7.244   6.773  16.208  0.3007 -0.0001 -0.6841
 2095TIP3    H130480   7.304   6.751  16.137 -1.3580  0.6267 -2.3808
 2095TIP3    H230481   7.160   6.788  16.164 -1.0688 -0.6605  1.5416
 2096TIP3   OH230482   2.593   2.372  17.982 -0.3095  0.7435 -0.6011
 2096TIP3    H130483   2.603   2.308  18.052 -0.1835  0.6652 -0.6923
 2096TIP3    H230484   2.621   2.455  18.021 -1.3578  0.9200 -0.1880
 2097TIP3   OH230485   0.167   4.731  17.127  0.7438 -0.5743 -0.1864
 2097TIP3    H130486   0.133   4.645  17.151  2.1341 -0.9390  0.5748
 2097TIP3    H230487   0.262   4.720  17.128  0.9264  0.4991 -1.8908
 2098TIP3   OH230488   3.259   0.428  17.422 -0.4244 -0.7455 -0.0324
 2098TIP3    H130489   3.174   0.413  17.380 -1.4610  1.5828  1.0280
 2098TIP3    H230490   3.256   0.377  17.503 -0.9586 -0.4313  0.1520
 2099TIP3   OH230491   2.057   0.554  17.515 -0.2661  0.9271  0.1385
 2099TIP3    H130492   1.990   0.496  17.477  2.0953 -0.5769 -2.0754
 2099TIP3    H230493   2.022   0.577  17.601 -2.3326 -2.0876  0.2913
 2100TIP3   OH230494   0.204   7.050  16.896  0.1748 -0.1018  0.3019
 2100TIP3    H130495   0.145   6.991  16.850 -1.4062  0.7586  1.0997
 2100TIP3    H230496   0.267   7.079  16.830 -0.9320 -0.2673 -0.8639
 2101TIP3   OH230497   6.753   5.995  17.678  0.4991  0.6583  0.3060
 2101TIP3    H130498   6.789   5.911  17.650  0.8890  0.5355  1.1328
 2101TIP3    H230499   6.672   6.004  17.628  0.8955  0.2093 -0.4390
 2102TIP3   OH230500   3.619   1.517  18.629  0.1067  0.2005  0.8200
 2102TIP3    H130501   3.564   1.443  18.653  0.5212 -0.6073 -0.6049
 2102TIP3    H230502   3.595   1.586  18.691 -1.4843 -0.5737  1.1081
 2103TIP3   OH230503   0.052   4.198  17.171  0.2622 -0.2457 -0.4623
 2103TIP3    H130504   0.016   4.146  17.242 -0.1741  1.2067  0.4308
 2103TIP3    H230505  -0.018   4.203  17.106 -0.2769  0.4856  0.1495
 2104TIP3   OH230506   0.650   1.373  17.073  0.0460 -0.1478 -0.2926
 2104TIP3    H130507   0.573   1.362  17.018 -0.2668 -3.1134  0.6037
 2104TIP3    H230508   0.616   1.410  17.155  0.1986  2.0742 -1.1523
 2105TIP3   OH230509   4.795   7.235  17.372 -0.1158 -0.1440 -1.0818
 2105TIP3    H130510   4.882   7.253  17.336 -0.4342 -0.3443 -1.9821
 2105TIP3    H230511   4.809   7.229  17.467  0.2913  3.0585 -0.8302
 2106TIP3   OH230512   3.705   3.006  17.187  0.2203  0.2131 -0.4342
 2106TIP3    H130513   3.781   3.012  17.128  0.3045 -0.0453 -0.3503
 2106TIP3    H230514   3.739   2.963  17.265  0.3917  1.5342  0.2622
 2107TIP3   OH230515   6.843   6.407  18.911 -0.2499  0.2535 -0.7078
 2107TIP3    H130516   6.834   6.363  18.827 -0.3762 -0.8416 -0.1371
 2107TIP3    H230517   6.763   6.460  18.919 -1.2042 -1.1623 -0.4277
 2108TIP3   OH230518   6.967   1.768  17.070 -0.1967  0.0143 -0.1603
 2108TIP3    H130519   6.957   1.681  17.110 -0.5082 -0.2138 -0.7279
 2108TIP3    H230520   6.961   1.752  16.976 -0.5136  0.6867 -0.2573
 2109TIP3   OH230521   1.009   2.642  15.882 -0.3033 -0.1871  0.3540
 2109TIP3    H130522   1.073   2.627  15.951 -1.7387 -0.8028  1.6235
 2109TIP3    H230523   1.011   2.736  15.866  1.0172 -0.2248  0.2402
 2110TIP3   OH230524   3.137   7.377  18.687 -0.2544  0.1700 -0.0172
 2110TIP3    H130525   3.065   7.426  18.728  1.1072  1.5361  0.8526
 2110TIP3    H230526   3.109   7.366  18.596 -0.9423  2.0093 -0.0805
 2111TIP3   OH230527   5.902   6.199  18.587 -0.0345 -0.4945  0.3197
 2111TIP3    H130528   5.952   6.231  18.662 -0.6007 -1.6890  1.2528
 2111TIP3    H230529   5.963   6.143  18.540  0.8039  1.4601 -1.0394
 2112TIP3   OH230530   0.888   6.514  17.795  0.4318  0.2949 -0.2445
 2112TIP3    H130531   0.890   6.421  17.817  1.3730  0.0221 -1.3502
 2112TIP3    H230532   0.971   6.529  17.748  1.8945  2.4268  2.7164
 2113TIP3   OH230533   0.520   1.525  17.561 -0.6708  0.0416  0.5328
 2113TIP3    H130534   0.437   1.573  17.563 -1.0260 -0.5069 -0.3419
 2113TIP3    H230535   0.583   1.585  17.600 -1.1097  1.2094 -0.4803
 2114TIP3   OH230536   6.065   1.411  18.280 -0.7224  0.4764  0.1163
 2114TIP3    H130537   6.158   1.426  18.299 -0.5728  0.6324 -0.7037
 2114TIP3    H230538   6.030   1.374  18.361  0.6823 -2.3015 -0.4149
 2115TIP3   OH230539   0.849   0.384  17.980  0.1858  0.7698 -0.1683
 2115TIP3    H130540   0.769   0.424  18.013  0.1100  1.0186 -0.6343
 2115TIP3    H230541   0.913   0.395  18.050 -0.9246 -2.0161  1.4500
 2116TIP3   OH230542   5.620   5.900  18.213 -0.0918 -0.0389  0.3217
 2116TIP3    H130543   5.556   5.925  18.279 -1.7178  0.2820 -1.2824
 2116TIP3    H230544   5.648   5.983  18.174 -1.0305 -0.3177 -1.0237
 2117TIP3   OH230545   3.267   3.249  17.986  0.1094 -0.3202  0.3884
 2117TIP3    H130546   3.262   3.175  17.925 -0.9763 -0.8421  1.0851
 2117TIP3    H230547   3.336   3.225  18.047  1.1186  0.1487 -0.5346
 2118TIP3   OH230548   2.616   5.140  19.013 -0.0341 -0.1111 -0.2684
 2118TIP3    H130549   2.681   5.196  19.053  0.2388 -1.0058  0.5853
 2118TIP3    H230550   2.661   5.099  18.940 -0.3071  0.9396 -1.0494
 2119TIP3   OH230551   2.716   4.513  16.875 -0.0868 -0.1670 -0.3984
 2119TIP3    H130552   2.719   4.418  16.892 -0.1668 -0.3229 -1.2171
 2119TIP3    H230553   2.807   4.537  16.859  0.1787  0.2338  1.4913
 2120TIP3   OH230554   1.984   0.921  16.910  0.6135  0.0094 -0.3162
 2120TIP3    H130555   2.042   0.883  16.844  1.6821  3.2792 -1.4913
 2120TIP3    H230556   2.044   0.958  16.976 -0.3395 -0.4272  0.8303
 2121TIP3   OH230557   3.905   4.869  17.686 -0.3855  0.2131  0.4148
 2121TIP3    H130558   3.834   4.805  17.683 -0.2775  0.0699  0.7953
 2121TIP3    H230559   3.867   4.950  17.651 -0.5128 -0.0660 -0.0938
 2122TIP3   OH230560   5.711   3.450  16.405 -0.1584 -0.1711  0.1213
 2122TIP3    H130561   5.631   3.402  16.384 -0.5863  0.7053 -0.3121
 2122TIP3    H230562   5.720   3.440  16.500 -0.2472 -1.0665  0.0466
 2123TIP3   OH230563   6.440   6.346  16.736  0.1340  0.2717  0.3889
 2123TIP3    H130564   6.413   6.428  16.777  2.7653  0.9936  0.8376
 2123TIP3    H230565   6.484   6.373  16.655 -0.4629 -0.8218 -0.3236
 2124TIP3   OH230566   1.325   6.880  16.387 -0.0264 -0.1419  0.1248
 2124TIP3    H130567   1.304   6.832  16.307  0.7574 -0.1247 -0.0980
 2124TIP3    H230568   1.368   6.815  16.443 -0.8371 -0.2330  0.6607
 2125TIP3   OH230569   6.582   1.326  18.124  0.4710  0.4992 -0.0933
 2125TIP3    H130570   6.558   1.416  18.100  0.7969  1.0562  1.5269
 2125TIP3    H230571   6.515   1.272  18.083 -0.7444  1.6304  0.3098
 2126TIP3   OH230572   2.378   3.240  18.122  0.0618 -0.1622  0.1831
 2126TIP3    H130573   2.385   3.145  18.132 -0.1545 -0.1314  0.6595
 2126TIP3    H230574   2.466   3.268  18.095 -0.1054 -0.5986 -0.8784
 2127TIP3   OH230575   4.574   2.226  17.177  0.1312  0.2652 -0.8202
 2127TIP3    H130576   4.545   2.137  17.197  0.8873  0.1709 -0.1237
 2127TIP3    H230577   4.655   2.237  17.227  0.6356  0.9605 -1.7654
 2128TIP3   OH230578   7.264   6.464  17.209 -0.9078  0.3529 -0.1975
 2128TIP3    H130579   7.245   6.515  17.287 -3.0175 -0.2407 -0.2835
 2128TIP3    H230580   7.269   6.374  17.240 -0.2940  0.2586 -0.5434
 2129TIP3   OH230581   3.305   6.884  17.855 -0.0085  0.8085  0.2835
 2129TIP3    H130582   3.358   6.810  17.823  0.1388 -0.6282  3.4713
 2129TIP3    H230583   3.241   6.899  17.785  1.7522 -0.4013 -1.7243
 2130TIP3   OH230584   4.794   2.441  18.643  0.2900 -0.0430  0.5103
 2130TIP3    H130585   4.846   2.383  18.698  0.5475 -1.2276 -0.9249
 2130TIP3    H230586   4.731   2.383  18.600 -0.5440  0.9960  0.2852
 2131TIP3   OH230587   0.979   7.332  16.837  0.0317  0.7766  0.3594
 2131TIP3    H130588   1.039   7.353  16.765 -0.6277  1.1076 -0.1017
 2131TIP3    H230589   1.036   7.316  16.912  0.7342  0.3201 -0.2639
 2132TIP3   OH230590   1.456   2.499  18.072 -0.7943  0.2471 -0.0949
 2132TIP3    H130591   1.505   2.442  18.131 -0.3419  0.7428  0.0129
 2132TIP3    H230592   1.365   2.488  18.098 -0.9751 -2.0231 -1.4095
 2133TIP3   OH230593   6.951   4.571  18.642 -0.3474  0.5852  0.1803
 2133TIP3    H130594   6.881   4.631  18.666 -0.7508 -0.8814  3.0406
 2133TIP3    H230595   7.026   4.600  18.693 -0.0433 -0.2699  0.2338
 2134TIP3   OH230596   2.636   4.801  19.068 -0.0174 -0.1760  0.0926
 2134TIP3    H130597   2.611   4.866  19.134 -1.6788 -1.0166  0.3599
 2134TIP3    H230598   2.587   4.826  18.990  2.0809  0.9226 -0.9516
 2135TIP3   OH230599   3.781   1.646  17.506 -0.1151  0.0837 -0.2956
 2135TIP3    H130600   3.767   1.738  17.527  0.0225  0.4232 -1.6631
 2135TIP3    H230601   3.774   1.601  17.591  0.5506  1.4225  0.4878
 2136TIP3   OH230602   3.677   0.690  18.765 -0.0018  0.2823  0.0640
 2136TIP3    H130603   3.658   0.774  18.722  1.2949  0.5248 -0.0812
 2136TIP3    H230604   3.769   0.673  18.744 -0.1387 -0.9909  0.4212
 2137TIP3   OH230605   7.610   3.358  18.240 -0.0171  0.3274 -0.5014
 2137TIP3    H130606   7.568   3.442  18.256  1.0722  0.6570  0.8444
 2137TIP3    H230607   7.601   3.344  18.145 -1.9974  0.9497 -0.4509
 2138TIP3   OH230608   7.478   4.866  18.065  0.1275 -0.6027  0.3057
 2138TIP3    H130609   7.564   4.826  18.073  0.6356  0.4505  0.2720
 2138TIP3    H230610   7.465   4.878  17.971  0.7187  0.8326  0.3861
 2139TIP3   OH230611   2.300   4.900  17.789  0.0191  0.3240  0.4173
 2139TIP3    H130612   2.380   4.930  17.747 -0.2224  0.1574 -0.1779
 2139TIP3    H230613   2.245   4.978  17.795 -0.8080 -0.0374 -1.5841
 2140TIP3   OH230614   1.839   5.690  17.608  0.5196  0.4643  0.0506
 2140TIP3    H130615   1.849   5.609  17.657 -0.6492  0.5968  0.5549
 2140TIP3    H230616   1.823   5.661  17.518 -0.2162  0.1100  0.2853
 2141TIP3   OH230617   7.093   3.307  18.489 -0.0921 -0.4988  0.3230
 2141TIP3    H130618   7.173   3.262  18.516  1.1962  1.8906  0.8085
 2141TIP3    H230619   7.089   3.295  18.394  0.0614 -1.7737  0.4561
 2142TIP3   OH230620   2.292   0.981  16.503  0.3226 -0.2979  0.0892
 2142TIP3    H130621   2.297   1.073  16.479  1.9280 -0.0741  1.1180
 2142TIP3    H230622   2.255   0.981  16.592 -0.4365 -0.7197 -0.2138
 2143TIP3   OH230623   7.317   3.259  16.928 -0.3051 -0.3889  0.3466
 2143TIP3    H130624   7.272   3.222  17.004 -0.3935 -0.5661  0.2082
 2143TIP3    H230625   7.386   3.314  16.965 -1.0193  0.3848  0.5756
 2144TIP3   OH230626   0.188   0.714  17.130  0.0189  0.0477  0.4068
 2144TIP3    H130627   0.237   0.686  17.052  0.0905  1.5285 -0.1082
 2144TIP3    H230628   0.098   0.686  17.113  0.2432 -0.6078  0.2889
 2145TIP3   OH230629   1.336   1.106  16.507  0.2355 -0.3115  0.3419
 2145TIP3    H130630   1.265   1.043  16.520 -0.1450  0.1956  0.7431
 2145TIP3    H230631   1.393   1.064  16.442 -0.0313 -1.0509  0.5717
 2146TIP3   OH230632   1.152   6.080  18.626 -0.2168  0.3352  0.3078
 2146TIP3    H130633   1.183   6.027  18.554 -1.0164 -0.0079  0.2131
 2146TIP3    H230634   1.222   6.074  18.692 -0.0536 -0.3632  0.0740
 2147TIP3   OH230635   1.908   3.374  17.734  0.1875 -0.3172  0.3224
 2147TIP3    H130636   1.878   3.464  17.723  1.5584  0.2401  0.9931
 2147TIP3    H230637   1.890   3.332  17.650 -0.3904  0.5949 -0.0179
 2148TIP3   OH230638   5.459   7.636  18.725  0.0572  0.2986  0.1825
 2148TIP3    H130639   5.547   7.670  18.711  0.4119 -0.8964 -0.7163
 2148TIP3    H230640   5.410   7.709  18.762  0.9286  1.5629 -1.0760
 2149TIP3   OH230641   6.522   2.057  17.495 -0.2853 -0.3492  0.1105
 2149TIP3    H130642   6.500   2.025  17.582  0.5645 -2.5695 -0.4305
 2149TIP3    H230643   6.484   1.992  17.435  0.4675  0.3040 -1.1229
 2150TIP3   OH230644   3.903   4.271  17.453 -0.4402  0.1401 -0.0370
 2150TIP3    H130645   3.919   4.234  17.540 -1.7588 -1.0956 -0.2785
 2150TIP3    H230646   3.845   4.346  17.469 -0.8174 -0.1850  0.1525
 2151TIP3   OH230647   2.308   2.923  17.297 -0.2511 -0.2585  0.2223
 2151TIP3    H130648   2.379   2.862  17.315 -0.7765 -1.0337 -0.2379
 2151TIP3    H230649   2.311   2.937  17.202 -0.8854 -0.5354  0.1539
 2152TIP3   OH230650   5.649   2.290  16.837 -0.3316 -0.2772  0.7878
 2152TIP3    H130651   5.719   2.340  16.795 -0.6498  1.3909  2.1207
 2152TIP3    H230652   5.680   2.199  16.834  0.5305  0.0168 -1.2249
 2153TIP3   OH230653   0.443   5.170  18.200  0.0383  0.3116 -0.5448
 2153TIP3    H130654   0.466   5.263  18.191 -0.5271  0.4648 -0.4360
 2153TIP3    H230655   0.419   5.143  18.112  1.2152 -0.0182 -0.7865
 2154TIP3   OH230656   1.664   3.789  17.967  0.0053 -0.1407 -0.0645
 2154TIP3    H130657   1.724   3.834  17.908 -1.0777  0.6943 -0.5663
 2154TIP3    H230658   1.605   3.858  17.998 -0.0066 -0.7328  1.3075
 2155TIP3   OH230659   2.681   4.263  18.043  0.6034 -0.3786 -0.3631
 2155TIP3    H130660   2.629   4.183  18.028 -0.6031  0.2862  0.1078
 2155TIP3    H230661   2.754   4.234  18.097  0.0664 -1.1407 -0.0156
 2156TIP3   OH230662   6.353   3.599  16.716 -0.2910 -0.5127 -0.4445
 2156TIP3    H130663   6.324   3.690  16.712 -0.7399 -0.5883  0.8776
 2156TIP3    H230664   6.297   3.558  16.782  1.5633 -1.1179  0.8432
 2157TIP3   OH230665   1.999   6.196  17.042 -0.1593 -0.3475 -0.2396
 2157TIP3    H130666   1.943   6.186  16.965 -0.7281  0.0630  0.1064
 2157TIP3    H230667   2.057   6.120  17.040  1.4798  0.8705 -2.3731
 2158TIP3   OH230668   6.111   0.586  16.581 -1.1021  0.6806 -0.3389
 2158TIP3    H130669   6.017   0.598  16.577 -1.4155 -0.9779  0.9568
 2158TIP3    H230670   6.124   0.492  16.571  0.3996  0.8486 -0.2934
 2159TIP3   OH230671   3.596   5.093  16.671 -0.3311 -0.2466 -0.2435
 2159TIP3    H130672   3.604   5.137  16.755  0.1724 -1.9291  0.6266
 2159TIP3    H230673   3.685   5.069  16.647 -0.5034 -0.0682 -1.1004
 2160TIP3   OH230674   1.538   6.272  18.781 -0.0261  0.5474  0.2588
 2160TIP3    H130675   1.570   6.320  18.858  1.4405 -0.0982  0.1002
 2160TIP3    H230676   1.463   6.322  18.751  0.6940  2.0478  0.8248
 2161TIP3   OH230677   4.323   0.785  16.370  0.3266 -0.5120  0.3122
 2161TIP3    H130678   4.251   0.740  16.414  0.4217 -0.0454  0.9545
 2161TIP3    H230679   4.285   0.818  16.289 -0.5315  0.7845  1.1999
 2162TIP3   OH230680   2.658   7.295  16.620 -0.1733  0.3923 -0.3521
 2162TIP3    H130681   2.596   7.321  16.552  1.3024  0.1254 -1.8678
 2162TIP3    H230682   2.651   7.200  16.624  0.0996  0.3631 -0.5089
 2163TIP3   OH230683   3.488   1.776  18.738  0.3247 -0.0870 -0.1446
 2163TIP3    H130684   3.466   1.749  18.649 -1.6489  0.1627  0.2130
 2163TIP3    H230685   3.430   1.725  18.794  3.2630 -2.1543  1.2841
 2164TIP3   OH230686   1.628   5.897  17.382 -0.5528  0.2130  0.7497
 2164TIP3    H130687   1.676   5.896  17.298 -3.6049  0.9231 -1.1520
 2164TIP3    H230688   1.621   5.804  17.406 -0.2353 -0.0621 -0.1549
 2165TIP3   OH230689   7.258   2.162  18.409  0.2164 -0.1695 -0.4371
 2165TIP3    H130690   7.185   2.195  18.462  0.1324  0.4012 -0.9050
 2165TIP3    H230691   7.231   2.177  18.319  0.8767 -0.0271 -0.6158
 2166TIP3   OH230692   2.002   2.782  18.241  0.2216 -0.1303  0.3680
 2166TIP3    H130693   1.985   2.786  18.335 -0.7709  0.0232  0.1856
 2166TIP3    H230694   2.091   2.817  18.232  0.9773 -1.6447  1.4170
 2167TIP3   OH230695   0.337   5.500  16.871 -0.3754  0.3946 -0.2213
 2167TIP3    H130696   0.382   5.510  16.787 -1.3209 -1.6923 -1.0387
 2167TIP3    H230697   0.372   5.418  16.908 -0.2123  1.1048  1.2864
 2168TIP3   OH230698   4.703   2.818  17.642  0.0414  0.0039 -0.1670
 2168TIP3    H130699   4.759   2.742  17.622 -0.7633 -0.5954 -0.2108
 2168TIP3    H230700   4.689   2.860  17.557  0.4822  0.1965 -0.1457
 2169TIP3   OH230701   1.895   6.840  18.119 -0.3903 -0.3578 -0.5963
 2169TIP3    H130702   1.948   6.846  18.199 -0.0259  0.8613 -0.9090
 2169TIP3    H230703   1.842   6.761  18.132  0.1517 -0.5646  0.5467
 2170TIP3   OH230704   7.675   5.243  18.310  0.1138 -0.4591 -0.2795
 2170TIP3    H130705   7.639   5.226  18.223 -0.0437 -1.2377 -0.0687
 2170TIP3    H230706   7.687   5.156  18.348 -0.0378 -0.1115  0.5663
 2171TIP3   OH230707   2.574   3.056  18.406 -0.7933 -0.7492 -0.1033
 2171TIP3    H130708   2.575   3.132  18.464 -1.3253 -2.3067  2.0764
 2171TIP3    H230709   2.481   3.037  18.393 -0.7032 -0.0828 -2.0290
 2172TIP3   OH230710   0.884   2.046  16.742 -0.2337 -0.2912 -0.3686
 2172TIP3    H130711   0.919   1.979  16.683  0.2135 -0.1693 -0.2471
 2172TIP3    H230712   0.878   2.125  16.688  1.0598  0.0647 -0.0263
 2173TIP3   OH230713   2.202   3.104  17.477 -0.2158  0.6587  0.2416
 2173TIP3    H130714   2.234   3.054  17.402 -0.1339  2.3842 -0.9348
 2173TIP3    H230715   2.274   3.103  17.540  0.0921  0.0281 -0.1168
 2174TIP3   OH230716   1.538   7.404  17.914 -0.1331 -0.3463 -0.2723
 2174TIP3    H130717   1.506   7.373  17.998  1.5088  2.0496  1.3515
 2174TIP3    H230718   1.474   7.468  17.885  1.2923  1.9384  1.3182
 2175TIP3   OH230719   0.120   2.193  17.006 -0.6191  0.0611 -0.1364
 2175TIP3    H130720   0.050   2.170  16.946 -0.8849 -0.8608  0.5041
 2175TIP3    H230721   0.077   2.244  17.075 -0.1904  1.7736 -1.0672
 2176TIP3   OH230722   4.683   3.952  18.336 -0.5006  0.4657 -0.4435
 2176TIP3    H130723   4.739   3.874  18.340  0.0523  0.8870  0.5291
 2176TIP3    H230724   4.612   3.933  18.397  0.5793  1.3958  1.1957
 2177TIP3   OH230725   7.648   5.654  19.120  0.1714  0.1548  0.3307
 2177TIP3    H130726   7.738   5.631  19.145  0.1739 -1.0511 -0.7021
 2177TIP3    H230727   7.651   5.661  19.025 -0.6887  0.7937  0.3436
 2178TIP3   OH230728   4.919   6.563  17.593 -0.2275  0.5603  0.2989
 2178TIP3    H130729   4.955   6.556  17.505  0.3101  1.1481  0.4709
 2178TIP3    H230730   4.987   6.527  17.650  0.5685  2.6109  0.7220
 2179TIP3   OH230731   5.975   5.410  18.531  0.2230 -0.6344  0.3804
 2179TIP3    H130732   6.004   5.468  18.602 -1.3440  0.7035  0.0062
 2179TIP3    H230733   5.917   5.347  18.575 -0.0643 -0.3466  0.4136
 2180TIP3   OH230734   1.576   3.234  16.846  0.2806 -0.2038 -0.2598
 2180TIP3    H130735   1.516   3.173  16.803  0.2109  0.2012 -0.7452
 2180TIP3    H230736   1.620   3.280  16.773 -0.2884  0.9346  0.0899
 2181TIP3   OH230737   7.212   0.646  17.543 -0.6828 -0.2550 -0.1327
 2181TIP3    H130738   7.243   0.580  17.481  0.6411 -0.0526  0.2801
 2181TIP3    H230739   7.284   0.657  17.605 -1.4583  0.5100  0.6682
 2182TIP3   OH230740   5.286   6.095  17.242  0.2646  0.5159 -0.0234
 2182TIP3    H130741   5.321   6.155  17.176  2.0605 -0.1060  0.3084
 2182TIP3    H230742   5.289   6.009  17.200 -1.0687  0.4613 -0.0383
 2183TIP3   OH230743   3.937   7.459  17.211  0.1263  0.4877  0.5674
 2183TIP3    H130744   3.898   7.536  17.252 -0.0549  0.9751 -0.4894
 2183TIP3    H230745   3.969   7.490  17.127 -0.2837 -0.6758 -0.0460
 2184TIP3   OH230746   0.053   2.842  16.673  0.0751 -0.2018  0.1568
 2184TIP3    H130747  -0.022   2.782  16.673  0.4767 -0.7494 -1.1806
 2184TIP3    H230748   0.103   2.817  16.751 -0.2321 -1.0224  0.1085
 2185TIP3   OH230749   7.392   4.726  18.969 -0.2445 -0.0567  0.1049
 2185TIP3    H130750   7.323   4.682  19.018  0.8644 -2.3482 -0.2794
 2185TIP3    H230751   7.452   4.656  18.943  1.1636  1.5821 -1.3137
 2186TIP3   OH230752   5.090   1.480  17.597 -0.1079  0.5293 -0.0059
 2186TIP3    H130753   5.126   1.429  17.669  0.2352  0.1054 -0.4731
 2186TIP3    H230754   4.995   1.475  17.610 -0.0563  0.2480  0.2723
 2187TIP3   OH230755   7.612   2.723  17.975  0.8066 -0.1002  0.6094
 2187TIP3    H130756   7.559   2.643  17.978  1.5096 -0.5705  0.7064
 2187TIP3    H230757   7.687   2.704  18.031  0.8699  0.7166  0.8132
 2188TIP3   OH230758   0.828   5.819  16.639 -0.4546  0.0168  0.3289
 2188TIP3    H130759   0.883   5.747  16.609 -0.2310  0.2435  0.1862
 2188TIP3    H230760   0.787   5.787  16.719 -0.1491 -0.1710  0.4104
 2189TIP3   OH230761   2.671   0.951  17.126  0.0641 -0.0150 -0.2927
 2189TIP3    H130762   2.610   1.023  17.143  1.5896  0.8900  1.9880
 2189TIP3    H230763   2.629   0.874  17.163  0.2458  0.6185  1.3425
 2190TIP3   OH230764   3.781   0.098  18.716 -0.1939  0.4116 -0.1626
 2190TIP3    H130765   3.876   0.082  18.715 -0.2328  0.2186 -1.1545
 2190TIP3    H230766   3.770   0.172  18.776  0.7246  1.2342 -0.9651
 2191TIP3   OH230767   3.997   1.957  17.132  0.3638  0.0934 -0.0887
 2191TIP3    H130768   4.091   1.952  17.147  0.3036  1.1602  0.7723
 2191TIP3    H230769   3.962   1.878  17.173  0.7794  0.2292  0.5370
 2192TIP3   OH230770   4.320   4.867  16.394  0.3399 -0.6989 -0.8764
 2192TIP3    H130771   4.240   4.816  16.382  0.3812 -0.5926 -1.6286
 2192TIP3    H230772   4.288   4.955  16.415  0.2692 -0.8964 -0.1184
 2193TIP3   OH230773   2.595   2.154  18.824  0.3087  0.7456  0.2770
 2193TIP3    H130774   2.516   2.117  18.863 -0.3392  1.0094 -0.7633
 2193TIP3    H230775   2.657   2.080  18.821  0.4018  0.7334  1.8290
 2194TIP3   OH230776   3.909   3.924  18.684  0.3866  0.3000 -0.4704
 2194TIP3    H130777   3.966   3.890  18.616 -1.5241 -0.8828 -1.5885
 2194TIP3    H230778   3.822   3.889  18.662 -0.5623  1.0299  1.7912
 2195TIP3   OH230779   3.016   1.536  16.694 -0.1104  0.2653 -0.7464
 2195TIP3    H130780   3.029   1.449  16.658  0.6469  0.3218 -0.6308
 2195TIP3    H230781   2.992   1.591  16.619 -0.7976 -0.0793 -0.7836
 2196TIP3   OH230782   2.278   1.199  17.945  0.7709  0.8759  0.1187
 2196TIP3    H130783   2.232   1.157  17.872  2.2882  1.4566 -1.2240
 2196TIP3    H230784   2.208   1.238  17.998 -0.4107 -0.1854 -0.6146
 2197TIP3   OH230785   0.538   4.088  17.272  0.2752  0.2232 -0.3551
 2197TIP3    H130786   0.475   4.095  17.344 -0.4222  2.0685 -1.0711
 2197TIP3    H230787   0.500   4.025  17.211  0.3446 -0.5285  0.3650
 2198TIP3   OH230788   6.714   1.903  18.072  0.0583  0.4941  0.1037
 2198TIP3    H130789   6.713   1.898  18.168 -0.9579  0.5347  0.1119
 2198TIP3    H230790   6.759   1.823  18.044 -2.1867 -1.0297  0.5788
 2199TIP3   OH230791   2.859   5.362  16.525  0.0065 -0.5188 -0.5264
 2199TIP3    H130792   2.769   5.330  16.526 -0.0181 -0.4646  1.3882
 2199TIP3    H230793   2.900   5.322  16.601  1.5670 -0.3870 -1.2574
 2200TIP3   OH230794   5.031   2.682  16.902 -0.1190  0.3478  0.0738
 2200TIP3    H130795   5.053   2.610  16.844  0.7824  0.2879  0.4670
 2200TIP3    H230796   4.944   2.711  16.874 -1.8461 -2.7329  1.7347
 2201TIP3   OH230797   1.653   1.084  17.805 -0.3342  0.1446  0.3792
 2201TIP3    H130798   1.711   1.097  17.730  0.2861  2.0836  1.1298
 2201TIP3    H230799   1.669   0.994  17.832 -0.5614 -0.5990 -1.7698
 2202TIP3   OH230800   3.004   0.382  17.902 -0.6722  0.3361  0.0480
 2202TIP3    H130801   3.086   0.338  17.923 -0.8223  0.0469  0.0386
 2202TIP3    H230802   3.029   0.472  17.881 -0.6736  1.2188  3.2554
 2203TIP3   OH230803   4.445   7.665  18.380 -0.2072  0.5236  0.1236
 2203TIP3    H130804   4.429   7.582  18.424  1.0171  0.8576  1.2595
 2203TIP3    H230805   4.419   7.650  18.289 -0.0892 -1.0585  0.3346
 2204TIP3   OH230806   0.280   0.170  17.924  0.3283  0.0799 -0.2267
 2204TIP3    H130807   0.315   0.106  17.861 -1.9856 -0.7631 -0.7322
 2204TIP3    H230808   0.358   0.215  17.957  1.9222 -1.9523 -0.9856
 2205TIP3   OH230809   0.535   5.004  17.439 -0.2466 -0.1514 -0.3561
 2205TIP3    H130810   0.613   5.010  17.493  0.2517 -0.2470 -1.0448
 2205TIP3    H230811   0.486   5.084  17.457  0.7697  0.6575 -1.0578
 2206TIP3   OH230812   1.105   3.728  18.779 -0.3481  0.0767  0.8124
 2206TIP3    H130813   1.040   3.744  18.848  0.1327  0.5108  1.1766
 2206TIP3    H230814   1.104   3.808  18.727  0.9473  0.7113  1.7082
 2207TIP3   OH230815   1.899   1.292  16.981  0.0329  0.1670 -0.8461
 2207TIP3    H130816   1.870   1.235  17.052 -2.3582  1.4772 -0.6557
 2207TIP3    H230817   1.930   1.371  17.025  0.7767  0.0735 -1.1919
 2208TIP3   OH230818   0.916   7.471  18.191 -0.1092  0.1174 -0.2053
 2208TIP3    H130819   0.971   7.399  18.160 -0.5233  0.1085 -0.9373
 2208TIP3    H230820   0.878   7.508  18.112 -0.3411  0.7895  0.2099
 2209TIP3   OH230821   6.895   6.698  18.422 -0.2178  0.5684 -0.5667
 2209TIP3    H130822   6.952   6.774  18.407  0.8955 -0.0210  0.5215
 2209TIP3    H230823   6.930   6.631  18.363 -1.4885  0.9982 -1.8721
 2210TIP3   OH230824   2.756   6.807  18.388 -0.1874  0.0672 -0.1869
 2210TIP3    H130825   2.789   6.751  18.318 -0.9754  0.2470 -0.7163
 2210TIP3    H230826   2.706   6.875  18.342 -0.8780  0.0725  0.5651
 2211TIP3   OH230827   4.212   7.532  18.546 -0.0134 -0.6294  0.3474
 2211TIP3    H130828   4.179   7.588  18.476  0.8040  0.6442  0.9380
 2211TIP3    H230829   4.228   7.448  18.504 -1.1788 -0.4039 -0.5951
 2212TIP3   OH230830   6.022   5.249  18.881  0.1203 -0.5160 -0.2724
 2212TIP3    H130831   6.071   5.173  18.914  0.2415  0.2388  1.4029
 2212TIP3    H230832   5.956   5.212  18.824  0.5864 -1.8401  0.0035
 2213TIP3   OH230833   2.331   6.794  18.262 -0.0464 -0.8391  0.1311
 2213TIP3    H130834   2.332   6.734  18.188  1.5120  0.1119 -0.6623
 2213TIP3    H230835   2.269   6.863  18.237  0.7476 -0.3325 -0.4514
 2214TIP3   OH230836   2.838   3.271  18.813  0.0131  0.1714  0.3642
 2214TIP3    H130837   2.861   3.213  18.885 -1.3750 -1.7140 -0.6301
 2214TIP3    H230838   2.917   3.276  18.760  0.4573  0.0268  0.9978
 2215TIP3   OH230839   5.398   1.701  18.466  0.0356 -0.2721 -0.2215
 2215TIP3    H130840   5.439   1.631  18.516 -0.5599 -1.0216 -0.7750
 2215TIP3    H230841   5.441   1.698  18.380  0.0635  0.0974 -0.2251
 2216TIP3   OH230842   4.441   0.595  17.305 -0.6936  0.1870  0.1003
 2216TIP3    H130843   4.386   0.596  17.227 -1.0201 -0.2601  0.3201
 2216TIP3    H230844   4.483   0.509  17.303 -0.4046  0.3248  0.2126
 2217TIP3   OH230845   7.560   5.523  16.743 -0.1962  0.2429  0.2133
 2217TIP3    H130846   7.593   5.557  16.825 -1.0208 -1.9505  1.5628
 2217TIP3    H230847   7.629   5.540  16.679  1.2469  0.4076  1.7653
 2218TIP3   OH230848   7.677   1.408  17.362 -0.5147 -0.4375 -0.4207
 2218TIP3    H130849   7.767   1.396  17.330 -0.3972  0.2899 -0.3971
 2218TIP3    H230850   7.622   1.382  17.289 -0.2476  1.3490 -1.3187
 2219TIP3   OH230851   2.475   3.194  17.239  0.0464  0.5863  0.3219
 2219TIP3    H130852   2.394   3.154  17.272 -0.6300  2.1630  0.6730
 2219TIP3    H230853   2.523   3.219  17.318  0.3878  0.5848  0.1160
 2220TIP3   OH230854   0.037   6.659  16.840  0.0020  0.0434  0.6107
 2220TIP3    H130855  -0.026   6.717  16.797  0.3381  0.6553  0.9348
 2220TIP3    H230856   0.119   6.708  16.838  0.8156 -1.2781 -1.0078
 2221TIP3   OH230857   1.333   5.457  18.161  0.6843 -0.4189 -0.5157
 2221TIP3    H130858   1.358   5.462  18.253  2.7202 -0.8626 -1.0108
 2221TIP3    H230859   1.381   5.382  18.126  0.3179  0.0184 -2.0667
 2222TIP3   OH230860   2.771   4.476  16.408  0.0912 -0.3977 -0.2089
 2222TIP3    H130861   2.805   4.522  16.485 -0.2768  0.5131 -0.5800
 2222TIP3    H230862   2.836   4.409  16.389  1.9089  1.5370 -1.1396
 2223TIP3   OH230863   3.472   5.068  18.228  0.5038  0.7413  0.1623
 2223TIP3    H130864   3.542   5.006  18.208  0.0327  0.1655  0.2688
 2223TIP3    H230865   3.431   5.086  18.143  1.4261  1.8817 -0.0571
 2224TIP3   OH230866   5.247   7.509  17.596 -0.0485  0.7972  0.3528
 2224TIP3    H130867   5.312   7.447  17.562 -1.2787  0.2743 -1.1100
 2224TIP3    H230868   5.240   7.486  17.689  1.2080  0.2884  0.3499
 2225TIP3   OH230869   1.176   2.157  18.518  0.0787  0.3340 -0.3180
 2225TIP3    H130870   1.169   2.071  18.477  1.0155  0.7920 -1.5122
 2225TIP3    H230871   1.092   2.170  18.562 -0.8268 -0.3931 -1.7464
 2226TIP3   OH230872   5.799   6.692  18.325  0.3520  0.6599  0.8508
 2226TIP3    H130873   5.783   6.739  18.243  0.1764 -0.8122  0.0018
 2226TIP3    H230874   5.888   6.660  18.317 -0.4770 -1.6961  0.0118
 2227TIP3   OH230875   6.133   6.449  16.815  0.6485  0.2940 -0.2133
 2227TIP3    H130876   6.189   6.518  16.778  1.4533  0.6633  1.6170
 2227TIP3    H230877   6.157   6.445  16.907 -0.7606 -1.1295  0.1328
 2228TIP3   OH230878   3.836   6.349  17.107 -0.6684 -0.1710  0.1771
 2228TIP3    H130879   3.878   6.352  17.192 -0.9728  0.5845  0.3064
 2228TIP3    H230880   3.855   6.261  17.074 -1.4316 -0.8416  1.4656
 2229TIP3   OH230881   1.896   6.034  18.878 -0.6500 -0.0040 -0.1931
 2229TIP3    H130882   1.957   6.071  18.942 -0.6370  0.9858 -0.7590
 2229TIP3    H230883   1.895   6.097  18.806 -1.8201 -0.3493 -0.5012
 2230TIP3   OH230884   2.591   0.107  18.278  0.1667  0.1276  0.0130
 2230TIP3    H130885   2.648   0.183  18.269  0.8073 -0.2502  0.7246
 2230TIP3    H230886   2.647   0.032  18.260 -0.5434 -0.1765 -1.0228
 2231TIP3   OH230887   6.854   0.604  17.001 -0.9321 -0.3510 -0.0119
 2231TIP3    H130888   6.888   0.516  17.018 -1.3749 -0.6263 -0.5322
 2231TIP3    H230889   6.880   0.623  16.911 -1.7936 -0.3985 -0.2757
 2232TIP3   OH230890   7.204   5.378  17.372  0.4697 -0.2660  0.1558
 2232TIP3    H130891   7.203   5.319  17.296 -1.0843  0.6587 -0.6047
 2232TIP3    H230892   7.266   5.447  17.348 -1.3772  1.0468 -1.1904
 2233TIP3   OH230893   3.315   7.364  17.838 -0.3700 -0.0167 -0.0960
 2233TIP3    H130894   3.288   7.438  17.893  0.7998 -1.5432  2.7364
 2233TIP3    H230895   3.405   7.386  17.813 -0.3908 -0.0023 -0.1583
 2234TIP3   OH230896   3.464   6.077  17.143 -0.0437 -0.2792 -0.0206
 2234TIP3    H130897   3.419   6.162  17.137 -1.1213 -0.8359 -0.2339
 2234TIP3    H230898   3.553   6.095  17.112  0.1478  1.0332  1.1829
 2235TIP3   OH230899   6.003   2.104  17.323  0.0561  0.1093 -0.1511
 2235TIP3    H130900   6.034   2.184  17.366  0.3411 -0.1556  0.1420
 2235TIP3    H230901   5.984   2.131  17.234  0.8031  0.3603 -0.2457
 2236TIP3   OH230902   5.794   5.261  18.657 -0.5915  0.6138 -0.8939
 2236TIP3    H130903   5.763   5.209  18.583  0.2444  0.0703 -0.8699
 2236TIP3    H230904   5.726   5.250  18.724 -0.5868 -0.1749 -1.0085
 2237TIP3   OH230905   6.415   4.744  19.265 -0.4429  0.1306 -0.3263
 2237TIP3    H130906   6.423   4.839  19.254  0.7388 -0.0758 -1.4741
 2237TIP3    H230907   6.323   4.726  19.245 -0.1509  0.7864 -2.5083
 2238TIP3   OH230908   0.154   5.887  18.046  0.0679  0.0936  0.0257
 2238TIP3    H130909   0.112   5.800  18.044  0.4369 -0.1115 -2.5617
 2238TIP3    H230910   0.221   5.882  17.977  1.2595  1.9157  0.9813
 2239TIP3   OH230911   6.234   4.893  18.249 -0.6869  0.3949  0.2409
 2239TIP3    H130912   6.299   4.825  18.268  0.2407  1.3343  0.5043
 2239TIP3    H230913   6.161   4.874  18.308 -0.8806 -0.9571 -0.3947
 2240TIP3   OH230914   2.547   7.464  17.453  0.6434 -0.2163  0.4626
 2240TIP3    H130915   2.464   7.463  17.500  0.4233 -0.7308  0.0740
 2240TIP3    H230916   2.605   7.517  17.507  0.1431 -0.0932  0.8789
 2241TIP3   OH230917   7.503   3.804  19.060  0.2049 -0.4577  0.2540
 2241TIP3    H130918   7.413   3.835  19.054  0.3671 -0.1466 -0.7703
 2241TIP3    H230919   7.503   3.746  19.136 -1.0112 -0.9428 -0.0886
 2242TIP3   OH230920   0.057   1.383  18.326  0.4503 -0.0617 -0.1029
 2242TIP3    H130921   0.018   1.413  18.409  0.9743  0.3857 -0.0153
 2242TIP3    H230922   0.032   1.290  18.321 -0.5502  0.1839 -0.0054
 2243TIP3   OH230923   5.389   5.821  18.768  0.9144  0.0686  0.4575
 2243TIP3    H130924   5.379   5.910  18.734 -0.4965  0.1861  1.0961
 2243TIP3    H230925   5.483   5.805  18.767  1.3302  2.0736  1.5875
 2244TIP3   OH230926   7.228   0.993  17.031 -0.5289  0.0606 -0.4090
 2244TIP3    H130927   7.144   1.015  17.071 -0.8792 -0.5310 -0.7994
 2244TIP3    H230928   7.258   0.915  17.079  0.8120  1.4416  1.1267
 2245TIP3   OH230929   3.407   2.845  18.393  0.4399  0.2806 -0.0182
 2245TIP3    H130930   3.348   2.884  18.456 -1.3443 -0.7748 -0.9601
 2245TIP3    H230931   3.465   2.790  18.446 -2.2892 -2.1817  0.6768
 2246TIP3   OH230932   5.477   0.222  17.365  0.4973 -0.2149 -0.1687
 2246TIP3    H130933   5.451   0.215  17.273  0.4155 -0.8668 -0.1006
 2246TIP3    H230934   5.408   0.176  17.413 -0.6555  2.0135  0.4491
 2247TIP3   OH230935   0.532   6.313  17.458 -0.3841  0.2264  0.2359
 2247TIP3    H130936   0.558   6.341  17.546  0.5665  0.6793 -0.1789
 2247TIP3    H230937   0.453   6.260  17.472 -1.3591  1.8485  1.1978
 2248TIP3   OH230938   5.030   1.929  17.848  0.6802 -0.4408 -0.2256
 2248TIP3    H130939   5.078   1.878  17.782  0.5164 -2.1804  0.9214
 2248TIP3    H230940   4.944   1.943  17.809  0.8413 -0.7325 -0.7058
 2249TIP3   OH230941   0.917   2.909  18.215 -0.0008  0.5039 -0.4918
 2249TIP3    H130942   0.956   2.877  18.296 -0.9168  1.2839  0.2939
 2249TIP3    H230943   0.977   2.882  18.146  0.0676 -1.4742  0.2809
 2250TIP3   OH230944   0.081   5.334  18.942  0.1982  0.3146  0.6784
 2250TIP3    H130945   0.049   5.414  18.902 -1.3615  0.4862  2.1253
 2250TIP3    H230946   0.003   5.280  18.955  1.2416 -1.6525 -0.5946
 2251TIP3   OH230947   2.097   5.723  16.711 -0.2361 -0.3887 -0.0180
 2251TIP3    H130948   2.151   5.673  16.650  1.8468  1.1579  0.4477
 2251TIP3    H230949   2.139   5.809  16.715 -1.3368  0.1087  2.2751
 2252TIP3   OH230950   2.098   3.761  18.607  0.0887  0.0775 -0.2384
 2252TIP3    H130951   2.104   3.856  18.603 -0.3868  0.0795 -1.0913
 2252TIP3    H230952   2.086   3.742  18.700  1.3426  0.7662  0.0886
 2253TIP3   OH230953   0.211   7.108  16.087 -0.3072  0.1307 -0.7810
 2253TIP3    H130954   0.191   7.179  16.148  0.3323  1.5682 -2.1771
 2253TIP3    H230955   0.290   7.068  16.122 -1.0018 -0.3201  0.3439
 2254TIP3   OH230956   7.678   3.351  16.919  0.4249 -0.8278 -0.3365
 2254TIP3    H130957   7.646   3.390  16.837  1.1761 -0.1655 -0.3249
 2254TIP3    H230958   7.717   3.267  16.891  1.5290 -0.1767 -0.8073
 2255TIP3   OH230959   2.843   1.397  16.939 -0.1817  0.4280  0.1888
 2255TIP3    H130960   2.916   1.344  16.970  0.6294  1.7192  0.5885
 2255TIP3    H230961   2.864   1.418  16.848  0.5850  1.8021  0.6576
 2256TIP3   OH230962   2.392   0.159  16.994  0.3564  0.3968 -0.2793
 2256TIP3    H130963   2.304   0.138  17.025  0.1781  1.3606 -0.1310
 2256TIP3    H230964   2.394   0.126  16.904  0.3273 -0.8934  0.1592
 2257TIP3   OH230965   3.198   5.664  17.954  0.2858  0.2580  0.4549
 2257TIP3    H130966   3.238   5.592  18.004 -0.4548  0.4244  1.3193
 2257TIP3    H230967   3.134   5.621  17.897 -1.4901  0.3303  2.2863
 2258TIP3   OH230968   0.575   0.090  16.750 -0.4681 -0.2629 -0.1671
 2258TIP3    H130969   0.551   0.141  16.673 -0.9874  0.4037  0.4228
 2258TIP3    H230970   0.670   0.099  16.757 -0.2205 -1.4966 -1.5305
 2259TIP3   OH230971   4.952   5.889  17.159 -0.1519 -0.1016 -0.2668
 2259TIP3    H130972   4.947   5.940  17.239 -0.2964  0.2934 -0.5248
 2259TIP3    H230973   5.002   5.943  17.098  0.1216 -0.4804 -0.3850
 2260TIP3   OH230974   4.884   4.749  16.459 -0.0343 -0.3005  0.1936
 2260TIP3    H130975   4.876   4.660  16.493  0.0671 -0.3014  0.2188
 2260TIP3    H230976   4.885   4.739  16.364  0.0100 -0.3287  0.1976
 2261TIP3   OH230977   5.959   2.066  17.679  0.2254 -0.2797  0.5635
 2261TIP3    H130978   5.949   2.061  17.774 -1.6836 -2.0594  0.3447
 2261TIP3    H230979   5.872   2.042  17.645  0.7913  0.5730 -1.6285
 2262TIP3   OH230980   4.021   6.448  17.320 -0.6273 -0.5129 -0.3221
 2262TIP3    H130981   3.986   6.525  17.275  0.2606 -0.8769 -1.7360
 2262TIP3    H230982   4.106   6.477  17.355 -0.7277 -0.5843 -0.0172
 2263TIP3   OH230983   1.344   4.437  17.635 -0.0233 -0.0887  0.2758
 2263TIP3    H130984   1.400   4.379  17.686 -0.0158 -0.9645 -0.6982
 2263TIP3    H230985   1.402   4.473  17.567 -0.3523 -0.0184  0.0295
 2264TIP3   OH230986   7.218   0.592  18.578 -0.3235 -0.7411 -0.1448
 2264TIP3    H130987   7.149   0.637  18.627  0.7937  1.0675 -0.1538
 2264TIP3    H230988   7.275   0.662  18.546  0.2255 -2.0046 -2.1689
 2265TIP3   OH230989   1.975   5.422  17.114  0.2459  0.4705 -0.2677
 2265TIP3    H130990   1.982   5.332  17.082 -1.1829  0.3767 -0.3979
 2265TIP3    H230991   2.057   5.464  17.087 -0.2655  0.0076 -2.8931
 2266TIP3   OH230992   4.432   1.801  16.462  0.3695 -0.9715 -0.0976
 2266TIP3    H130993   4.502   1.775  16.402  0.3607  1.0414 -1.0521
 2266TIP3    H230994   4.417   1.893  16.443 -1.2449 -0.8688  1.4269
 2267TIP3   OH230995   4.113   7.452  17.895  0.2783 -0.2805 -0.2695
 2267TIP3    H130996   4.102   7.540  17.859 -1.9683 -0.6207 -0.5901
 2267TIP3    H230997   4.164   7.405  17.828 -0.0482  0.3186 -0.9561
 2268TIP3   OH230998   3.104   0.811  16.666  0.0331  0.1981 -0.6857
 2268TIP3    H130999   3.108   0.809  16.761 -2.1781  0.7450 -0.5306
 2268TIP3    H231000   3.061   0.894  16.645  1.6855  0.7300 -2.2521
 2269TIP3   OH231001   4.030   7.438  16.755  0.5916 -0.3416  0.3579
 2269TIP3    H131002   4.047   7.485  16.673 -2.7376 -0.0850 -0.3500
 2269TIP3    H231003   3.995   7.506  16.814 -0.5646 -1.1595  0.6546
 2270TIP3   OH231004   7.137   6.861  18.370 -0.0357 -0.1672 -0.1449
 2270TIP3    H131005   7.201   6.808  18.324 -0.7505 -0.1491 -1.1970
 2270TIP3    H231006   7.155   6.846  18.463  0.7348 -1.0518 -0.4294
 2271TIP3   OH231007   3.553   4.382  16.929  0.2706  0.4201  0.3763
 2271TIP3    H131008   3.534   4.423  16.845  1.0498  0.5461  0.2508
 2271TIP3    H231009   3.620   4.316  16.908 -0.2648 -0.2552  0.7329
 2272TIP3   OH231010   3.926   0.168  16.509  0.4938 -0.5167 -0.0698
 2272TIP3    H131011   3.968   0.131  16.431  2.0103 -0.4134  0.6650
 2272TIP3    H231012   3.837   0.187  16.481  0.8469 -0.9937 -1.6238
 2273TIP3   OH231013   7.373   6.030  17.581  0.2451  0.4655 -0.0145
 2273TIP3    H131014   7.347   5.988  17.499  0.4511  0.1582  0.0773
 2273TIP3    H231015   7.307   6.098  17.595  0.4665  0.8254 -0.6705
 2274TIP3   OH231016   5.544   2.086  17.311  0.1275  0.0009  0.3866
 2274TIP3    H131017   5.577   2.079  17.221  0.2280 -1.0275  0.4906
 2274TIP3    H231018   5.450   2.069  17.304 -0.3308  2.2964  0.1800
 2275TIP3   OH231019   0.559   1.480  17.289 -0.7030  0.2646  0.4284
 2275TIP3    H131020   0.566   1.564  17.244  1.9977  0.4009  0.9225
 2275TIP3    H231021   0.549   1.502  17.381 -0.9964  0.0412  0.4509
 2276TIP3   OH231022   1.652   2.674  18.024 -0.1287  0.0894 -0.4696
 2276TIP3    H131023   1.586   2.607  18.041 -1.2536  1.3688  0.3446
 2276TIP3    H231024   1.632   2.706  17.936 -1.0398  0.9622  0.0502
 2277TIP3   OH231025   0.180   3.872  18.309  0.6352 -0.3237 -0.0682
 2277TIP3    H131026   0.187   3.827  18.225 -2.8161  1.1537 -1.3541
 2277TIP3    H231027   0.175   3.965  18.287  2.0921  0.3230  2.0328
 2278TIP3   OH231028   7.304   4.679  17.223  0.3801  0.3589  0.0048
 2278TIP3    H131029   7.215   4.661  17.255  1.2291 -0.3738  2.1371
 2278TIP3    H231030   7.300   4.658  17.129 -1.8484  1.0122 -0.1037
 2279TIP3   OH231031   0.929   5.018  18.389 -0.4385 -0.5390  1.0230
 2279TIP3    H131032   0.926   5.078  18.315  1.3622  0.4357  1.6777
 2279TIP3    H231033   1.016   5.030  18.427 -0.8104 -2.0028  2.4850
 2280TIP3   OH231034   5.914   0.041  17.961 -0.1969  0.2691  0.1525
 2280TIP3    H131035   5.913   0.044  17.866 -0.3947  1.3295  0.1829
 2280TIP3    H231036   5.873  -0.043  17.983  1.0547 -0.6056 -0.7086
 2281TIP3   OH231037   3.303   2.184  18.634  0.5782  0.4223 -0.3075
 2281TIP3    H131038   3.365   2.148  18.697  0.5604  1.0714  0.0899
 2281TIP3    H231039   3.233   2.118  18.629  0.0320  0.8520  1.1884
 2282TIP3   OH231040   6.532   0.765  16.270  0.0944  0.0185  0.2401
 2282TIP3    H131041   6.621   0.732  16.258  0.1298 -0.1593  0.9074
 2282TIP3    H231042   6.485   0.737  16.192  0.5568 -0.1118  0.0034
 2283TIP3   OH231043   4.972   0.671  17.408 -0.0023 -0.5972 -0.3474
 2283TIP3    H131044   4.907   0.623  17.459 -0.4116 -0.0817 -0.3852
 2283TIP3    H231045   5.042   0.691  17.470 -0.8210  0.6627  0.2018
 2284TIP3   OH231046   4.712   4.892  17.212 -0.3856 -0.2310  0.2289
 2284TIP3    H131047   4.749   4.823  17.157  1.0079  1.1063 -0.6102
 2284TIP3    H231048   4.707   4.968  17.154  1.3039  1.2947  1.9463
 2285TIP3   OH231049   4.189   1.010  18.508  0.2419  0.1451  0.0605
 2285TIP3    H131050   4.136   1.087  18.527 -0.4549 -0.3251  0.0488
 2285TIP3    H231051   4.265   1.044  18.460  0.2348  0.8866  0.5672
 2286TIP3   OH231052   2.842   7.172  16.440  0.1073  0.5940  0.6434
 2286TIP3    H131053   2.801   7.243  16.489 -0.1457  1.2399 -0.4565
 2286TIP3    H231054   2.779   7.152  16.370  0.0912 -0.8478  1.0380
 2287TIP3   OH231055   2.869   7.471  18.758 -0.7913  0.2764 -0.5978
 2287TIP3    H131056   2.914   7.555  18.762  1.1901 -0.7865  0.7168
 2287TIP3    H231057   2.788   7.485  18.808 -1.2924  1.7851 -1.7294
 2288TIP3   OH231058   5.460   2.894  17.183 -0.2093  0.2171  0.2364
 2288TIP3    H131059   5.447   2.878  17.089 -2.1681  0.1873  0.4670
 2288TIP3    H231060   5.480   2.808  17.220  1.0275  0.2994 -0.1951
 2289TIP3   OH231061   0.917   6.428  17.477  0.5341 -0.5557 -0.1148
 2289TIP3    H131062   0.900   6.477  17.558 -0.1479 -1.2768  0.1832
 2289TIP3    H231063   0.899   6.491  17.407  0.9410  0.0165  0.2756
 2290TIP3   OH231064   4.557   0.536  19.029 -0.4836  1.2025 -0.1921
 2290TIP3    H131065   4.519   0.449  19.013 -1.5109  1.8780 -1.6687
 2290TIP3    H231066   4.483   0.596  19.021  0.4185  2.3240 -0.3873
 2291TIP3   OH231067   5.870   4.076  17.488 -0.1571  0.3585  0.1467
 2291TIP3    H131068   5.810   4.057  17.560 -0.8412  0.6347 -0.3410
 2291TIP3    H231069   5.896   4.166  17.501 -1.4932  0.9198 -0.7844
 2292TIP3   OH231070   5.914   2.430  18.183  0.1886  0.1319  0.2116
 2292TIP3    H131071   5.983   2.443  18.248  0.1746  1.6715 -0.0447
 2292TIP3    H231072   5.856   2.364  18.221  0.1987  0.9823  1.7606
 2293TIP3   OH231073   7.559   3.076  16.506  0.2008  0.5355 -0.0819
 2293TIP3    H131074   7.584   2.987  16.533  0.5942  0.2331 -1.3779
 2293TIP3    H231075   7.622   3.099  16.438  0.5364  2.1092  0.7278
 2294TIP3   OH231076   0.905   5.167  18.799  0.0795  0.1491 -0.3674
 2294TIP3    H131077   0.884   5.252  18.839  0.0254 -0.7370  1.6071
 2294TIP3    H231078   0.834   5.151  18.738 -1.6055  0.1507  1.5023
 2295TIP3   OH231079   3.114   2.301  18.140 -0.1740  0.2072 -0.5677
 2295TIP3    H131080   3.071   2.302  18.225  0.0999  1.9841 -0.4158
 2295TIP3    H231081   3.082   2.380  18.096  0.5668 -0.0756 -1.6602
 2296TIP3   OH231082   1.580   7.637  18.314  0.4314  0.3639 -0.6222
 2296TIP3    H131083   1.559   7.684  18.395  1.2985  1.3815 -0.9602
 2296TIP3    H231084   1.675   7.647  18.305  0.2830  0.6971 -2.0177
 2297TIP3   OH231085   2.632   7.595  18.864 -0.5099 -0.0380 -0.4359
 2297TIP3    H131086   2.544   7.607  18.898 -0.6652  1.2433 -1.2298
 2297TIP3    H231087   2.651   7.677  18.818  1.2319 -0.1340  0.0383
 2298TIP3   OH231088   2.166   1.335  17.699  0.4987  0.3677  0.3548
 2298TIP3    H131089   2.218   1.294  17.630  1.7137  0.4555  1.2002
 2298TIP3    H231090   2.133   1.261  17.751  0.1990  0.3355  0.1216
 2299TIP3   OH231091   4.357   6.241  18.088  0.4419 -0.0796  0.3154
 2299TIP3    H131092   4.426   6.289  18.134 -0.3552  0.9902  0.4416
 2299TIP3    H231093   4.360   6.274  17.998 -1.8689  2.3819  0.9881
 2300TIP3   OH231094   5.868   5.825  17.484  0.5405  0.4346  0.1762
 2300TIP3    H131095   5.790   5.773  17.505 -0.6486  1.6479 -1.0359
 2300TIP3    H231096   5.915   5.832  17.568 -0.0210 -1.2982  0.6781
 2301TIP3   OH231097   2.665   3.412  18.373 -0.1393 -0.2592  0.3333
 2301TIP3    H131098   2.572   3.430  18.359 -0.2199  0.4758  1.6648
 2301TIP3    H231099   2.667   3.360  18.454  0.5997 -0.4916  0.1756
 2302TIP3   OH231100   0.938   0.286  16.544 -0.2082  0.2209 -0.0533
 2302TIP3    H131101   0.986   0.364  16.517 -2.2215  1.4275 -0.3333
 2302TIP3    H231102   0.882   0.265  16.469 -1.0038 -0.4020  0.6948
 2303TIP3   OH231103   3.153   3.493  17.421 -0.2491 -0.1508 -0.0756
 2303TIP3    H131104   3.194   3.566  17.466 -2.7002  0.9132  0.5865
 2303TIP3    H231105   3.164   3.512  17.328 -1.0183  1.1985  0.0893
 2304TIP3   OH231106   6.678   3.960  16.622 -0.1632 -0.0112 -0.3181
 2304TIP3    H131107   6.748   3.898  16.605 -2.1457 -2.4356 -0.2371
 2304TIP3    H231108   6.676   3.970  16.717  0.4729  0.6126 -0.3626
 2305TIP3   OH231109   2.931   6.138  17.058  0.5366 -0.0839 -0.0015
 2305TIP3    H131110   2.991   6.079  17.103  1.0831 -0.5648 -1.3494
 2305TIP3    H231111   2.972   6.224  17.066  0.8335 -0.2292  0.0428
 2306TIP3   OH231112   1.182   0.903  18.419 -0.3635 -0.1478  0.2305
 2306TIP3    H131113   1.225   0.818  18.429  0.3941  0.3206  1.1878
 2306TIP3    H231114   1.158   0.908  18.327  2.4882 -0.0515 -0.5790
 2307TIP3   OH231115   5.485   2.404  17.303 -0.1806  0.1495 -0.1189
 2307TIP3    H131116   5.570   2.405  17.259 -1.1837 -1.3841 -2.2842
 2307TIP3    H231117   5.499   2.351  17.381  0.4455 -1.8966 -1.5370
 2308TIP3   OH231118   1.321   5.611  17.178  0.0899 -0.1566 -0.4331
 2308TIP3    H131119   1.251   5.546  17.182 -0.3289  0.3172  0.0551
 2308TIP3    H231120   1.387   5.578  17.238 -0.6509  0.4682  0.7654
 2309TIP3   OH231121   1.749   0.715  17.551  0.1477  0.2801 -1.1232
 2309TIP3    H131122   1.826   0.767  17.526 -0.3668  1.1346 -0.9474
 2309TIP3    H231123   1.770   0.627  17.520  1.7696  0.1974  0.0724
 2310TIP3   OH231124   2.345   0.696  16.514  0.1941 -0.5352  0.6004
 2310TIP3    H131125   2.334   0.791  16.515  0.6084 -0.4875  0.7189
 2310TIP3    H231126   2.265   0.662  16.553 -0.3578 -0.2738 -0.2846
 2311TIP3   OH231127   6.624   0.517  17.500  0.1458 -0.4182 -0.4612
 2311TIP3    H131128   6.718   0.529  17.517  0.2652 -1.7530 -0.0812
 2311TIP3    H231129   6.615   0.529  17.406  0.8744 -1.2983 -0.6529
 2312TIP3   OH231130   3.510   6.443  17.809 -0.0736 -0.3266 -0.1410
 2312TIP3    H131131   3.441   6.398  17.859  0.4089 -3.0150 -1.6793
 2312TIP3    H231132   3.520   6.390  17.730  2.1680  1.3353 -1.0727
 2313TIP3   OH231133   2.828   5.885  16.708 -0.5729  0.2545  0.1531
 2313TIP3    H131134   2.779   5.845  16.636 -0.2307 -0.4540  0.3010
 2313TIP3    H231135   2.827   5.818  16.777  0.0921  0.4728  0.3793
 2314TIP3   OH231136   5.093   5.091  17.409  0.1206  0.1737  0.5709
 2314TIP3    H131137   5.071   5.023  17.473  0.1631 -1.5685 -1.1701
 2314TIP3    H231138   5.008   5.127  17.383 -0.0791 -0.6464  0.0385
 2315TIP3   OH231139   0.884   0.786  17.522  0.2378  0.2518  0.2285
 2315TIP3    H131140   0.915   0.873  17.498  0.2028 -0.0362 -0.9630
 2315TIP3    H231141   0.830   0.758  17.447  0.1539 -0.7429  0.6369
 2316TIP3   OH231142   1.146   5.903  18.904  0.1345  0.2431 -0.1130
 2316TIP3    H131143   1.213   5.966  18.877  0.9595  0.2069  1.6729
 2316TIP3    H231144   1.090   5.952  18.964 -0.2903 -0.2491 -0.0985
 2317TIP3   OH231145   4.772   4.556  16.151  0.7537  0.3323  0.5344
 2317TIP3    H131146   4.679   4.570  16.166  0.6280  0.2423 -0.1434
 2317TIP3    H231147   4.788   4.466  16.180  0.1603 -0.4430 -1.3900
 2318TIP3   OH231148   0.357   2.900  18.075  0.5243 -0.2078  0.0316
 2318TIP3    H131149   0.328   2.809  18.070 -2.2098  0.5514  0.2522
 2318TIP3    H231150   0.401   2.915  17.991 -2.3486 -0.7715 -1.7178
 2319TIP3   OH231151   4.258   6.439  17.485  0.1637  0.4249  0.4151
 2319TIP3    H131152   4.266   6.505  17.553  0.5709  1.4069 -0.5646
 2319TIP3    H231153   4.216   6.365  17.528 -0.1228  1.2452  1.5744
 2320TIP3   OH231154   6.420   7.530  16.138  0.1843  0.1862 -0.1308
 2320TIP3    H131155   6.355   7.459  16.135 -0.3962  0.7375 -1.3389
 2320TIP3    H231156   6.496   7.491  16.180  0.0330 -1.2999 -1.1511
 2321TIP3   OH231157   2.991   4.521  18.338  0.0823 -0.1863 -0.1268
 2321TIP3    H131158   3.041   4.440  18.346  0.6518  0.2367  0.7325
 2321TIP3    H231159   3.002   4.565  18.422 -0.7140  0.5097 -0.3661
 2322TIP3   OH231160   3.289   5.931  17.904  0.2308 -0.2888 -0.1314
 2322TIP3    H131161   3.278   5.837  17.919  0.4323 -0.1793  0.7256
 2322TIP3    H231162   3.229   5.950  17.831 -2.2018 -0.4884  1.6933
 2323TIP3   OH231163   5.871   2.326  16.331  0.1539  0.2433  0.0003
 2323TIP3    H131164   5.886   2.279  16.249 -0.3910  0.3619 -0.1701
 2323TIP3    H231165   5.959   2.342  16.366  0.3498 -0.6980 -0.0524
 2324TIP3   OH231166   1.616   2.800  18.308  0.0216  0.0200  0.1790
 2324TIP3    H131167   1.578   2.720  18.345  1.1709 -0.9758 -0.6824
 2324TIP3    H231168   1.654   2.771  18.224 -0.6050  1.7287 -0.7483
 2325TIP3   OH231169   4.508   4.404  17.342  0.5999  0.2531 -0.2010
 2325TIP3    H131170   4.560   4.475  17.380  0.9598 -0.6456  1.0411
 2325TIP3    H231171   4.434   4.393  17.402  0.6126 -0.4954 -0.3059
 2326TIP3   OH231172   0.381   6.716  18.136 -0.3402  0.7660  0.1373
 2326TIP3    H131173   0.374   6.748  18.046 -1.7381  0.9256  0.2796
 2326TIP3    H231174   0.449   6.649  18.132 -1.0627  0.0746 -1.2392
 2327TIP3   OH231175   0.002   5.127  19.327 -0.0440 -0.5514 -0.3387
 2327TIP3    H131176  -0.075   5.181  19.308  0.2525 -0.6737 -2.0402
 2327TIP3    H231177   0.003   5.120  19.422 -0.3466  2.0769 -0.0553
 2328TIP3   OH231178   2.749   2.957  17.366 -0.5172  0.3021 -0.0427
 2328TIP3    H131179   2.830   2.953  17.316  0.2138  1.8283  0.9432
 2328TIP3    H231180   2.737   3.051  17.385 -0.9777 -0.1427  2.2267
 2329TIP3   OH231181   5.908   7.288  18.328 -0.2022 -0.2102 -0.0218
 2329TIP3    H131182   5.932   7.208  18.376  1.8755  1.0059  1.1293
 2329TIP3    H231183   5.858   7.257  18.253 -0.5311 -2.4889  1.0628
 2330TIP3   OH231184   4.784   1.113  18.215  0.2219  0.3273  0.5334
 2330TIP3    H131185   4.778   1.091  18.308 -0.6765  1.4191  0.7601
 2330TIP3    H231186   4.773   1.208  18.213  0.4695  0.3364 -0.6746
 2331TIP3   OH231187   5.197   1.478  18.263 -0.1253 -0.5392 -0.0043
 2331TIP3    H131188   5.274   1.438  18.304  1.4718  0.3493 -1.9415
 2331TIP3    H231189   5.156   1.406  18.214  0.3160 -0.7070 -0.1310
 2332TIP3   OH231190   2.723   4.884  18.076 -0.2938 -0.1831  0.0436
 2332TIP3    H131191   2.791   4.930  18.026 -1.2323  1.5749  0.3077
 2332TIP3    H231192   2.675   4.833  18.010 -0.2793  0.5496 -0.5459
 2333TIP3   OH231193   6.275   2.966  18.822  0.2469  0.3872 -0.4568
 2333TIP3    H131194   6.252   2.883  18.864 -0.4164  0.5093 -0.5817
 2333TIP3    H231195   6.209   2.979  18.755  0.1392  1.1997 -0.2025
 2334TIP3   OH231196   0.696   3.085  16.125  0.1708 -0.2891  0.6473
 2334TIP3    H131197   0.722   3.099  16.216  1.1723  2.3503  0.0392
 2334TIP3    H231198   0.760   3.135  16.073 -0.4662 -1.5593 -1.5208
 2335TIP3   OH231199   4.549   0.184  18.534 -0.1841 -0.2960  0.2011
 2335TIP3    H131200   4.525   0.092  18.517  0.8391 -0.6244  0.4957
 2335TIP3    H231201   4.498   0.208  18.611  0.5004 -1.0309  0.9015
 2336TIP3   OH231202   4.956   0.631  17.750 -0.2674 -0.0879  0.1569
 2336TIP3    H131203   4.918   0.602  17.832 -0.6504 -0.5376 -0.1811
 2336TIP3    H231204   4.983   0.722  17.768 -0.6053 -0.0859  0.6867
 2337TIP3   OH231205   0.767   4.267  18.401  0.3886  0.3293  0.0933
 2337TIP3    H131206   0.747   4.327  18.473 -0.0399 -0.6066  0.7698
 2337TIP3    H231207   0.693   4.207  18.398  1.0490 -0.4968 -0.2230
 2338TIP3   OH231208   0.580   0.025  18.221  0.3766 -0.0670 -0.4892
 2338TIP3    H131209   0.561   0.030  18.315 -0.5462  2.9176 -0.7271
 2338TIP3    H231210   0.669   0.057  18.212  0.6968 -0.9724 -0.5876
 2339TIP3   OH231211   7.390   1.600  17.107 -0.5515 -0.2087 -0.5221
 2339TIP3    H131212   7.335   1.653  17.049 -1.2369  0.3718  0.6132
 2339TIP3    H231213   7.328   1.555  17.164  0.1173  0.4268  0.7629
 2340TIP3   OH231214   3.235   3.128  18.464  0.5657 -0.0251  0.2649
 2340TIP3    H131215   3.215   3.197  18.402  0.1418  0.9352  1.4184
 2340TIP3    H231216   3.310   3.160  18.513  0.2583 -0.2929  0.9322
 2341TIP3   OH231217   2.693   0.040  17.209 -0.1917 -0.8486 -0.2722
 2341TIP3    H131218   2.679   0.037  17.114 -0.9322 -1.1737 -0.1587
 2341TIP3    H231219   2.771  -0.014  17.223 -0.4564 -1.3356 -0.6273
 2342TIP3   OH231220   2.701   1.523  16.038  0.1883 -0.2119 -0.1251
 2342TIP3    H131221   2.675   1.467  15.965  2.6638 -1.9690  0.2144
 2342TIP3    H231222   2.643   1.497  16.110 -0.4875 -0.3887 -0.7260
 2343TIP3   OH231223   0.513   6.088  17.791  1.0823  0.4222  0.0876
 2343TIP3    H131224   0.461   6.093  17.710 -0.4897 -0.5464  0.9829
 2343TIP3    H231225   0.532   6.179  17.812  0.4995  0.7577 -0.7546
 2344TIP3   OH231226   2.525   2.762  17.407  0.0030 -0.1241  0.2160
 2344TIP3    H131227   2.598   2.821  17.388  0.0260  0.7359  2.6262
 2344TIP3    H231228   2.559   2.675  17.387  1.1751  0.3875 -0.1041
 2345TIP3   OH231229   4.567   6.461  16.674  0.1976  0.4501 -0.0433
 2345TIP3    H131230   4.606   6.399  16.735  0.6672 -0.2937 -1.0674
 2345TIP3    H231231   4.485   6.419  16.647  1.1776 -0.4357 -1.8047
 2346TIP3   OH231232   2.464   3.167  17.618  0.4709  0.0024 -0.3951
 2346TIP3    H131233   2.461   3.073  17.635 -2.9742 -0.1956 -1.3216
 2346TIP3    H231234   2.424   3.207  17.695 -0.4984  0.4424 -1.1039
 2347TIP3   OH231235   3.117   0.656  16.413 -0.6114  0.1212  0.2088
 2347TIP3    H131236   3.025   0.651  16.389 -1.0539 -0.2020  1.8377
 2347TIP3    H231237   3.117   0.701  16.498  0.4279 -2.4694  1.6850
 2348TIP3   OH231238   0.348   1.892  17.497 -0.1822  0.3624  0.1229
 2348TIP3    H131239   0.347   1.940  17.414 -0.1989 -1.2662 -0.8712
 2348TIP3    H231240   0.308   1.807  17.476 -1.4155  0.3804  2.1122
 2349TIP3   OH231241   3.522   5.569  17.778  0.0458  0.2693  0.0982
 2349TIP3    H131242   3.507   5.648  17.726  0.8666  0.2208 -0.2129
 2349TIP3    H231243   3.587   5.594  17.843  1.6806 -0.6040 -1.1288
 2350TIP3   OH231244   2.813   6.445  15.910  0.0026  0.2752 -0.0008
 2350TIP3    H131245   2.874   6.498  15.962  0.2883  0.6297 -0.6925
 2350TIP3    H231246   2.761   6.508  15.862  0.2933 -0.0661 -0.7738
 2351TIP3   OH231247   6.875   5.018  17.591  0.5018  0.0400 -0.0914
 2351TIP3    H131248   6.928   4.979  17.661 -0.4641  1.2472  1.3702
 2351TIP3    H231249   6.787   5.021  17.627 -0.2379 -0.2291 -1.7787
 2352TIP3   OH231250   1.220   6.915  17.550  0.6688  0.5853 -0.5997
 2352TIP3    H131251   1.290   6.962  17.506  0.6640  1.3326  0.1684
 2352TIP3    H231252   1.180   6.861  17.482  1.0263  1.2808 -1.3667
 2353TIP3   OH231253   2.038   2.281  17.130  0.7062  0.3898  0.3031
 2353TIP3    H131254   1.948   2.307  17.146  0.5601  0.4866 -0.6037
 2353TIP3    H231255   2.090   2.358  17.150  0.4178  0.9067 -0.8360
 2354TIP3   OH231256   2.816   1.975  18.043 -0.4220 -0.5139 -0.5006
 2354TIP3    H131257   2.821   2.015  17.956 -0.0454 -1.0555 -0.7248
 2354TIP3    H231258   2.899   1.997  18.084 -0.2882 -0.9077 -0.5571
 2355TIP3   OH231259   7.462   5.950  17.262  0.0434 -0.2585  0.0178
 2355TIP3    H131260   7.467   5.855  17.259 -0.1572 -0.2641 -0.1435
 2355TIP3    H231261   7.370   5.969  17.280  0.2594 -0.1167  1.0337
 2356TIP3   OH231262   2.565   2.915  17.897  0.3293 -0.1039  0.0740
 2356TIP3    H131263   2.522   2.915  17.811 -0.4699 -1.0316  0.4442
 2356TIP3    H231264   2.493   2.901  17.959  0.3762  3.8114  1.2529
 2357TIP3   OH231265   3.833   0.002  17.362  0.2874 -0.3383 -0.1000
 2357TIP3    H131266   3.739   0.012  17.345 -0.0614 -0.5817  1.5378
 2357TIP3    H231267   3.838  -0.040  17.447  1.8994 -1.2017 -0.5681
 2358TIP3   OH231268   3.840   5.816  18.301 -0.1759 -0.5733 -0.5506
 2358TIP3    H131269   3.745   5.811  18.311 -0.1580  0.1757  0.0824
 2358TIP3    H231270   3.872   5.732  18.334 -0.4442  0.1919  1.8353
 2359TIP3   OH231271   7.245   2.516  17.433  0.6134  0.0755  0.2897
 2359TIP3    H131272   7.297   2.522  17.513  1.5733 -0.3625 -0.2700
 2359TIP3    H231273   7.194   2.436  17.444  1.6888 -0.6906 -0.0373
 2360TIP3   OH231274   0.706   7.198  17.835  0.1338  0.4743  0.2656
 2360TIP3    H131275   0.793   7.170  17.863  0.5459  1.7581  0.3332
 2360TIP3    H231276   0.645   7.154  17.895  0.9063  1.9980  2.2414
 2361TIP3   OH231277   0.748   0.438  16.650  0.6338  0.1996  0.2125
 2361TIP3    H131278   0.770   0.366  16.591 -0.5974 -0.0734  0.0570
 2361TIP3    H231279   0.819   0.439  16.715  0.1142 -1.8625  0.8558
 2362TIP3   OH231280   0.736   3.405  17.460 -0.7219  0.7849 -0.3133
 2362TIP3    H131281   0.700   3.318  17.477 -0.6852  0.6752 -0.7946
 2362TIP3    H231282   0.786   3.426  17.539 -4.7786  2.5293  2.1293
 2363TIP3   OH231283   0.934   6.724  18.838 -0.0656  0.1900 -0.2263
 2363TIP3    H131284   0.966   6.812  18.816 -0.2328 -0.0696 -1.6196
 2363TIP3    H231285   0.882   6.736  18.917  1.3844  1.0424  0.6414
 2364TIP3   OH231286   7.601   2.155  18.039  0.0672  0.3793 -0.4963
 2364TIP3    H131287   7.635   2.099  18.108  1.3839  2.1229  0.3334
 2364TIP3    H231288   7.589   2.240  18.080  1.3378  1.5994 -2.4758
 2365TIP3   OH231289   5.026   3.028  18.920 -0.4277 -0.6643  0.4904
 2365TIP3    H131290   5.032   2.941  18.957  1.5691 -1.0301 -0.5462
 2365TIP3    H231291   4.940   3.060  18.947 -0.2327 -1.9780  2.9234
 2366TIP3   OH231292   6.734   0.108  17.354  0.3026  0.2579 -0.1158
 2366TIP3    H131293   6.733   0.113  17.450 -1.3001 -0.8655 -0.0375
 2366TIP3    H231294   6.669   0.041  17.333 -1.7700  2.7017 -2.1117
 2367TIP3   OH231295   2.440   7.112  18.704 -0.5378 -0.2150  0.1229
 2367TIP3    H131296   2.484   7.197  18.698 -1.5900  0.4044  0.7582
 2367TIP3    H231297   2.499   7.051  18.661  0.1381  0.8800 -0.5482
 2368TIP3   OH231298   1.339   2.617  17.118  0.0423  0.6616  0.0150
 2368TIP3    H131299   1.253   2.575  17.128 -0.1168  1.1531  0.7538
 2368TIP3    H231300   1.401   2.546  17.135 -0.2248  0.7881  1.6443
 2369TIP3   OH231301   0.272   3.154  18.103  0.4109  0.2585  0.0310
 2369TIP3    H131302   0.310   3.067  18.095 -0.7772 -0.2560 -0.2402
 2369TIP3    H231303   0.235   3.171  18.017 -0.8605  0.3011  0.5680
 2370TIP3   OH231304   1.445   5.487  18.700  0.5450 -0.5296 -0.9187
 2370TIP3    H131305   1.353   5.512  18.704  0.8034  0.6105 -1.6022
 2370TIP3    H231306   1.485   5.530  18.776  0.5399 -0.9097 -0.6996
 2371TIP3   OH231307   4.878   4.402  18.200 -0.4186 -0.0822  0.0498
 2371TIP3    H131308   4.962   4.447  18.197  0.3670 -1.4301  1.0134
 2371TIP3    H231309   4.854   4.401  18.292 -0.6079 -1.2588  0.0011
 2372TIP3   OH231310   5.094   3.681  17.745 -0.1478  0.1979 -0.4138
 2372TIP3    H131311   5.009   3.643  17.769 -0.7157  1.1930 -0.7672
 2372TIP3    H231312   5.132   3.710  17.828 -1.0455  1.4957 -0.4185
 2373TIP3   OH231313   2.529   0.750  18.150  0.1717 -0.0112  0.3393
 2373TIP3    H131314   2.481   0.825  18.115  1.7626  0.5881 -0.6914
 2373TIP3    H231315   2.562   0.780  18.235  1.1568  0.6512 -0.2529
 2374TIP3   OH231316   2.430   0.303  18.077  0.2626  0.0957  0.2933
 2374TIP3    H131317   2.445   0.377  18.136 -0.9583  1.3746 -0.8890
 2374TIP3    H231318   2.387   0.237  18.130 -0.4963  1.0790  0.9402
 2375TIP3   OH231319   6.328   0.729  16.653  1.1616  0.3313  0.2776
 2375TIP3    H131320   6.307   0.726  16.746  1.2423 -2.0821  0.3018
 2375TIP3    H231321   6.265   0.669  16.612  0.4822  2.0765 -1.4120
 2376TIP3   OH231322   6.846   6.279  18.640 -0.0758  0.1491  0.0861
 2376TIP3    H131323   6.875   6.282  18.549 -2.3319  1.0715 -0.6821
 2376TIP3    H231324   6.791   6.201  18.645  1.2410 -0.7590  1.1105
 2377TIP3   OH231325   2.577   5.430  18.350 -0.4970  0.0848 -0.1766
 2377TIP3    H131326   2.602   5.389  18.433  1.6784  0.3448 -0.6381
 2377TIP3    H231327   2.566   5.356  18.290 -0.4405 -0.0197 -0.0607
 2378TIP3   OH231328   2.926   5.430  18.877  0.0054  0.2629 -0.2286
 2378TIP3    H131329   2.854   5.492  18.889  0.7771  0.7975  2.0631
 2378TIP3    H231330   2.899   5.351  18.924  0.2176 -0.1598 -0.8012
 2379TIP3   OH231331   2.785   2.467  18.436  0.2777  0.1765 -0.5199
 2379TIP3    H131332   2.781   2.540  18.497  0.8668 -0.0523 -0.1954
 2379TIP3    H231333   2.766   2.505  18.351  0.4047  0.6730 -0.3283
 2380TIP3   OH231334   0.454   4.799  17.664 -0.0163 -0.1901 -0.3307
 2380TIP3    H131335   0.417   4.871  17.613  1.0543 -1.1441 -2.5965
 2380TIP3    H231336   0.514   4.755  17.604 -0.6665 -3.0263  0.9320
 2381TIP3   OH231337   0.287   7.315  17.031  0.1081  0.0820 -0.2823
 2381TIP3    H131338   0.264   7.275  17.115  0.1286  0.7407  0.0390
 2381TIP3    H231339   0.373   7.278  17.010  1.0650  1.4658  1.0102
 2382TIP3   OH231340   5.916   4.456  17.919 -0.4868  0.1314  0.3153
 2382TIP3    H131341   5.948   4.365  17.918 -0.6057  0.0964 -0.4815
 2382TIP3    H231342   5.832   4.452  17.873 -0.7386  0.5638  0.7303
 2383TIP3   OH231343   1.068   4.768  17.293  0.4389  0.5769 -0.4651
 2383TIP3    H131344   1.023   4.730  17.217  0.9742  0.8152 -0.9090
 2383TIP3    H231345   1.036   4.717  17.367 -1.0265  1.1399 -0.6806
 2384TIP3   OH231346   1.802   3.206  17.915  0.2184  0.3398  0.0678
 2384TIP3    H131347   1.843   3.269  17.855  0.8451 -0.4840 -0.3857
 2384TIP3    H231348   1.809   3.122  17.870 -1.8320  0.1369  0.0549
 2385TIP3   OH231349   1.961   5.802  16.997 -0.1211  0.0675 -0.1160
 2385TIP3    H131350   2.034   5.842  17.044 -0.9385  1.6383 -0.0812
 2385TIP3    H231351   1.993   5.792  16.908  0.7513 -1.0270  0.2975
 2386TIP3   OH231352   0.325   7.335  18.065 -0.4245 -0.1649 -0.0831
 2386TIP3    H131353   0.386   7.297  18.129  0.1894  0.3707 -0.3401
 2386TIP3    H231354   0.381   7.385  18.005 -1.1518  0.6691 -0.0879
 2387TIP3   OH231355   2.019   1.008  18.817  0.4996 -0.0590  0.4303
 2387TIP3    H131356   2.001   1.011  18.911  2.6135  2.3500  0.8731
 2387TIP3    H231357   2.108   0.976  18.811  0.2744 -0.4922 -0.8009
 2388TIP3   OH231358   5.029   4.558  17.308 -0.1789  0.1799  0.7986
 2388TIP3    H131359   5.020   4.629  17.244  1.1503 -0.4043 -0.0877
 2388TIP3    H231360   4.974   4.488  17.272  0.1017  0.0624  0.5873
 2389TIP3   OH231361   3.179   4.849  18.862 -0.6746  0.5565  0.3916
 2389TIP3    H131362   3.200   4.919  18.800  0.2552 -0.3651 -0.3820
 2389TIP3    H231363   3.259   4.837  18.913 -1.3837  1.2089  1.7133
 2390TIP3   OH231364   3.855   7.309  17.804  0.4939 -0.2599  0.6585
 2390TIP3    H131365   3.928   7.343  17.856  1.3208  0.8667 -1.1353
 2390TIP3    H231366   3.896   7.246  17.745  0.0634  0.4667 -0.4433
 2391TIP3   OH231367   2.452   6.646  17.405  0.3610  0.1049 -0.0629
 2391TIP3    H131368   2.397   6.724  17.414  0.3133  0.4629 -2.6232
 2391TIP3    H231369   2.505   6.644  17.485 -0.5334  2.0379  0.6313
 2392TIP3   OH231370   0.578   6.530  18.185  0.2769  0.0747 -0.2197
 2392TIP3    H131371   0.548   6.548  18.274  0.0056 -0.1215 -0.2717
 2392TIP3    H231372   0.673   6.518  18.193  0.3089  0.4593 -0.0199
 2393TIP3   OH231373   7.639   5.584  18.828 -0.1099 -0.2724  0.4907
 2393TIP3    H131374   7.552   5.546  18.812  0.1962 -0.7151 -0.1897
 2393TIP3    H231375   7.688   5.564  18.748  0.7223 -0.3191  1.0097
 2394TIP3   OH231376   2.909   3.209  18.418 -0.0347 -0.5204 -0.0991
 2394TIP3    H131377   2.945   3.293  18.447  0.2744 -0.4677 -0.6065
 2394TIP3    H231378   2.973   3.177  18.354 -0.3839 -0.9178 -0.2554
 2395TIP3   OH231379   5.867   4.701  19.174 -0.0385  0.0344  0.1903
 2395TIP3    H131380   5.783   4.722  19.133 -0.6485 -0.3390  1.1944
 2395TIP3    H231381   5.870   4.756  19.252 -0.4899 -1.6447  1.4688
 2396TIP3   OH231382   1.886   4.741  18.409  0.0187 -0.4012  0.2554
 2396TIP3    H131383   1.883   4.755  18.314  1.0525 -1.9919 -0.0476
 2396TIP3    H231384   1.837   4.660  18.423  1.4637 -1.2033  0.8288
 2397TIP3   OH231385   3.762   2.015  16.999  0.0286 -0.0941 -0.4762
 2397TIP3    H131386   3.758   1.946  16.933  1.0804 -0.9759  0.3644
 2397TIP3    H231387   3.840   1.996  17.051  1.4322  2.7249 -1.3046
 2398TIP3   OH231388   0.123   2.352  17.981  0.3737  0.3861 -0.0526
 2398TIP3    H131389   0.058   2.334  17.914 -0.4786 -0.2004  0.9072
 2398TIP3    H231390   0.121   2.448  17.991  1.0329  0.5559 -1.3426
 2399TIP3   OH231391   6.706   6.652  16.853 -0.0126 -0.2728 -0.4191
 2399TIP3    H131392   6.722   6.734  16.900  0.9017 -0.7457  0.1186
 2399TIP3    H231393   6.690   6.679  16.763 -2.5552  0.7300  0.2384
 2400TIP3   OH231394   1.067   2.126  17.999 -0.2054 -0.2288 -0.0101
 2400TIP3    H131395   1.124   2.057  17.965  0.9797  1.0069 -0.6375
 2400TIP3    H231396   1.022   2.086  18.072 -0.0529 -1.8689 -0.7711
 2401TIP3   OH231397   3.925   4.515  17.929  0.1582 -0.6420  0.2678
 2401TIP3    H131398   3.877   4.449  17.879  1.1845  0.9732 -3.1643
 2401TIP3    H231399   4.011   4.476  17.944 -0.6602 -1.7796  2.4267
 2402TIP3   OH231400   7.118   4.083  18.036  0.0557 -0.0108  0.0823
 2402TIP3    H131401   7.138   4.169  18.074  0.5504 -0.1083  0.0452
 2402TIP3    H231402   7.196   4.061  17.985 -0.1648 -0.3791 -0.0996
 2403TIP3   OH231403   4.817   0.600  16.805 -0.1333  0.0260 -0.1927
 2403TIP3    H131404   4.848   0.625  16.892  2.0921 -2.8798  0.0385
 2403TIP3    H231405   4.796   0.507  16.813  0.4303 -0.4055 -2.7932
 2404TIP3   OH231406   0.991   5.394  18.371 -0.2968  0.3549  0.2515
 2404TIP3    H131407   0.995   5.463  18.305  0.8093  0.4846  0.4286
 2404TIP3    H231408   1.005   5.440  18.454  0.2252 -0.0467  0.3912
 2405TIP3   OH231409   0.781   5.891  17.262 -0.5726 -0.1620 -0.1737
 2405TIP3    H131410   0.825   5.815  17.300 -0.7358 -0.9094 -1.4290
 2405TIP3    H231411   0.789   5.959  17.329  0.5609 -0.9394  0.5188
 2406TIP3   OH231412   5.751   6.313  17.110  0.2905  0.4576 -0.1669
 2406TIP3    H131413   5.749   6.359  17.026 -1.4232  1.0072  0.1422
 2406TIP3    H231414   5.835   6.267  17.109  0.6239  1.0005 -1.8735
 2407TIP3   OH231415   0.231   4.859  16.444  0.4949  0.0208  0.2396
 2407TIP3    H131416   0.307   4.892  16.491 -0.5664  1.5582  0.9402
 2407TIP3    H231417   0.266   4.790  16.387  2.5823  1.3504 -0.1956
 2408TIP3   OH231418   6.741   3.280  17.851  0.1922 -0.0575  0.0202
 2408TIP3    H131419   6.722   3.259  17.759  2.0496 -0.5892 -0.2921
 2408TIP3    H231420   6.700   3.366  17.865 -2.0272 -0.9595 -0.6099
 2409TIP3   OH231421   2.365   6.219  17.744 -0.0919 -0.0253 -0.0981
 2409TIP3    H131422   2.454   6.200  17.772  0.2998  2.5719  0.7251
 2409TIP3    H231423   2.372   6.235  17.650  1.2226  3.9765  0.4881
 2410TIP3   OH231424   0.462   7.262  18.846  0.5777  0.6812 -0.0308
 2410TIP3    H131425   0.453   7.233  18.936 -1.7982  0.7905 -0.1747
 2410TIP3    H231426   0.526   7.202  18.808 -1.0024 -1.6892  0.8074
 2411TIP3   OH231427   4.554   3.206  17.358  0.3452 -0.1020  0.4286
 2411TIP3    H131428   4.623   3.271  17.345 -0.3408  0.4444 -0.6154
 2411TIP3    H231429   4.547   3.160  17.274 -0.1182 -0.5796  0.7201
 2412TIP3   OH231430   2.763   3.597  17.121 -0.0453  0.1015  0.4685
 2412TIP3    H131431   2.676   3.587  17.159 -0.7029  1.1031 -0.6925
 2412TIP3    H231432   2.792   3.684  17.148  0.2526  0.0825  0.2202
 2413TIP3   OH231433   0.274   4.727  17.865  0.7101 -0.3723 -0.1694
 2413TIP3    H131434   0.196   4.694  17.820 -0.2610  0.7859  0.5812
 2413TIP3    H231435   0.338   4.739  17.796 -0.1733 -0.2449 -0.9922
 2414TIP3   OH231436   6.034   6.872  17.995  0.7285 -0.5555  0.3900
 2414TIP3    H131437   6.011   6.913  18.078  1.1264  0.0402  0.2029
 2414TIP3    H231438   6.089   6.935  17.950 -0.7431 -0.1865 -1.0185
 2415TIP3   OH231439   6.874   4.347  19.027  0.0674 -0.2698 -0.1525
 2415TIP3    H131440   6.829   4.355  18.943  1.4269 -2.0589 -1.1305
 2415TIP3    H231441   6.876   4.435  19.062 -2.3228  0.2162 -1.0145
 2416TIP3   OH231442   3.990   0.917  17.876 -0.0453 -0.4234 -0.1519
 2416TIP3    H131443   3.939   0.961  17.808 -0.3696  0.5540  0.6971
 2416TIP3    H231444   4.081   0.938  17.855  0.1278 -2.5826 -1.9608
 2417TIP3   OH231445   2.076   4.481  17.290 -0.3387 -0.3499  0.2556
 2417TIP3    H131446   2.145   4.446  17.234 -1.6011 -0.7891 -1.1107
 2417TIP3    H231447   2.025   4.538  17.232 -2.6175 -2.0393  0.4495
 2418TIP3   OH231448   3.445   0.306  17.250 -0.4428 -0.4810 -0.2750
 2418TIP3    H131449   3.520   0.365  17.261  0.6294 -2.0421  1.2306
 2418TIP3    H231450   3.377   0.343  17.306  0.3576 -0.8553  0.9805
 2419TIP3   OH231451   1.100   2.043  17.499  0.1522 -0.0975 -0.2033
 2419TIP3    H131452   1.094   1.988  17.420 -0.2898  1.3784 -1.2463
 2419TIP3    H231453   1.026   2.103  17.492  1.1711  1.2948  0.3621
 2420TIP3   OH231454   1.763   0.377  17.017  0.2883  0.4094 -0.4427
 2420TIP3    H131455   1.834   0.406  16.959 -0.9719  2.7430 -0.9323
 2420TIP3    H231456   1.702   0.451  17.019 -1.3964 -0.9372  1.1745
 2421TIP3   OH231457   3.625   5.269  18.475 -0.5012  0.1242 -0.3608
 2421TIP3    H131458   3.661   5.181  18.484  0.4017  0.5545  0.5641
 2421TIP3    H231459   3.617   5.283  18.381  0.3135 -0.5817 -0.5459
 2422TIP3   OH231460   3.517   7.118  17.031 -0.2935 -0.5887 -0.2419
 2422TIP3    H131461   3.609   7.109  17.008 -0.5534 -2.7983 -0.7158
 2422TIP3    H231462   3.471   7.099  16.949 -1.1594 -1.3577  0.3991
 2423TIP3   OH231463   6.057   2.909  17.317 -0.0477 -0.0762  0.1711
 2423TIP3    H131464   6.018   2.978  17.370 -0.2871 -0.9780  1.1846
 2423TIP3    H231465   6.125   2.954  17.267 -0.9214  1.0950 -0.0090
 2424TIP3   OH231466   2.488   0.845  17.456 -0.5051 -0.0034 -0.1747
 2424TIP3    H131467   2.428   0.771  17.459  0.3016 -0.7080  3.5324
 2424TIP3    H231468   2.572   0.806  17.433 -0.5735  0.2797 -0.9570
 2425TIP3   OH231469   3.174   2.741  16.854  0.0391 -0.7677 -0.0598
 2425TIP3    H131470   3.113   2.676  16.819 -0.2612 -1.1790  1.1652
 2425TIP3    H231471   3.120   2.796  16.911  0.7302 -0.8761  0.7161
 2426TIP3   OH231472   4.854   7.062  16.144 -0.0739  0.5684  0.6315
 2426TIP3    H131473   4.803   7.079  16.064 -0.1134  0.2925  0.5959
 2426TIP3    H231474   4.789   7.032  16.207  0.1586 -0.5995  0.3371
 2427TIP3   OH231475   0.380   5.692  19.075  0.4319 -0.1540  0.3158
 2427TIP3    H131476   0.346   5.689  18.986  0.2972 -0.8790  0.3833
 2427TIP3    H231477   0.373   5.784  19.101  2.1759  0.4372 -1.0684
 2428TIP3   OH231478   3.898   7.292  17.407 -0.4487  0.2782  0.0721
 2428TIP3    H131479   3.916   7.351  17.334  0.2167  0.1390  0.1216
 2428TIP3    H231480   3.981   7.285  17.454 -0.0847 -1.8908 -0.7807
 2429TIP3   OH231481   2.879   3.599  18.321  0.2919  0.4481 -0.1281
 2429TIP3    H131482   2.812   3.534  18.343  1.7193 -1.2451 -0.5877
 2429TIP3    H231483   2.840   3.683  18.347 -1.0667 -0.7013  1.8064
 2430TIP3   OH231484   1.316   6.339  16.725  0.2325  0.0961  0.6158
 2430TIP3    H131485   1.370   6.291  16.663 -0.0387 -1.0975  1.2709
 2430TIP3    H231486   1.313   6.428  16.691 -0.0590 -0.5564 -1.1686
 2431TIP3   OH231487   0.169   3.954  18.567 -0.1388  0.1399  1.1412
 2431TIP3    H131488   0.101   4.021  18.559  0.0632  0.2609  0.3181
 2431TIP3    H231489   0.181   3.921  18.478 -0.9897 -1.7837  1.7051
 2432TIP3   OH231490   2.189   3.794  16.911 -0.3850  0.3111 -0.1448
 2432TIP3    H131491   2.233   3.848  16.846 -0.6875 -0.6572 -1.1792
 2432TIP3    H231492   2.115   3.847  16.941 -1.9249 -0.2424 -2.6601
 2433TIP3   OH231493   6.966   4.381  17.400  0.4962 -0.0377 -0.2034
 2433TIP3    H131494   6.985   4.308  17.341  0.9170 -0.2598  0.1958
 2433TIP3    H231495   6.998   4.458  17.353  0.3209 -0.1453 -0.5019
 2434TIP3   OH231496   0.555   6.612  16.631  0.0255 -0.0287  0.1785
 2434TIP3    H131497   0.610   6.534  16.622  3.4498  1.8583  2.4320
 2434TIP3    H231498   0.511   6.620  16.546  1.0340 -3.2657 -0.8025
 2435TIP3   OH231499   1.506   5.690  18.887 -0.3104  0.6478  0.7298
 2435TIP3    H131500   1.565   5.765  18.888 -1.4917  1.6394 -0.1012
 2435TIP3    H231501   1.419   5.728  18.897 -1.0218 -0.5031 -0.7362
 2436TIP3   OH231502   5.580   4.764  19.085 -0.2585  0.2573 -0.1519
 2436TIP3    H131503   5.502   4.760  19.140 -1.4255  1.9521 -1.6233
 2436TIP3    H231504   5.566   4.697  19.018  0.8150 -1.2724  1.0802
 2437TIP3   OH231505   5.358   6.091  18.694 -0.1702  0.1609 -0.0556
 2437TIP3    H131506   5.435   6.140  18.723 -0.0523 -0.3764  0.5392
 2437TIP3    H231507   5.306   6.156  18.646  0.7820  0.4602 -0.7191
 2438TIP3   OH231508   5.118   3.272  18.805  0.1531  0.0630 -0.0605
 2438TIP3    H131509   5.093   3.209  18.873  1.1739  0.8816  1.1357
 2438TIP3    H231510   5.079   3.355  18.834  1.0767  0.5420 -0.1498
 2439TIP3   OH231511   5.028   2.930  18.645  0.0955  0.5721  0.1366
 2439TIP3    H131512   5.111   2.883  18.657  0.3799  1.3322  1.2935
 2439TIP3    H231513   5.004   2.959  18.733 -0.9823  1.0680 -0.3073
 2440TIP3   OH231514   5.294   1.746  18.014 -0.5673 -0.3238  0.0075
 2440TIP3    H131515   5.332   1.677  18.068 -0.5403  0.9817  1.7524
 2440TIP3    H231516   5.284   1.706  17.927  1.5320 -1.8039  0.3570
 2441TIP3   OH231517   5.316   3.112  17.223 -0.6793 -0.3928 -0.3570
 2441TIP3    H131518   5.231   3.101  17.181 -1.1785  0.0285  0.5305
 2441TIP3    H231519   5.355   3.024  17.220 -1.2153 -0.6266 -0.6117
 2442TIP3   OH231520   5.732   6.448  17.368 -0.1674  0.0261 -0.6247
 2442TIP3    H131521   5.767   6.410  17.448  2.2243 -0.9738 -2.0468
 2442TIP3    H231522   5.755   6.386  17.299  1.1926  2.5412 -2.6333
 2443TIP3   OH231523   1.605   4.596  17.788 -0.0199  0.2320 -0.0167
 2443TIP3    H131524   1.518   4.634  17.797  0.0664  0.9433 -1.8203
 2443TIP3    H231525   1.665   4.669  17.805  0.2086  0.0061  0.1507
 2444TIP3   OH231526   2.417   3.060  17.005 -0.1069  0.1491  0.3860
 2444TIP3    H131527   2.433   3.108  16.923  0.4771  0.5546  0.7301
 2444TIP3    H231528   2.457   3.115  17.072  1.5952 -1.3524  0.6694
 2445TIP3   OH231529   2.962   3.309  17.499 -1.2899 -0.2598  0.6133
 2445TIP3    H131530   2.970   3.252  17.422  1.3606 -1.3500  1.5858
 2445TIP3    H231531   3.043   3.360  17.500 -1.9174  0.7659  1.9042
 2446TIP3   OH231532   1.077   5.070  18.014 -0.1472  0.3783 -0.0651
 2446TIP3    H131533   1.049   4.995  17.962 -1.7005 -0.9644  2.5101
 2446TIP3    H231534   1.149   5.036  18.068  2.2850  2.0708 -1.9950
 2447TIP3   OH231535   3.647   4.991  18.504 -0.6722 -0.1633  0.0929
 2447TIP3    H131536   3.736   4.960  18.488 -0.8248 -0.4863 -0.1390
 2447TIP3    H231537   3.591   4.927  18.460 -1.0709 -0.5641  1.1524
 2448TIP3   OH231538   5.457   7.483  16.950 -0.2957  0.2336 -0.4865
 2448TIP3    H131539   5.416   7.569  16.944  2.0543  1.4312 -0.6432
 2448TIP3    H231540   5.385   7.423  16.969 -1.7557  2.5232  1.8812
 2449TIP3   OH231541   5.843   5.488  17.300 -0.1395 -0.3014  0.2689
 2449TIP3    H131542   5.899   5.436  17.357 -0.2585  0.9851  1.6136
 2449TIP3    H231543   5.758   5.488  17.344  0.1337  1.9059  0.8918
 2450TIP3   OH231544   0.118   3.077  16.315  0.2452 -0.1445  0.2849
 2450TIP3    H131545   0.146   2.986  16.316  2.0440  0.3472 -0.8285
 2450TIP3    H231546   0.100   3.096  16.222 -0.8299  0.4466  0.5917
 2451TIP3   OH231547   5.091   6.852  17.808  0.6061 -0.0952 -0.3994
 2451TIP3    H131548   5.043   6.926  17.770  1.6189 -0.0470 -1.6600
 2451TIP3    H231549   5.049   6.775  17.769 -0.9242 -0.2684  1.4666
 2452TIP3   OH231550   0.750   4.325  16.770 -0.7009 -0.2480  0.3450
 2452TIP3    H131551   0.841   4.354  16.766 -1.3442  1.9987  0.6122
 2452TIP3    H231552   0.736   4.278  16.687  0.0957  1.3323 -0.7335
 2453TIP3   OH231553   0.766   5.040  17.134  0.6317 -0.4942  0.2699
 2453TIP3    H131554   0.679   5.055  17.171  1.5189  0.4359  2.1354
 2453TIP3    H231555   0.815   5.000  17.206  1.5924 -1.6029 -0.9591
 2454TIP3   OH231556   7.202   5.802  19.295  0.5951 -0.1117  0.9023
 2454TIP3    H131557   7.180   5.892  19.320 -0.9423 -0.2494  0.1491
 2454TIP3    H231558   7.297   5.798  19.303  0.8865  2.0567 -0.5776
 2455TIP3   OH231559   5.871   5.335  17.071 -0.0796  0.3421  0.0496
 2455TIP3    H131560   5.863   5.388  17.150 -0.3508  0.2974  0.0520
 2455TIP3    H231561   5.918   5.257  17.099  0.3588  0.5998  0.0343
 2456TIP3   OH231562   0.934   7.595  17.669  0.2318 -0.0565  0.0513
 2456TIP3    H131563   0.850   7.607  17.624  0.5239 -1.1851 -0.8383
 2456TIP3    H231564   0.994   7.654  17.623 -0.3427  1.8909  1.6350
 2457TIP3   OH231565   5.041   7.648  16.813 -0.4342 -0.4921 -0.3806
 2457TIP3    H131566   5.107   7.696  16.863 -0.5770 -0.6055 -0.0824
 2457TIP3    H231567   5.051   7.681  16.724 -1.1858  0.8195 -0.0135
 2458TIP3   OH231568   4.070   0.981  17.572  0.1975 -0.0500  0.0525
 2458TIP3    H131569   4.140   0.923  17.601  1.9134  1.6654 -0.4189
 2458TIP3    H231570   4.067   0.970  17.477 -0.6490 -0.6021  0.1382
 2459TIP3   OH231571   4.358   3.465  18.393 -0.5054  0.1716  0.3053
 2459TIP3    H131572   4.333   3.494  18.305 -0.2904  1.1186  0.5358
 2459TIP3    H231573   4.282   3.419  18.426 -0.2116 -1.1262 -0.7661
 2460TIP3   OH231574   6.042   1.264  16.558  0.7161 -0.0926 -0.0775
 2460TIP3    H131575   6.057   1.322  16.483 -0.9228  0.0651 -0.3358
 2460TIP3    H231576   5.956   1.225  16.540  0.1923  0.0909  1.7899
 2461TIP3   OH231577   1.416   1.884  17.913 -0.4679  0.1438 -0.9262
 2461TIP3    H131578   1.415   1.879  17.818  0.0181  0.5311 -0.9571
 2461TIP3    H231579   1.327   1.862  17.940 -0.2232 -1.5116 -1.3863
 2462TIP3   OH231580   4.356   4.411  17.097  0.0680  0.6324 -0.1840
 2462TIP3    H131581   4.411   4.407  17.175 -0.5013 -0.7610  0.1750
 2462TIP3    H231582   4.408   4.460  17.033  2.8758 -2.6926 -0.7251
 2463TIP3   OH231583   4.233   0.745  18.597  0.5953 -0.4621  0.0710
 2463TIP3    H131584   4.259   0.743  18.504  0.0322  0.1753 -0.1110
 2463TIP3    H231585   4.222   0.839  18.616 -1.4217 -0.6915  0.1739
 2464TIP3   OH231586   5.471   1.460  18.638  0.4922 -0.3520  0.3528
 2464TIP3    H131587   5.432   1.387  18.589  0.5553  0.5309 -1.0588
 2464TIP3    H231588   5.551   1.423  18.675  0.4300 -1.0616 -0.1898
 2465TIP3   OH231589   6.158   1.062  16.289  0.6268 -0.6285  0.0711
 2465TIP3    H131590   6.145   1.139  16.234  1.5128  1.0331  2.0608
 2465TIP3    H231591   6.078   1.010  16.276 -1.2062  1.8698  0.5465
 2466TIP3   OH231592   2.434   1.061  17.201  0.1103  0.1903  0.8410
 2466TIP3    H131593   2.414   1.021  17.285 -0.2551 -0.0574  0.6370
 2466TIP3    H231594   2.381   1.141  17.200 -1.0386 -0.5456  0.2311
 2467TIP3   OH231595   1.727   7.093  18.930 -0.1126 -0.3358  0.0337
 2467TIP3    H131596   1.784   7.030  18.886 -0.0719  0.3058 -0.8556
 2467TIP3    H231597   1.638   7.059  18.915 -0.1138 -0.0271 -0.7306
 2468TIP3   OH231598   1.687   3.500  18.136  0.1245  0.3102 -0.1005
 2468TIP3    H131599   1.687   3.587  18.097 -1.8481  0.3607 -0.0523
 2468TIP3    H231600   1.745   3.509  18.213 -0.0379  1.5702 -0.1035
 2469TIP3   OH231601   5.040   6.050  16.939  0.3176 -0.6788 -0.0003
 2469TIP3    H131602   5.013   5.974  16.888 -2.4514 -2.4567  3.5782
 2469TIP3    H231603   5.111   6.090  16.889 -1.6623 -2.4408 -4.7225
 2470TIP3   OH231604   5.222   6.578  17.179 -1.0168 -0.0652  0.7551
 2470TIP3    H131605   5.154   6.645  17.171 -0.0253  1.0408  1.2055
 2470TIP3    H231606   5.285   6.600  17.110  0.1171  0.4633  1.9140
 2471TIP3   OH231607   4.371   5.772  18.754  0.2117  0.0795  0.2496
 2471TIP3    H131608   4.377   5.697  18.693 -1.6985  0.2352 -0.1725
 2471TIP3    H231609   4.433   5.750  18.824  0.2712 -1.5273 -0.2604
 2472TIP3   OH231610   2.547   0.712  17.162 -0.1319  0.3161  0.1856
 2472TIP3    H131611   2.561   0.629  17.117  2.5268  0.7276  0.1230
 2472TIP3    H231612   2.527   0.688  17.253 -0.7240 -0.3942 -0.1267
 2473TIP3   OH231613   5.565   6.811  17.468  0.2129 -0.0528 -0.2511
 2473TIP3    H131614   5.485   6.759  17.468  0.0814  0.1046 -1.5511
 2473TIP3    H231615   5.536   6.900  17.448  0.3075  0.8262  3.0037
 2474TIP3   OH231616   6.850   4.349  18.120  0.3891 -0.0564 -0.0200
 2474TIP3    H131617   6.823   4.273  18.069  0.6528  0.1852 -0.5291
 2474TIP3    H231618   6.767   4.386  18.152  0.0245  0.9430 -1.9568
 2475TIP3   OH231619   3.242   1.932  17.201 -0.1967 -0.4393  0.5024
 2475TIP3    H131620   3.265   1.877  17.126  1.6362  1.7341 -0.6461
 2475TIP3    H231621   3.315   1.922  17.262  0.5007  1.1762 -0.0273
 2476TIP3   OH231622   6.452   4.871  16.839 -0.0692  0.3876 -0.3419
 2476TIP3    H131623   6.358   4.889  16.839  0.1164  1.5824  0.9796
 2476TIP3    H231624   6.480   4.890  16.929  1.4686  0.2372 -0.7602
 2477TIP3   OH231625   7.305   3.616  16.790  0.4243  0.1374 -0.4708
 2477TIP3    H131626   7.223   3.620  16.740  0.4202  0.4863 -0.4401
 2477TIP3    H231627   7.365   3.570  16.731 -0.1281 -1.2509 -0.0012
 2478TIP3   OH231628   4.149   7.638  18.256  0.0705 -0.3671  0.1992
 2478TIP3    H131629   4.120   7.678  18.174 -2.3918 -1.5822  0.3877
 2478TIP3    H231630   4.190   7.556  18.229 -0.6603 -0.7248  0.1465
 2479TIP3   OH231631   2.467   4.188  16.676 -0.2805  0.3557  0.0414
 2479TIP3    H131632   2.470   4.283  16.672 -2.4190  0.4431 -0.5829
 2479TIP3    H231633   2.533   4.159  16.613  0.4798  1.3969  0.3236
 2480TIP3   OH231634   5.631   3.775  18.604  0.1928 -0.3000  0.3585
 2480TIP3    H131635   5.609   3.721  18.528  2.6372  0.6204 -1.1319
 2480TIP3    H231636   5.668   3.714  18.667 -0.6707 -0.8818  0.3290
 2481TIP3   OH231637   4.793   4.440  18.470 -0.2531  0.5575  0.3557
 2481TIP3    H131638   4.819   4.366  18.524 -0.4297  0.3177  0.1204
 2481TIP3    H231639   4.700   4.424  18.451  0.3547 -0.6479 -1.9985
 2482TIP3   OH231640   2.577   0.334  18.810 -0.4250  0.5290 -0.1725
 2482TIP3    H131641   2.668   0.361  18.794  0.4302  0.0133  3.0325
 2482TIP3    H231642   2.562   0.264  18.746  2.1421 -0.6732  0.3871
 2483TIP3   OH231643   1.346   1.111  18.498  1.0873  0.0767  0.4207
 2483TIP3    H131644   1.296   1.045  18.450  0.7103 -0.9553  2.1434
 2483TIP3    H231645   1.344   1.188  18.441 -1.2614 -0.3614 -0.2279
 2484TIP3   OH231646   4.804   0.778  18.349  0.3352  0.0565 -0.3621
 2484TIP3    H131647   4.748   0.797  18.424  0.3177 -0.9324 -0.1103
 2484TIP3    H231648   4.864   0.710  18.380  1.1123  0.4869 -0.8929
 2485TIP3   OH231649   2.816   6.908  17.737  0.3560 -0.2567  0.0905
 2485TIP3    H131650   2.786   6.953  17.816  0.5026  0.0428 -0.0213
 2485TIP3    H231651   2.888   6.963  17.704 -0.5650  0.3493 -0.9753
 2486TIP3   OH231652   1.754   5.904  17.769 -0.8447  0.1897  0.3067
 2486TIP3    H131653   1.844   5.903  17.802 -0.5228  0.1714 -0.5570
 2486TIP3    H231654   1.749   5.828  17.711 -1.5759 -0.1098  0.7556
 2487TIP3   OH231655   5.757   3.523  16.667  0.0326 -0.4815  0.0793
 2487TIP3    H131656   5.808   3.598  16.697  1.5028 -1.5190  0.2435
 2487TIP3    H231657   5.671   3.560  16.644  0.3154  1.0327  1.3437
 2488TIP3   OH231658   6.498   6.762  17.847 -0.6938 -0.1993  0.2071
 2488TIP3    H131659   6.420   6.788  17.798  0.2934  1.6636 -0.4461
 2488TIP3    H231660   6.508   6.829  17.914  1.2615  0.5246 -0.7577
 2489TIP3   OH231661   5.614   3.140  18.615 -0.2183  0.2619 -0.2046
 2489TIP3    H131662   5.688   3.198  18.595 -0.0169 -0.5095 -1.8951
 2489TIP3    H231663   5.592   3.160  18.706  0.3785  2.3945 -0.4594
 2490TIP3   OH231664   3.292   2.050  18.348 -0.3909 -0.1503 -0.5931
 2490TIP3    H131665   3.316   2.105  18.423  0.4680 -1.1095 -0.1263
 2490TIP3    H231666   3.331   2.094  18.273  0.5942 -0.2689 -0.1791
 2491TIP3   OH231667   4.921   1.478  18.442 -0.4281 -0.4777 -0.1853
 2491TIP3    H131668   5.014   1.472  18.422 -0.4665 -1.5333 -0.1209
 2491TIP3    H231669   4.911   1.561  18.488  0.5793 -0.6236  0.3141
 2492TIP3   OH231670   4.415   1.499  17.681 -0.8695 -0.0638 -0.2198
 2492TIP3    H131671   4.486   1.470  17.624  0.4658  0.8209  0.9035
 2492TIP3    H231672   4.411   1.432  17.750 -1.1640 -0.1398 -0.3104
 2493TIP3   OH231673   1.337   0.940  17.870  0.0098 -0.1320 -0.1175
 2493TIP3    H131674   1.404   0.923  17.936 -2.4812 -2.3676  2.0491
 2493TIP3    H231675   1.289   0.858  17.862 -2.2791  1.2307 -1.7960
 2494TIP3   OH231676   1.031   1.480  16.744  0.4110 -0.6462 -0.2911
 2494TIP3    H131677   1.073   1.401  16.711  0.2732 -0.1160 -1.8180
 2494TIP3    H231678   0.982   1.451  16.821  2.0984 -1.6119  0.4755
 2495TIP3   OH231679   0.251   6.495  18.365 -0.1420 -0.0153 -0.3213
 2495TIP3    H131680   0.339   6.524  18.390  0.3899  0.4199 -2.5557
 2495TIP3    H231681   0.204   6.575  18.346 -0.7066 -0.3151 -0.2092
 2496TIP3   OH231682   6.950   5.320  17.452  0.0900  0.3519 -0.2786
 2496TIP3    H131683   6.952   5.224  17.455  0.0781  0.3642  0.2243
 2496TIP3    H231684   7.036   5.345  17.418  0.0731  0.1616 -0.4634
 2497TIP3   OH231685   2.105   7.202  18.833  0.1044 -0.3930 -0.0945
 2497TIP3    H131686   2.030   7.261  18.826  0.4222 -0.0012 -0.2239
 2497TIP3    H231687   2.100   7.148  18.755 -0.6790 -1.1229  0.4497
 2498TIP3   OH231688   5.784   6.886  18.767  0.7413 -0.3113  0.1328
 2498TIP3    H131689   5.718   6.821  18.790  0.4772 -0.1305 -0.0993
 2498TIP3    H231690   5.739   6.970  18.777  1.3665 -0.1001  1.4044
 2499TIP3   OH231691   1.843   7.614  18.341  0.2342  0.3014  0.2805
 2499TIP3    H131692   1.866   7.542  18.399  0.1451  0.0554  0.0161
 2499TIP3    H231693   1.903   7.685  18.364 -0.0634  0.3458  0.9418
 2500TIP3   OH231694   6.417   4.548  18.175  0.0625 -0.8726 -0.0741
 2500TIP3    H131695   6.357   4.585  18.109  1.0893 -1.1478 -1.2060
 2500TIP3    H231696   6.425   4.617  18.241 -1.1507 -0.6658 -0.1295
 2501TIP3   OH231697   2.711   5.507  17.879 -0.3606 -0.9039 -0.3228
 2501TIP3    H131698   2.692   5.597  17.905  0.3352 -0.6480 -0.6758
 2501TIP3    H231699   2.674   5.453  17.949 -0.5643 -0.3346  0.0116
 2502TIP3   OH231700   6.105   4.114  16.866  0.6482 -0.0863  0.3618
 2502TIP3    H131701   6.075   4.028  16.839 -0.9438  0.3271  0.7150
 2502TIP3    H231702   6.201   4.110  16.858  0.5095 -1.3928 -1.0293
 2503TIP3   OH231703   2.278   0.671  18.978 -0.1500  0.3761  0.6064
 2503TIP3    H131704   2.209   0.607  18.992  0.9247 -0.9250  0.2085
 2503TIP3    H231705   2.358   0.627  19.007  0.4875  1.9580  1.3630
 2504TIP3   OH231706   1.760   6.443  17.815 -0.0991  0.0161  0.0566
 2504TIP3    H131707   1.728   6.375  17.755 -0.9728 -0.5768  1.1586
 2504TIP3    H231708   1.734   6.413  17.902 -0.0254  1.5135  0.6300
 2505TIP3   OH231709   5.248   4.400  19.421  0.0683 -0.0558  0.5165
 2505TIP3    H131710   5.322   4.348  19.454  0.5268  0.9234  1.1107
 2505TIP3    H231711   5.234   4.369  19.332  1.2051 -0.2745  0.3976
 2506TIP3   OH231712   3.202   3.010  16.369  0.4153 -0.3099  0.6364
 2506TIP3    H131713   3.123   3.055  16.340 -1.2213 -2.5077  1.4732
 2506TIP3    H231714   3.176   2.919  16.377  2.7538 -0.9181  2.0616
 2507TIP3   OH231715   1.428   1.125  17.337  0.1286 -0.0856  0.1226
 2507TIP3    H131716   1.349   1.119  17.391 -0.0206 -1.3285 -0.1960
 2507TIP3    H231717   1.474   1.042  17.352  0.2889 -0.2905 -1.3168
 2508TIP3   OH231718   6.384   1.119  16.604  0.1089  0.6831  0.0633
 2508TIP3    H131719   6.432   1.046  16.567  0.4766  1.2791 -0.6673
 2508TIP3    H231720   6.448   1.166  16.657  0.2397  1.2347 -0.5652
 2509TIP3   OH231721   6.047   2.438  17.136  0.0095  0.7907  0.0664
 2509TIP3    H131722   6.051   2.533  17.120  2.1096  1.0389  1.6236
 2509TIP3    H231723   6.106   2.424  17.210  0.0800 -1.8175 -0.4057
 2510TIP3   OH231724   4.070   7.021  18.317 -0.1156  0.0807  0.1844
 2510TIP3    H131725   4.061   6.940  18.267  2.4774 -0.4513  0.4668
 2510TIP3    H231726   4.071   7.090  18.251 -0.2553 -0.2841 -0.2040
 2511TIP3   OH231727   0.835   6.334  17.197  0.4458 -0.2558 -0.1012
 2511TIP3    H131728   0.922   6.332  17.235  0.2050  0.3581  0.4995
 2511TIP3    H231729   0.825   6.248  17.154  2.1532  0.4670 -2.0923
 2512TIP3   OH231730   1.856   0.802  18.466  0.4067  0.4274  0.3412
 2512TIP3    H131731   1.847   0.870  18.533 -0.9084 -1.2599  1.9848
 2512TIP3    H231732   1.767   0.786  18.436  0.9669  1.1022 -1.8443
 2513TIP3   OH231733   0.534   4.242  16.914 -1.5384  0.1230 -0.0021
 2513TIP3    H131734   0.618   4.271  16.879 -2.1500  1.3564 -0.5206
 2513TIP3    H231735   0.510   4.167  16.861 -0.9435 -0.0008 -0.0990
 2514TIP3   OH231736   5.713   7.341  16.435 -0.9756 -0.4382  0.2861
 2514TIP3    H131737   5.696   7.382  16.520 -0.7043 -0.0495  0.1573
 2514TIP3    H231738   5.803   7.367  16.414 -0.5692 -1.6285  0.4939
 2515TIP3   OH231739   3.957   3.026  18.717  0.2719 -0.0196  0.2533
 2515TIP3    H131740   3.927   2.984  18.636  2.3835 -1.2871  0.0422
 2515TIP3    H231741   3.934   3.118  18.706  0.7698 -0.0878 -1.9510
 2516TIP3   OH231742   1.657   7.363  17.208  0.0937  0.8070 -0.2260
 2516TIP3    H131743   1.682   7.375  17.300 -0.6709  0.6493  0.0086
 2516TIP3    H231744   1.661   7.451  17.171  0.5481  0.8506 -0.0789
 2517TIP3   OH231745   5.724   0.942  17.088  0.3184  0.1040 -0.6478
 2517TIP3    H131746   5.645   0.900  17.054 -0.9140  0.7671  1.2275
 2517TIP3    H231747   5.701   1.034  17.096  0.6226  0.0372  1.6121
 2518TIP3   OH231748   6.588   6.293  18.192  0.1183  0.0584  0.1412
 2518TIP3    H131749   6.645   6.232  18.239 -1.6963 -1.9087 -0.0213
 2518TIP3    H231750   6.562   6.358  18.258  0.3608 -0.6360  0.9425
 2519TIP3   OH231751   7.171   2.943  17.121 -0.4527  0.2215 -0.8554
 2519TIP3    H131752   7.078   2.921  17.123 -0.5598  0.6913 -0.6743
 2519TIP3    H231753   7.197   2.946  17.213 -0.8563  2.5960 -0.7613
 2520TIP3   OH231754   1.040   1.919  18.735  0.1797 -0.3094  0.1913
 2520TIP3    H131755   0.962   1.873  18.703 -0.4119  0.0410  1.0904
 2520TIP3    H231756   1.009   2.007  18.755  0.8558 -0.1070  0.3536
 2521TIP3   OH231757   3.756   0.083  18.063 -0.3395 -0.0923  0.0914
 2521TIP3    H131758   3.738   0.161  18.010 -0.2073 -0.2140 -0.1338
 2521TIP3    H231759   3.779   0.118  18.149  0.5652  0.1580 -0.2412
 2522TIP3   OH231760   6.877   3.035  17.905 -0.3341 -0.1049  0.0173
 2522TIP3    H131761   6.825   3.114  17.897  1.3629  0.9767 -0.9721
 2522TIP3    H231762   6.838   2.975  17.841 -0.2293  0.7680 -0.8884
 2523TIP3   OH231763   3.939   2.507  17.183  0.8318 -0.5888  0.2848
 2523TIP3    H131764   3.857   2.554  17.197  1.0700 -0.4239  1.1907
 2523TIP3    H231765   3.913   2.416  17.170  0.4515 -0.4030 -0.3294
 2524TIP3   OH231766   2.765   0.803  17.368  0.1340  0.6355 -0.2102
 2524TIP3    H131767   2.830   0.749  17.323 -1.8380 -0.9869 -1.2749
 2524TIP3    H231768   2.801   0.813  17.457  0.6088 -2.5372  0.0767
 2525TIP3   OH231769   6.441   7.065  17.336  0.4433 -0.5066 -0.3024
 2525TIP3    H131770   6.515   7.117  17.367  0.3581  0.4561 -1.6336
 2525TIP3    H231771   6.479   7.003  17.274  0.1768 -0.0310 -0.9671
 2526TIP3   OH231772   3.423   3.717  17.293 -0.5426  0.2016 -0.3256
 2526TIP3    H131773   3.472   3.718  17.375  0.1700  0.4795 -0.7471
 2526TIP3    H231774   3.487   3.691  17.227 -0.9231  0.7219 -0.9120
 2527TIP3   OH231775   2.121   0.749  17.984  0.0803 -0.1153 -0.5414
 2527TIP3    H131776   2.130   0.844  17.989 -0.0202  0.0316 -2.3359
 2527TIP3    H231777   2.205   0.714  18.012  0.2491  0.5162 -0.2599
 2528TIP3   OH231778   2.327   3.791  17.522  0.1064 -0.7274 -0.0757
 2528TIP3    H131779   2.362   3.793  17.433 -0.1503 -0.9112 -0.1856
 2528TIP3    H231780   2.401   3.812  17.578 -0.2742  1.9881 -0.4578
 2529TIP3   OH231781   2.009   5.760  18.524  0.1021  0.0500  0.0561
 2529TIP3    H131782   2.070   5.703  18.477  1.2872  1.0162  0.3576
 2529TIP3    H231783   2.026   5.742  18.616 -1.6789 -1.2866  0.1671
 2530TIP3   OH231784   5.459   2.702  16.656 -0.9774 -0.6271  0.4742
 2530TIP3    H131785   5.533   2.713  16.597  0.5597 -1.4359  2.1668
 2530TIP3    H231786   5.435   2.610  16.647 -0.5812 -0.8160  1.2493
 2531TIP3   OH231787   6.086   2.256  17.533 -0.2005 -0.1805  0.2198
 2531TIP3    H131788   6.171   2.248  17.577 -0.4086 -0.8688  0.5161
 2531TIP3    H231789   6.028   2.197  17.582 -0.9751  0.6286  0.3130
 2532TIP3   OH231790   7.343   5.575  18.152 -0.0976 -0.2849 -0.3537
 2532TIP3    H131791   7.373   5.609  18.236 -2.1734 -1.0664  0.7982
 2532TIP3    H231792   7.248   5.592  18.152 -0.0181  0.5145 -2.9631
 2533TIP3   OH231793   0.143   5.859  16.364  0.2040 -0.6909 -0.2301
 2533TIP3    H131794   0.233   5.828  16.373  0.2187 -0.6299 -0.1588
 2533TIP3    H231795   0.150   5.939  16.312  0.1885 -0.6970 -0.2423
 2534TIP3   OH231796   6.059   6.922  17.622  0.0536  0.0065 -0.1139
 2534TIP3    H131797   5.980   6.907  17.570  0.4411  1.3509 -1.1589
 2534TIP3    H231798   6.060   7.017  17.636  0.7143 -0.1618  1.1783
 2535TIP3   OH231799   1.251   5.244  18.375  0.2838  0.0969 -0.1111
 2535TIP3    H131800   1.196   5.305  18.326 -0.7306 -0.4735  0.2886
 2535TIP3    H231801   1.277   5.292  18.453 -0.3879  0.0775  0.1276
 2536TIP3   OH231802   1.296   6.867  18.491 -0.0547  0.3212  0.7517
 2536TIP3    H131803   1.347   6.944  18.516  0.9763  0.2152 -0.9130
 2536TIP3    H231804   1.259   6.889  18.406 -1.3211 -0.3170  1.1202
 2537TIP3   OH231805   3.924   2.913  17.341  0.3829  0.2636 -0.4688
 2537TIP3    H131806   3.998   2.967  17.315  0.7824 -0.4028 -0.7525
 2537TIP3    H231807   3.965   2.838  17.386 -0.2319  1.0098  1.4356
 2538TIP3   OH231808   2.396   5.574  17.330  0.3678  0.0999  0.4550
 2538TIP3    H131809   2.313   5.564  17.376 -0.2073 -2.5338 -0.9342
 2538TIP3    H231810   2.374   5.623  17.251  1.2696  4.1989  2.4602
 2539TIP3   OH231811   5.286   0.849  17.254  0.5537 -0.3052 -0.6829
 2539TIP3    H131812   5.223   0.920  17.241 -0.8087 -1.4461 -0.5384
 2539TIP3    H231813   5.282   0.798  17.173  0.2378 -1.1796 -0.1294
 2540TIP3   OH231814   3.287   6.117  18.099 -0.2419  0.4325 -0.0906
 2540TIP3    H131815   3.298   6.039  18.044  2.1234 -0.2353  1.2051
 2540TIP3    H231816   3.201   6.104  18.140  0.8992 -2.5970  1.6477
 2541TIP3   OH231817   4.422   1.998  17.674 -0.1085  0.2997 -0.4479
 2541TIP3    H131818   4.342   1.979  17.723 -0.4965  1.4398 -0.6202
 2541TIP3    H231819   4.452   1.912  17.645 -0.1342 -0.3659  1.3423
 2542TIP3   OH231820   7.404   6.332  16.916  0.1669 -0.2557  0.0986
 2542TIP3    H131821   7.425   6.307  17.006  1.6486 -0.0294 -0.1690
 2542TIP3    H231822   7.383   6.250  16.872  1.4591 -0.6165  0.1397
 2543TIP3   OH231823   4.688   2.096  18.548 -0.3923 -0.0698  0.5230
 2543TIP3    H131824   4.777   2.103  18.583 -0.5359 -1.3834  1.2226
 2543TIP3    H231825   4.682   2.166  18.483  1.9909 -1.4025 -1.2844
 2544TIP3   OH231826   0.855   6.022  16.426 -0.1807  0.0623 -0.0339
 2544TIP3    H131827   0.863   6.075  16.347 -0.7455 -0.1561 -0.2467
 2544TIP3    H231828   0.926   5.959  16.420 -0.6511 -0.4242 -0.7483
 2545TIP3   OH231829   5.344   0.651  18.703 -0.3412 -0.1184  0.3426
 2545TIP3    H131830   5.277   0.590  18.733 -0.8850  0.6671  0.7520
 2545TIP3    H231831   5.337   0.726  18.762 -0.1858  0.6609 -0.6025
 2546TIP3   OH231832   6.323   0.051  16.329  0.3393 -0.1429  0.2964
 2546TIP3    H131833   6.328  -0.024  16.270  0.3617 -0.5616  0.8223
 2546TIP3    H231834   6.231   0.077  16.326  0.5834  0.6470 -0.9015
 2547TIP3   OH231835   3.827   5.523  17.362  0.1212 -0.1866 -0.2958
 2547TIP3    H131836   3.801   5.431  17.365 -0.7398  0.0746  1.0397
 2547TIP3    H231837   3.745   5.571  17.368  0.6027  0.6697 -0.5232
 2548TIP3   OH231838   6.447   6.473  17.492 -0.4423  0.1226  0.0443
 2548TIP3    H131839   6.533   6.507  17.515  0.2597 -1.3428 -0.2466
 2548TIP3    H231840   6.425   6.413  17.563 -0.2952 -1.0020 -0.8179
 2549TIP3   OH231841   5.210   0.015  17.170 -0.3861 -0.0962  0.2138
 2549TIP3    H131842   5.257   0.014  17.086 -1.2788  1.1042 -0.3188
 2549TIP3    H231843   5.135   0.073  17.156 -1.0383 -0.5511  1.5909
 2550TIP3   OH231844   6.303   1.383  17.812  0.1513 -0.3424  0.5816
 2550TIP3    H131845   6.239   1.420  17.873 -2.5839 -1.2005 -1.5630
 2550TIP3    H231846   6.319   1.294  17.844  0.8145  0.0696  1.4584
 2551TIP3   OH231847   4.893   1.667  18.650  0.1650 -0.4106 -0.1246
 2551TIP3    H131848   4.964   1.729  18.667  0.6771 -0.7709 -0.9026
 2551TIP3    H231849   4.814   1.716  18.672  0.6146  0.1888  0.2176
 2552TIP3   OH231850   6.611   5.600  18.785 -0.3581 -0.3610 -0.1823
 2552TIP3    H131851   6.579   5.683  18.749 -0.5223 -0.9709 -1.4954
 2552TIP3    H231852   6.568   5.593  18.870 -0.4087  0.8555 -0.0880
 2553TIP3   OH231853   7.442   0.116  18.356 -0.4653 -0.4672 -0.8948
 2553TIP3    H131854   7.442   0.206  18.388 -0.0903 -0.7093 -0.1919
 2553TIP3    H231855   7.354   0.083  18.378 -0.5504 -0.3240 -1.0165
 2554TIP3   OH231856   2.968   3.000  16.668  0.0387  0.4076  0.3433
 2554TIP3    H131857   2.918   3.048  16.734 -0.0553 -0.0319  0.5971
 2554TIP3    H231858   2.906   2.982  16.598 -0.0022  0.4103  0.3786
 2555TIP3   OH231859   6.765   4.232  17.303 -0.2157 -0.5057 -0.0676
 2555TIP3    H131860   6.801   4.293  17.367  0.8135 -0.1667 -0.9515
 2555TIP3    H231861   6.715   4.286  17.243  0.1086 -0.6268 -0.4463
 2556TIP3   OH231862   2.690   5.168  17.488  0.1441  0.1884 -0.0199
 2556TIP3    H131863   2.626   5.195  17.423 -2.1486  0.8999  2.3847
 2556TIP3    H231864   2.771   5.155  17.438 -1.5913  0.1585 -3.0360
 2557TIP3   OH231865   7.217   6.445  16.762  0.3772 -0.1679 -0.0080
 2557TIP3    H131866   7.303   6.422  16.797  0.1731  0.7361  1.1525
 2557TIP3    H231867   7.189   6.520  16.814 -0.9766 -0.2381 -0.5854
 2558TIP3   OH231868   5.755   6.667  17.058 -0.2374 -0.3440 -0.3317
 2558TIP3    H131869   5.672   6.628  17.085 -0.8091  0.8708 -0.2305
 2558TIP3    H231870   5.794   6.700  17.139 -0.2999  0.2365 -0.5273
 2559TIP3   OH231871   5.545   0.755  16.948  0.3397  0.1340  0.9404
 2559TIP3    H131872   5.452   0.744  16.964 -0.1742 -0.5159 -1.9200
 2559TIP3    H231873   5.585   0.673  16.976 -0.1105 -0.0218  1.1210
 2560TIP3   OH231874   0.817   3.641  17.157  0.6856  0.2590  1.2075
 2560TIP3    H131875   0.734   3.649  17.206  0.0585  1.1355  0.0397
 2560TIP3    H231876   0.848   3.553  17.178 -1.2556 -0.6330  0.5959
 2561TIP3   OH231877   1.163   5.033  17.341  0.6375 -0.0169 -0.4262
 2561TIP3    H131878   1.130   4.947  17.314  0.6226 -0.4486  0.8999
 2561TIP3    H231879   1.146   5.036  17.435  2.4189  0.6377 -0.1002
 2562TIP3   OH231880   6.913   3.041  16.891 -0.0500 -0.1756 -0.1364
 2562TIP3    H131881   6.860   3.036  16.811  1.6234  0.7866 -1.3462
 2562TIP3    H231882   6.987   2.984  16.875  0.1421 -0.2336  0.8787
 2563TIP3   OH231883   6.748   5.112  18.993 -0.0093 -0.1420 -0.2884
 2563TIP3    H131884   6.717   5.134  19.080  0.0233 -1.2615  0.0244
 2563TIP3    H231885   6.773   5.196  18.954  2.0869  0.2042  1.5717
 2564TIP3   OH231886   4.562   4.709  16.481  0.9999  0.2687 -0.3512
 2564TIP3    H131887   4.569   4.654  16.403  0.9360 -0.7014  0.3087
 2564TIP3    H231888   4.487   4.767  16.463 -0.4046 -1.3980 -0.1529
 2565TIP3   OH231889   7.673   7.019  15.922  0.6205 -0.1706 -0.3254
 2565TIP3    H131890   7.675   6.924  15.931 -0.6610 -0.1305  0.8721
 2565TIP3    H231891   7.742   7.050  15.979  0.1985 -0.3604  0.3047
 2566TIP3   OH231892   2.162   0.520  18.755  0.1494 -0.0701 -0.0198
 2566TIP3    H131893   2.153   0.502  18.661 -0.5384 -0.5357  0.1248
 2566TIP3    H231894   2.167   0.615  18.761 -1.1776  0.0437 -0.4384
 2567TIP3   OH231895   5.888   7.575  18.369 -0.3583 -0.1253  0.1264
 2567TIP3    H131896   5.885   7.484  18.341  3.0675  0.0634 -1.4324
 2567TIP3    H231897   5.925   7.573  18.457  1.9231 -0.2402 -0.7791
 2568TIP3   OH231898   0.175   4.651  18.799 -0.5661 -0.4735 -0.2157
 2568TIP3    H131899   0.181   4.690  18.886  2.4698  0.7430 -0.8450
 2568TIP3    H231900   0.098   4.594  18.803 -1.9704  1.3922  2.4659
 2569TIP3   OH231901   5.701   0.695  17.838  0.9001  0.0349 -0.0011
 2569TIP3    H131902   5.646   0.650  17.902  2.0658 -2.3263 -0.5472
 2569TIP3    H231903   5.719   0.780  17.877 -2.6721  0.7695  0.4241
 2570TIP3   OH231904   5.800   1.456  17.957  0.3592 -0.0855  0.4506
 2570TIP3    H131905   5.834   1.496  18.037 -0.2137 -0.7307  1.0428
 2570TIP3    H231906   5.737   1.520  17.923  1.4243  0.6783 -0.1124
 2571TIP3   OH231907   7.010   2.771  17.608  0.2394  0.1681  0.3115
 2571TIP3    H131908   6.932   2.821  17.632  0.2832  0.5130 -0.2491
 2571TIP3    H231909   6.978   2.703  17.548  0.0131 -1.1535  1.8626
 2572TIP3   OH231910   4.003   6.007  17.706 -0.3903 -0.4918  0.3361
 2572TIP3    H131911   4.050   6.043  17.781  0.2955 -1.5905  0.4652
 2572TIP3    H231912   3.911   6.013  17.729 -0.1827 -0.8090  1.2614
 2573TIP3   OH231913   1.203   5.817  17.989  1.1096  0.0291  0.4381
 2573TIP3    H131914   1.197   5.862  17.904  0.2695 -0.8901 -0.0072
 2573TIP3    H231915   1.170   5.881  18.052  1.5971  0.6670  0.0527
 2574TIP3   OH231916   0.570   7.140  18.079  0.0752  0.3368  0.3952
 2574TIP3    H131917   0.663   7.141  18.102 -0.1200 -0.1050  1.2325
 2574TIP3    H231918   0.525   7.114  18.159 -0.7806  0.5732  0.0067
 2575TIP3   OH231919   6.193   7.345  18.604 -0.2404 -0.5636 -0.1794
 2575TIP3    H131920   6.161   7.278  18.544 -1.1364  1.4048 -2.0280
 2575TIP3    H231921   6.270   7.382  18.561 -1.4942  1.5850 -0.7468
 2576TIP3   OH231922   7.191   3.711  18.018 -0.3295  0.5585  0.2280
 2576TIP3    H131923   7.134   3.637  18.038  1.0328 -0.4999  0.2653
 2576TIP3    H231924   7.169   3.734  17.927 -0.7600  0.1211  0.2181
 2577TIP3   OH231925   3.000   5.071  18.955 -0.1253 -0.9244  0.5049
 2577TIP3    H131926   3.059   4.999  18.975  1.2586  0.7175  2.7655
 2577TIP3    H231927   3.058   5.143  18.931 -1.1412  0.6128  2.3864
 2578TIP3   OH231928   4.690   6.153  17.950  0.3106  0.1654  0.6962
 2578TIP3    H131929   4.761   6.091  17.966  1.1745  1.1849  0.9802
 2578TIP3    H231930   4.710   6.191  17.864 -0.6522 -0.5138  0.1615
 2579TIP3   OH231931   3.342   0.777  18.253  0.1546  0.2463  0.3863
 2579TIP3    H131932   3.417   0.746  18.305 -0.2541  1.4718  1.7894
 2579TIP3    H231933   3.289   0.827  18.315 -1.1185  0.5802 -0.9108
 2580TIP3   OH231934   7.158   4.901  17.571  0.1630 -0.1982 -0.1331
 2580TIP3    H131935   7.134   4.911  17.663 -1.3334  0.9675 -0.6247
 2580TIP3    H231936   7.107   4.825  17.542 -0.6691  0.4739 -0.4309
 2581TIP3   OH231937   2.220   6.486  17.489 -0.1436  0.0236  0.2393
 2581TIP3    H131938   2.286   6.549  17.460  0.8126  0.1011  2.3798
 2581TIP3    H231939   2.262   6.400  17.475 -0.4656 -0.0376 -0.3875
 2582TIP3   OH231940   2.694   5.890  18.233 -0.1993 -0.1236 -0.4324
 2582TIP3    H131941   2.668   5.982  18.234 -0.0779 -0.0878 -0.6325
 2582TIP3    H231942   2.703   5.868  18.326  2.8089  0.9417 -0.3464
 2583TIP3   OH231943   6.784   4.518  16.109 -0.0278  0.7505 -0.2646
 2583TIP3    H131944   6.803   4.438  16.159 -0.0118  1.9032  1.6869
 2583TIP3    H231945   6.691   4.510  16.087 -0.0295  0.1960 -0.0974
 2584TIP3   OH231946   2.706   0.757  17.871  0.1405 -0.2293  0.6536
 2584TIP3    H131947   2.628   0.781  17.820  0.8921 -0.2195 -0.5459
 2584TIP3    H231948   2.763   0.834  17.866  1.9948 -1.6096 -2.0932
 2585TIP3   OH231949   2.151   5.874  16.375  0.5000 -0.0025 -0.2649
 2585TIP3    H131950   2.078   5.931  16.401  0.2055  0.8108 -2.6286
 2585TIP3    H231951   2.229   5.928  16.389  0.4528  0.0077 -0.0286
 2586TIP3   OH231952   7.658   0.713  18.080 -0.5487 -0.4205 -0.4263
 2586TIP3    H131953   7.660   0.774  18.007 -0.5519  0.9344  0.6587
 2586TIP3    H231954   7.627   0.630  18.043  0.8496 -0.1805 -2.2283
 2587TIP3   OH231955   6.972   0.012  17.637 -0.5649  0.1777 -0.1826
 2587TIP3    H131956   7.018   0.083  17.681  0.5801 -1.1265  0.8033
 2587TIP3    H231957   6.929  -0.037  17.708 -2.0029  0.3162 -0.9155
 2588TIP3   OH231958   1.856   0.052  17.575 -0.1832 -0.4128 -0.1803
 2588TIP3    H131959   1.930   0.106  17.546 -0.2753 -1.1576 -1.9083
 2588TIP3    H231960   1.828   0.092  17.657  0.7662  1.1974 -0.5982
 2589TIP3   OH231961   6.548   3.910  18.525  0.5247 -0.1955 -0.5276
 2589TIP3    H131962   6.495   3.987  18.503 -0.4730  0.4071  3.3740
 2589TIP3    H231963   6.600   3.937  18.601  1.0103 -3.0181  0.2678
 2590TIP3   OH231964   2.503   3.968  17.140 -0.2284 -0.0390 -0.3788
 2590TIP3    H131965   2.562   4.018  17.196 -1.6186  1.4517 -0.1589
 2590TIP3    H231966   2.514   4.005  17.053  0.1796 -0.7232 -0.6260
 2591TIP3   OH231967   2.375   4.640  17.703  0.0809 -0.2466  0.3692
 2591TIP3    H131968   2.364   4.608  17.613 -2.3514  1.7963 -0.1704
 2591TIP3    H231969   2.328   4.723  17.705 -1.0757 -0.8043  3.8465
 2592TIP3   OH231970   7.372   7.488  17.953  0.2897  0.6328  0.4226
 2592TIP3    H131971   7.344   7.574  17.987 -1.4482  0.2668  0.0161
 2592TIP3    H231972   7.318   7.475  17.875  1.1705 -0.4469 -0.0166
 2593TIP3   OH231973   5.025   1.126  17.684 -0.1097 -0.0417  0.5264
 2593TIP3    H131974   4.966   1.200  17.700  0.9752  0.8839  0.3823
 2593TIP3    H231975   5.024   1.115  17.589 -0.5173 -0.4360  0.5721
 2594TIP3   OH231976   0.569   7.468  18.063 -0.0339 -0.9788 -0.0712
 2594TIP3    H131977   0.610   7.405  18.123  0.4584 -0.9154 -0.3365
 2594TIP3    H231978   0.573   7.552  18.110  1.6305 -0.6449 -0.7417
 2595TIP3   OH231979   0.173   1.638  17.992 -0.4142  0.3066  0.8326
 2595TIP3    H131980   0.215   1.687  17.922 -0.9377  1.3331  1.2145
 2595TIP3    H231981   0.246   1.608  18.047  0.1267 -1.7890 -0.8927
 2596TIP3   OH231982   1.576   0.580  17.013 -0.0959  0.1769 -0.1036
 2596TIP3    H131983   1.548   0.587  16.921  1.4279  0.7669 -0.5622
 2596TIP3    H231984   1.497   0.554  17.060 -1.7352  2.9036 -1.1119
 2597TIP3   OH231985   3.251   7.214  17.079  0.4868 -0.4132 -0.0905
 2597TIP3    H131986   3.336   7.233  17.040  0.8724 -0.2706  0.7977
 2597TIP3    H231987   3.262   7.127  17.119  0.3978 -0.1562  0.5056
 2598TIP3   OH231988   0.482   6.607  18.469 -0.9249  0.0409  1.0346
 2598TIP3    H131989   0.535   6.586  18.546 -1.7011 -1.3483  1.2094
 2598TIP3    H231990   0.414   6.666  18.501  0.3709  1.7320  0.8348
 2599TIP3   OH231991   1.307   1.187  17.075 -0.2424  0.5853 -0.0534
 2599TIP3    H131992   1.386   1.183  17.020 -0.7846  2.7668 -1.1263
 2599TIP3    H231993   1.334   1.149  17.159  2.0050  1.4069 -0.3292
 2600TIP3   OH231994   0.042   7.589  17.614 -0.3748  0.0042 -0.0026
 2600TIP3    H131995   0.123   7.557  17.576 -0.6442  1.0307 -1.5339
 2600TIP3    H231996   0.059   7.593  17.708  1.3276  0.1479 -0.2940
 2601TIP3   OH231997   2.662   0.417  18.362  0.1152 -0.1623 -0.2737
 2601TIP3    H131998   2.567   0.427  18.352  0.3120  1.5528 -0.6380
 2601TIP3    H231999   2.698   0.433  18.275  0.8493  0.8313  0.1997
 2602TIP3   OH232000   1.456   2.598  18.390  0.3278 -0.4293 -0.1531
 2602TIP3    H132001   1.474   2.528  18.328  1.4718 -1.6701  1.5000
 2602TIP3    H232002   1.418   2.554  18.466  2.4010  0.4576  1.5087
 2603TIP3   OH232003   6.916   7.659  18.387 -0.0226  0.3804 -0.1397
 2603TIP3    H132004   6.852   7.701  18.445 -0.3233 -0.5642  0.2392
 2603TIP3    H232005   6.926   7.720  18.314 -0.6188  0.9942  0.2758
 2604TIP3   OH232006   5.690   1.163  17.380  0.0562  0.2588  0.5166
 2604TIP3    H132007   5.767   1.107  17.368  0.0090  0.5316 -1.2898
 2604TIP3    H232008   5.616   1.102  17.372  0.0512  0.2227  0.8327
 2605TIP3   OH232009   4.747   1.040  16.838  0.1686 -0.1500 -0.1904
 2605TIP3    H132010   4.777   0.989  16.763 -1.4051  0.1987 -1.0973
 2605TIP3    H232011   4.663   1.000  16.862 -0.0375  0.6402  0.4621
 2606TIP3   OH232012   1.329   3.086  16.339  0.2370  0.4754 -0.3593
 2606TIP3    H132013   1.259   3.085  16.404  1.7471  0.8218  1.3519
 2606TIP3    H232014   1.287   3.116  16.259 -1.5936  0.5026  0.5648
 2607TIP3   OH232015   2.665   7.038  18.515 -0.2051  0.0817 -0.3066
 2607TIP3    H132016   2.746   7.069  18.556  0.6749 -2.0237 -0.3037
 2607TIP3    H232017   2.675   6.943  18.511 -2.8140 -0.2861 -0.0610
 2608TIP3   OH232018   0.635   5.792  17.835  0.7287 -0.3216 -0.2619
 2608TIP3    H132019   0.645   5.820  17.744  1.5453 -1.6395 -0.6124
 2608TIP3    H232020   0.591   5.865  17.878 -0.5981 -0.0623 -1.9304
 2609TIP3   OH232021   0.428   0.574  17.061  0.3230 -0.0550  0.1659
 2609TIP3    H132022   0.422   0.667  17.084  0.1692 -0.1723  0.6100
 2609TIP3    H232023   0.397   0.570  16.970 -0.0469  0.2684  0.2749
 2610TIP3   OH232024   1.634   7.643  17.169 -0.0097 -0.1232  0.6686
 2610TIP3    H132025   1.564   7.681  17.222 -0.6592  0.3822 -0.5068
 2610TIP3    H232026   1.708   7.703  17.179  0.6924 -1.2516  2.8270
 2611TIP3   OH232027   7.052   7.212  18.260  0.1139  0.2629 -0.4139
 2611TIP3    H132028   7.130   7.157  18.251 -1.0065 -1.2638 -1.3716
 2611TIP3    H232029   7.054   7.269  18.183  0.1834  0.0760 -0.5532
 2612TIP3   OH232030   5.502   6.976  18.253 -0.0477 -0.3692 -0.6577
 2612TIP3    H132031   5.440   7.017  18.314 -0.1250 -0.7924 -0.4501
 2612TIP3    H232032   5.459   6.980  18.168 -0.6063 -1.1684 -0.4202
 2613TIP3   OH232033   4.814   6.493  17.280 -0.5408  0.2596 -0.0453
 2613TIP3    H132034   4.765   6.420  17.319  0.4633 -1.1494 -1.3481
 2613TIP3    H232035   4.906   6.470  17.293 -0.2102  1.0938 -0.8541
 2614TIP3   OH232036   2.384   6.263  17.472 -0.1084  0.2827 -0.0713
 2614TIP3    H132037   2.324   6.201  17.430 -1.1235  0.9809  0.2997
 2614TIP3    H232038   2.438   6.297  17.400  0.3576 -0.9113 -0.2943
 2615TIP3   OH232039   6.324   2.351  17.654 -0.7323 -0.4962 -0.1035
 2615TIP3    H132040   6.359   2.431  17.616 -2.1378  0.6742  0.9630
 2615TIP3    H232041   6.372   2.341  17.736  0.0275 -1.2343 -0.6213
 2616TIP3   OH232042   5.639   5.272  17.584  0.2877  0.2702  0.6686
 2616TIP3    H132043   5.682   5.187  17.575  1.1774  0.8191 -0.5762
 2616TIP3    H232044   5.556   5.262  17.538  1.0708  0.4938 -0.8732
 2617TIP3   OH232045   4.087   2.137  18.369 -0.1313  0.1476  0.1492
 2617TIP3    H132046   4.021   2.204  18.350 -2.9464 -2.0738  1.2804
 2617TIP3    H232047   4.079   2.121  18.463  0.7891 -1.4127 -0.0045
 2618TIP3   OH232048   7.335   6.455  18.630  0.3579 -0.8044  0.1566
 2618TIP3    H132049   7.290   6.412  18.557 -0.0309  0.1743 -0.1992
 2618TIP3    H232050   7.428   6.443  18.611  0.2659 -0.2718 -0.6926
 2619TIP3   OH232051   4.866   3.454  17.891 -0.0737  0.2694  0.1056
 2619TIP3    H132052   4.806   3.384  17.866  0.1052 -0.9368  2.7786
 2619TIP3    H232053   4.940   3.410  17.933  0.8876  1.9577  0.3182
 2620TIP3   OH232054   1.527   2.876  18.572 -0.1162 -0.2199 -0.0031
 2620TIP3    H132055   1.552   2.869  18.480 -0.7176  0.2723 -0.2099
 2620TIP3    H232056   1.489   2.791  18.593  2.4261 -1.2909  0.5555
 2621TIP3   OH232057   4.521   1.238  15.959 -0.4199  0.2027  0.4127
 2621TIP3    H132058   4.462   1.303  15.997 -1.4991  0.7096 -1.9531
 2621TIP3    H232059   4.590   1.291  15.918 -0.1756 -0.2407  0.2502
 2622TIP3   OH232060   0.231   2.807  16.887 -0.5628  0.0767 -0.2600
 2622TIP3    H132061   0.186   2.864  16.949 -1.7957 -2.8065  1.7490
 2622TIP3    H232062   0.311   2.781  16.933 -0.4015 -0.3563 -0.7783
 2623TIP3   OH232063   4.643   0.121  18.892 -0.0011 -0.1684 -0.5844
 2623TIP3    H132064   4.670   0.165  18.812 -0.6747 -0.3927 -0.9368
 2623TIP3    H232065   4.651   0.189  18.960  1.0397 -0.1145 -0.7320
 2624TIP3   OH232066   5.932   0.440  17.300  0.8259  0.3376  0.1887
 2624TIP3    H132067   5.882   0.360  17.280  2.0039 -0.1942 -0.7951
 2624TIP3    H232068   5.867   0.500  17.337  0.3437 -1.8993  3.3483
 2625TIP3   OH232069   0.782   2.033  17.509 -0.3622 -0.2224 -0.0322
 2625TIP3    H132070   0.855   2.022  17.570  0.3518 -0.5201 -0.9134
 2625TIP3    H232071   0.815   2.095  17.444 -0.0792 -2.0039 -1.6597
 2626TIP3   OH232072   5.112   5.762  17.989 -0.0114  0.3069 -0.4092
 2626TIP3    H132073   5.205   5.783  17.992 -0.1174  0.8178 -0.6580
 2626TIP3    H232074   5.080   5.781  18.077  0.2242 -0.3702 -0.1733
 2627TIP3   OH232075   2.816   2.996  17.832  0.2502 -0.2981 -0.2998
 2627TIP3    H132076   2.731   2.952  17.835 -1.2758  2.4424  0.1150
 2627TIP3    H232077   2.871   2.946  17.892 -0.4763 -3.1361 -1.8293
 2628TIP3   OH232078   2.096   5.291  18.493 -0.4035  0.2141 -0.5403
 2628TIP3    H132079   2.175   5.341  18.518 -0.7530  0.9570 -0.8827
 2628TIP3    H232080   2.026   5.331  18.545 -0.6713 -0.0010 -0.7345
 2629TIP3   OH232081   0.358   2.764  16.051  0.1527 -0.6489  0.1845
 2629TIP3    H132082   0.269   2.729  16.048 -1.0485  2.1176  0.6536
 2629TIP3    H232083   0.347   2.858  16.044  2.7876  0.1217  3.7310
 2630TIP3   OH232084   5.718   1.457  16.637  0.8098  0.2026  0.4901
 2630TIP3    H132085   5.665   1.383  16.667 -0.5750  1.3035  0.8713
 2630TIP3    H232086   5.734   1.439  16.545 -0.3680 -0.1124  0.3222
 2631TIP3   OH232087   2.677   1.371  17.437 -0.1843  0.1778  0.2974
 2631TIP3    H132088   2.651   1.286  17.472  0.0665  0.0768  0.2439
 2631TIP3    H232089   2.674   1.359  17.342  0.2236  0.1119  0.2906
 2632TIP3   OH232090   2.424   5.916  16.876 -0.3104  0.1707  0.0019
 2632TIP3    H132091   2.407   5.999  16.922  2.0249 -0.1466  1.6301
 2632TIP3    H232092   2.516   5.922  16.850 -0.6213 -1.1585 -1.5804
 2633TIP3   OH232093   6.007   1.718  17.853 -0.1581  0.4733  0.4343
 2633TIP3    H132094   5.924   1.760  17.877 -1.8360 -2.2464 -0.2053
 2633TIP3    H232095   5.996   1.693  17.762  1.0457 -0.6694  0.5719
 2634TIP3   OH232096   5.903   2.862  17.896 -0.1782  0.6829 -0.6758
 2634TIP3    H132097   5.923   2.821  17.813 -1.1969  2.9361 -2.1327
 2634TIP3    H232098   5.808   2.853  17.905  0.0909 -1.2139  1.2757
 2635TIP3   OH232099   7.622   0.607  17.017 -0.1126  0.3607  0.3395
 2635TIP3    H132100   7.577   0.615  16.933 -0.5312  1.1387  0.6298
 2635TIP3    H232101   7.614   0.514  17.039 -0.1264  0.1782 -0.4032
 2636TIP3   OH232102   0.310   2.320  17.693  0.7060 -0.2629  0.0162
 2636TIP3    H132103   0.256   2.243  17.713 -0.3691  0.4968  0.0728
 2636TIP3    H232104   0.314   2.368  17.776  0.4831  0.2925 -0.2978
 2637TIP3   OH232105   1.368   4.933  16.893  0.0455  0.4005 -0.2238
 2637TIP3    H132106   1.385   4.970  16.980  0.5397  0.4805 -0.3472
 2637TIP3    H232107   1.292   4.876  16.905  0.1178  0.4026  0.2631
 2638TIP3   OH232108   0.345   0.791  18.211  0.1624 -0.5078 -0.0590
 2638TIP3    H132109   0.421   0.786  18.152  0.3747 -0.9865  0.2497
 2638TIP3    H232110   0.273   0.753  18.161 -0.1535  0.9404 -0.7708
 2639TIP3   OH232111   6.311   6.263  17.206 -0.1002 -0.5081  0.2130
 2639TIP3    H132112   6.296   6.168  17.206 -0.4644 -0.4791 -1.3942
 2639TIP3    H232113   6.311   6.287  17.114  0.9895  0.9233  0.5550
 2640TIP3   OH232114   5.610   5.528  17.434 -0.3869  0.2863  0.1359
 2640TIP3    H132115   5.518   5.509  17.417 -0.3051 -0.0428  0.0586
 2640TIP3    H232116   5.635   5.465  17.502 -0.0706  0.0165 -0.2314
 2641TIP3   OH232117   4.460   1.078  16.631  0.7816  0.3901  0.7033
 2641TIP3    H132118   4.524   1.008  16.647  0.0509 -0.4828 -0.0300
 2641TIP3    H232119   4.381   1.048  16.676  0.9270  1.5734  1.8086
 2642TIP3   OH232120   7.513   5.220  18.928 -0.1360  0.4377 -0.6580
 2642TIP3    H132121   7.437   5.264  18.892 -0.2215  1.5629  0.8002
 2642TIP3    H232122   7.515   5.247  19.020  0.4488 -1.7623  0.0361
 2643TIP3   OH232123   6.890   7.256  17.712  0.1708  0.0930  0.1727
 2643TIP3    H132124   6.838   7.245  17.633  2.3020  0.7201 -1.4032
 2643TIP3    H232125   6.898   7.350  17.724 -0.8292  0.0241  1.6775
 2644TIP3   OH232126   2.995   6.622  17.090 -0.0635 -0.0656  0.4168
 2644TIP3    H132127   2.988   6.600  16.997 -0.8883 -0.3664  0.5384
 2644TIP3    H232128   2.905   6.620  17.122  0.3062 -1.0765  1.4717
 2645TIP3   OH232129   5.296   0.374  18.344 -0.0497 -0.3514 -0.3235
 2645TIP3    H132130   5.256   0.444  18.395  2.3207  0.7609  0.1729
 2645TIP3    H232131   5.317   0.306  18.408  0.3156 -0.2059 -0.2828
 2646TIP3   OH232132   0.184   5.894  17.482  0.4571 -0.1982 -0.0574
 2646TIP3    H132133   0.172   5.828  17.413  0.6331  0.4925 -0.7652
 2646TIP3    H232134   0.098   5.935  17.490  0.2656 -0.7144  0.6028
 2647TIP3   OH232135   6.709   0.985  17.725  0.2279  0.2354 -0.3145
 2647TIP3    H132136   6.736   1.072  17.755  1.3182 -0.3572  0.4958
 2647TIP3    H232137   6.622   0.972  17.764  0.6645  0.3960  0.7508
 2648TIP3   OH232138   2.744   2.670  17.921 -0.2104 -0.4436 -0.0135
 2648TIP3    H132139   2.802   2.608  17.966 -0.4326 -0.1360  0.7180
 2648TIP3    H232140   2.780   2.756  17.942 -0.8294 -0.2571  0.3249
 2649TIP3   OH232141   7.532   5.888  17.757 -0.2829 -0.2863  0.4039
 2649TIP3    H132142   7.503   5.798  17.740  1.6892 -0.9432  0.1396
 2649TIP3    H232143   7.482   5.942  17.696 -1.5313 -1.1965  0.5965
 2650TIP3   OH232144   0.789   7.502  16.985  0.0092  0.0994  0.1381
 2650TIP3    H132145   0.722   7.434  16.998  0.2237 -0.2116 -0.3619
 2650TIP3    H232146   0.832   7.477  16.903 -0.6105  1.4200 -0.6216
 2651TIP3   OH232147   7.268   3.348  17.661  0.2219 -0.0775  0.2682
 2651TIP3    H132148   7.245   3.260  17.690  0.4806 -0.1422  0.2854
 2651TIP3    H232149   7.192   3.379  17.612  0.4033 -0.5739 -0.3304
 2652TIP3   OH232150   4.408   5.285  18.745  0.3436  0.0230  0.1569
 2652TIP3    H132151   4.316   5.311  18.754  0.4981  0.6354 -0.0442
 2652TIP3    H232152   4.451   5.323  18.821  0.3722 -0.5602  0.4399
 2653TIP3   OH232153   5.970   4.640  17.720 -0.1632  0.2873 -0.0023
 2653TIP3    H132154   5.961   4.588  17.799 -1.4802  1.4287  0.6321
 2653TIP3    H232155   6.041   4.597  17.671 -1.4026 -2.2825  0.3091
 2654TIP3   OH232156   6.643   5.606  17.918  0.0045  0.7437  0.0232
 2654TIP3    H132157   6.570   5.570  17.868 -0.2689  0.4388  0.6339
 2654TIP3    H232158   6.665   5.538  17.982  0.3285  1.1351  0.3399
 2655TIP3   OH232159   7.545   3.612  17.453  0.0983  0.1386  0.8543
 2655TIP3    H132160   7.520   3.640  17.365  0.1664  0.1943  0.8525
 2655TIP3    H232161   7.628   3.657  17.469  0.6585 -0.7365  0.5078
 2656TIP3   OH232162   6.521   5.939  16.949  0.0295  0.4765 -0.5190
 2656TIP3    H132163   6.530   6.034  16.954 -0.2841  0.5090 -0.5583
 2656TIP3    H232164   6.520   5.911  17.041  1.4257  0.3776 -0.5106
 2657TIP3   OH232165   2.950   1.393  16.317 -0.2802 -0.3596 -0.5209
 2657TIP3    H132166   2.975   1.347  16.397 -1.2340  2.5473  1.6698
 2657TIP3    H232167   2.855   1.379  16.311 -0.7276  1.7010  0.6206
 2658TIP3   OH232168   0.731   1.289  17.638  0.1052  0.0246  0.2675
 2658TIP3    H132169   0.809   1.339  17.658  0.1660  1.2171 -2.4861
 2658TIP3    H232170   0.660   1.334  17.684  0.6330  0.6186  0.4995
 2659TIP3   OH232171   2.350   1.232  18.329 -0.3185  0.1259  0.1869
 2659TIP3    H132172   2.285   1.275  18.273  2.2218  3.4510 -0.4738
 2659TIP3    H232173   2.318   1.247  18.418 -2.0890 -1.2844 -0.1491
 2660TIP3   OH232174   3.444   2.473  17.406  0.4421 -0.2568  0.4695
 2660TIP3    H132175   3.484   2.531  17.341 -1.9080 -3.1055 -4.0710
 2660TIP3    H232176   3.513   2.410  17.428  0.8458 -0.2710 -0.7422
 2661TIP3   OH232177   6.331   4.368  18.433 -0.0949 -0.3861  0.0751
 2661TIP3    H132178   6.292   4.399  18.515 -1.4958  0.3185 -0.8062
 2661TIP3    H232179   6.363   4.447  18.390  0.7416 -0.7667 -0.0200
 2662TIP3   OH232180   6.391   3.827  16.976  0.0497  0.8283  0.5050
 2662TIP3    H132181   6.307   3.840  17.019 -1.3299  0.2195 -1.8463
 2662TIP3    H232182   6.441   3.772  17.037 -2.2354 -1.0046  0.8589
 2663TIP3   OH232183   4.544   5.260  17.020  0.0587 -0.5491 -0.1468
 2663TIP3    H132184   4.613   5.206  17.057 -1.3281 -2.5834 -0.3312
 2663TIP3    H232185   4.590   5.326  16.968  1.8727 -0.7413  1.1373
 2664TIP3   OH232186   5.643   6.500  17.658 -0.2196  0.4744  0.2687
 2664TIP3    H132187   5.672   6.466  17.742 -0.2387  0.0011  0.0895
 2664TIP3    H232188   5.712   6.561  17.631  1.0128 -1.1672 -0.4849
 2665TIP3   OH232189   3.991   3.484  17.949 -0.1162  0.0473  0.2022
 2665TIP3    H132190   4.086   3.471  17.952  0.0823  1.1879 -0.4113
 2665TIP3    H232191   3.955   3.399  17.925  0.7011 -0.5371  0.9638
 2666TIP3   OH232192   2.601   3.646  18.237 -0.0408 -0.3075 -0.2336
 2666TIP3    H132193   2.578   3.579  18.173 -1.2342  1.0359 -1.2731
 2666TIP3    H232194   2.642   3.716  18.186 -0.4871  0.5472  0.5479
 2667TIP3   OH232195   0.666   6.644  16.292 -0.2907 -0.4331  0.4746
 2667TIP3    H132196   0.573   6.652  16.310 -0.6521 -0.9025 -1.0086
 2667TIP3    H232197   0.692   6.561  16.331 -0.8764 -1.0716 -0.4596
 2668TIP3   OH232198   0.427   1.847  17.984 -0.3726 -0.1138 -0.3668
 2668TIP3    H132199   0.371   1.823  17.910 -0.7341  0.5241 -0.3042
 2668TIP3    H232200   0.479   1.920  17.952 -0.8831  0.4934  0.1571
 2669TIP3   OH232201   0.617   2.671  15.959 -0.2425 -0.3206 -0.2034
 2669TIP3    H132202   0.546   2.712  16.009 -0.1894  0.1413 -0.5029
 2669TIP3    H232203   0.675   2.744  15.935  0.4743 -0.7223  0.2630
 2670TIP3   OH232204   1.681   3.305  16.611 -0.2819  0.5026  0.2953
 2670TIP3    H132205   1.748   3.247  16.648 -0.1572  1.7172  2.1289
 2670TIP3    H232206   1.661   3.267  16.526  1.9146 -0.5507  0.1649
 2671TIP3   OH232207   3.516   3.853  17.812  0.2918  0.7137 -0.2516
 2671TIP3    H132208   3.598   3.883  17.774  1.0563 -0.7701  0.1361
 2671TIP3    H232209   3.500   3.768  17.770 -1.1081  1.0237 -0.4013
 2672TIP3   OH232210   5.311   2.424  17.921  0.4385 -0.1994  0.2475
 2672TIP3    H132211   5.280   2.419  17.830  1.8159 -1.4938 -0.1773
 2672TIP3    H232212   5.234   2.455  17.970 -0.4735  0.0591 -1.2731
 2673TIP3   OH232213   3.817   6.204  16.537 -0.4302 -0.4888  0.2685
 2673TIP3    H132214   3.797   6.268  16.605  3.7395  1.3502  0.0685
 2673TIP3    H232215   3.749   6.217  16.471 -0.2399  3.3124  0.6073
 2674TIP3   OH232216   1.173   0.987  17.333  0.5570 -0.2755 -0.0703
 2674TIP3    H132217   1.197   0.929  17.261 -1.4168 -2.2590  0.7317
 2674TIP3    H232218   1.177   0.931  17.411 -3.7597 -0.1796  0.4611
 2675TIP3   OH232219   4.108   2.760  15.993 -0.5082  0.0697 -0.6439
 2675TIP3    H132220   4.045   2.689  15.979 -0.4097 -0.0639 -0.4184
 2675TIP3    H232221   4.191   2.715  16.007 -0.2481  0.2648 -1.5354
 2676TIP3   OH232222   4.483   1.041  17.771  0.6731  0.0651  0.4787
 2676TIP3    H132223   4.568   1.055  17.730  1.8460  0.0294  2.7684
 2676TIP3    H232224   4.499   1.049  17.865 -2.1291  1.5485  0.9686
 2677TIP3   OH232225   1.184   5.516  17.769  0.5871  0.4233 -0.2171
 2677TIP3    H132226   1.178   5.425  17.800  2.4658  0.1697 -0.4378
 2677TIP3    H232227   1.276   5.526  17.745 -0.0065  1.7962 -2.0855
 2678TIP3   OH232228   1.633   4.149  17.939 -0.2181  0.2027  0.2349
 2678TIP3    H132229   1.675   4.231  17.915 -0.5704  0.0064 -1.1867
 2678TIP3    H232230   1.687   4.113  18.008  0.2831  1.3396  0.4564
 2679TIP3   OH232231   3.536   1.810  16.566 -0.3502 -0.1451  0.3053
 2679TIP3    H132232   3.491   1.769  16.492 -1.0413 -0.3797  0.8381
 2679TIP3    H232233   3.570   1.892  16.532 -0.4680 -0.3555 -0.3253
 2680TIP3   OH232234   7.640   4.479  17.339  0.1232  0.0652  0.3311
 2680TIP3    H132235   7.641   4.442  17.427 -0.6852  2.0398  1.2515
 2680TIP3    H232236   7.667   4.408  17.282  0.7847 -1.2452  2.1823
 2681TIP3   OH232237   5.067   4.415  17.017 -0.1077  0.4739  0.1721
 2681TIP3    H132238   5.076   4.509  17.035  0.9511  0.2462  0.9122
 2681TIP3    H232239   5.040   4.411  16.925 -0.3984  1.5031  0.1944
 2682TIP3   OH232240   1.737   1.528  16.796 -0.0970 -0.2908  0.3167
 2682TIP3    H132241   1.737   1.433  16.800 -1.3360 -0.7468 -4.4631
 2682TIP3    H232242   1.822   1.551  16.757  0.4525  0.6754  2.0015
 2683TIP3   OH232243   0.527   3.185  16.563 -0.5704  0.0592  0.0730
 2683TIP3    H132244   0.479   3.236  16.498 -0.3044 -0.9095 -0.9130
 2683TIP3    H232245   0.472   3.189  16.642 -2.7547 -1.6722 -1.2244
 2684TIP3   OH232246   6.748   5.240  17.947 -0.3342  0.6194  0.9070
 2684TIP3    H132247   6.722   5.226  17.856 -0.0034  2.2655  0.5213
 2684TIP3    H232248   6.803   5.164  17.968 -0.8903 -0.0810 -0.0576
 2685TIP3   OH232249   5.313   1.912  16.951  0.1430  0.0513  0.1838
 2685TIP3    H132250   5.385   1.865  16.993  0.7807  0.4456 -0.4446
 2685TIP3    H232251   5.277   1.968  17.020  0.8461  0.3073  0.3551
 2686TIP3   OH232252   6.971   5.086  18.044 -0.2535  0.1672  0.2406
 2686TIP3    H132253   6.927   5.109  18.126 -0.1862 -0.5739  0.4927
 2686TIP3    H232254   6.983   4.992  18.049 -1.9883 -0.2048 -1.5091
 2687TIP3   OH232255   5.878   5.889  17.205  0.0250 -0.1541 -0.4226
 2687TIP3    H132256   5.910   5.864  17.292 -1.2488 -0.0468  0.1062
 2687TIP3    H232257   5.890   5.811  17.151  0.4879 -0.3421 -0.0500
 2688TIP3   OH232258   5.319   2.010  18.085 -0.2425  0.3485 -0.4116
 2688TIP3    H132259   5.237   2.047  18.052 -1.3341  0.1643  1.8815
 2688TIP3    H232260   5.305   1.916  18.085 -0.1745  0.3346  0.3042
 2689TIP3   OH232261   6.639   3.946  17.895  0.9167  0.2404  0.3034
 2689TIP3    H132262   6.633   3.925  17.802 -0.3880  1.4184  0.0927
 2689TIP3    H232263   6.721   3.994  17.904  1.8563 -1.2275  0.0826
 2690TIP3   OH232264   4.552   0.338  17.061  0.4273  0.4387  0.1847
 2690TIP3    H132265   4.501   0.418  17.047  1.2049  0.8779 -0.1997
 2690TIP3    H232266   4.600   0.326  16.979 -0.1469 -0.7752  0.0029
 2691TIP3   OH232267   6.677   6.043  18.538  0.0077 -0.5522  0.2720
 2691TIP3    H132268   6.722   5.974  18.488 -0.7325  0.3541 -1.7449
 2691TIP3    H232269   6.592   6.004  18.559  0.7217 -1.3337  1.8472
 2692TIP3   OH232270   7.626   4.251  18.940 -0.0998  0.0364 -0.3839
 2692TIP3    H132271   7.549   4.196  18.922 -0.6979  1.0160 -0.9058
 2692TIP3    H232272   7.675   4.202  19.007 -1.0164 -0.7525 -0.2624
 2693TIP3   OH232273   4.693   1.680  17.173 -0.5724  0.1266  0.0752
 2693TIP3    H132274   4.683   1.646  17.084 -0.5927 -1.5071  0.6733
 2693TIP3    H232275   4.778   1.725  17.172 -0.2757 -0.4299 -0.6046
 2694TIP3   OH232276   2.351   1.226  17.505 -0.1109 -0.1698  0.1703
 2694TIP3    H132277   2.264   1.186  17.500 -0.0387 -0.1544 -1.9896
 2694TIP3    H232278   2.350   1.296  17.440  1.5386 -0.2240  0.0349
 2695TIP3   OH232279   3.153   3.765  17.934 -0.0069 -0.0067 -0.2987
 2695TIP3    H132280   3.067   3.765  17.977  0.5901 -0.2866  0.9118
 2695TIP3    H232281   3.198   3.690  17.972  0.6823 -0.0316 -1.1443
 2696TIP3   OH232282   6.653   1.636  16.961  0.2298  0.2801 -0.0281
 2696TIP3    H132283   6.640   1.643  17.056 -0.5054  2.2874 -0.2409
 2696TIP3    H232284   6.727   1.576  16.952  0.3718  0.1181  1.8179
 2697TIP3   OH232285   4.049   1.208  16.458 -0.1542  0.4144 -0.6548
 2697TIP3    H132286   4.040   1.114  16.472  2.3290  0.1129 -0.5539
 2697TIP3    H232287   4.042   1.247  16.545 -1.8310  0.4224 -0.7739
 2698TIP3   OH232288   2.164   4.358  17.663  0.1995 -0.4018  0.3799
 2698TIP3    H132289   2.227   4.421  17.628 -0.1883  1.3350  2.5882
 2698TIP3    H232290   2.094   4.355  17.597  1.4584 -0.5980 -1.0055
 2699TIP3   OH232291   6.566   4.115  17.653 -0.2570 -0.1219  0.8915
 2699TIP3    H132292   6.591   4.205  17.673  1.3341 -0.0188 -1.2256
 2699TIP3    H232293   6.649   4.068  17.648 -0.9576 -1.3315  0.3899
 2700TIP3   OH232294   5.294   2.843  18.670  0.1110  0.0711 -0.6972
 2700TIP3    H132295   5.290   2.784  18.745  0.7236  1.2490  0.2903
 2700TIP3    H232296   5.386   2.846  18.647  0.1054  0.7845 -0.6290
 2701TIP3   OH232297   2.038   2.880  17.349 -0.0362  0.5509 -0.2519
 2701TIP3    H132298   2.128   2.911  17.365  0.3600 -1.2107  1.3888
 2701TIP3    H232299   1.985   2.925  17.415 -0.3821  1.5492 -1.1858
 2702TIP3   OH232300   0.130   5.166  18.579 -0.3130  0.2693  0.8799
 2702TIP3    H132301   0.079   5.115  18.641  0.6217  0.5985  1.9528
 2702TIP3    H232302   0.219   5.130  18.584  0.0041  0.9615  0.4967
 2703TIP3   OH232303   1.288   5.719  17.526 -0.0652  0.4477 -0.1654
 2703TIP3    H132304   1.343   5.677  17.592 -1.0398 -0.9666 -0.2075
 2703TIP3    H232305   1.231   5.777  17.577 -1.9912 -1.8898  0.5610
 2704TIP3   OH232306   4.146   1.415  18.111 -0.2774 -0.2172  0.0864
 2704TIP3    H132307   4.168   1.492  18.163  1.4519 -1.6231  1.5615
 2704TIP3    H232308   4.082   1.368  18.164 -0.3906 -0.4195 -0.2247
 2705TIP3   OH232309   2.278   6.216  18.547 -0.1548 -0.4273  0.3261
 2705TIP3    H132310   2.342   6.265  18.495 -2.3485  0.8736 -1.3549
 2705TIP3    H232311   2.253   6.143  18.490 -2.2720  0.7689 -0.4139
 2706TIP3   OH232312   7.389   6.988  17.237 -0.2654 -0.0945 -0.3302
 2706TIP3    H132313   7.330   7.022  17.305  0.1371  0.2906 -0.1721
 2706TIP3    H232314   7.439   6.920  17.282  0.0104  0.1696 -0.2356
 2707TIP3   OH232315   5.203   3.208  18.308  0.3077 -0.2736  0.1066
 2707TIP3    H132316   5.161   3.171  18.386  0.9529  0.3493  0.7603
 2707TIP3    H232317   5.193   3.139  18.242 -1.8604 -0.1105  0.1702
 2708TIP3   OH232318   4.265   3.882  16.663 -0.3771  0.2973  0.2740
 2708TIP3    H132319   4.188   3.906  16.715 -0.2419  0.7071  0.2850
 2708TIP3    H232320   4.269   3.948  16.594  0.1276  0.4308  0.4345
 2709TIP3   OH232321   4.059   1.473  17.869 -0.2044 -0.4384 -0.0055
 2709TIP3    H132322   4.100   1.441  17.950 -2.1314 -2.7075  0.1969
 2709TIP3    H232323   3.976   1.511  17.899 -0.5060 -0.4369 -0.8368
 2710TIP3   OH232324   3.075   5.670  18.251  0.4888  0.5539 -0.0067
 2710TIP3    H132325   3.101   5.705  18.336  0.6167  0.1426  0.1258
 2710TIP3    H232326   3.125   5.722  18.187  1.6909 -0.2506  0.2438
 2711TIP3   OH232327   0.187   7.005  17.416  0.1892 -0.1736 -0.3527
 2711TIP3    H132328   0.251   7.066  17.452  0.0996 -1.1080  1.5346
 2711TIP3    H232329   0.216   6.990  17.326  1.2253  1.2556 -0.2865
 2712TIP3   OH232330   0.544   5.916  16.715  0.5519  0.2688 -0.0426
 2712TIP3    H132331   0.540   5.920  16.810  0.6907  1.3886 -0.0619
 2712TIP3    H232332   0.476   5.854  16.690 -2.9115  3.4377  0.5903
 2713TIP3   OH232333   4.881   5.646  17.093  0.0124  0.0743 -0.1459
 2713TIP3    H132334   4.936   5.720  17.114  1.5351 -1.1026  0.1812
 2713TIP3    H232335   4.845   5.666  17.007 -0.1588  1.4722  0.2269
 2714TIP3   OH232336   5.055   6.459  17.379 -0.0143  0.5818  0.5228
 2714TIP3    H132337   5.138   6.500  17.356  0.5852  0.1839  1.9039
 2714TIP3    H232338   5.077   6.369  17.401 -0.9163  0.2730  0.2039
 2715TIP3   OH232339   1.762   6.719  17.831  0.3509 -0.2371 -0.1634
 2715TIP3    H132340   1.820   6.737  17.757  1.3253  0.5824  0.7668
 2715TIP3    H232341   1.781   6.628  17.855  0.4113 -0.3352 -0.5697
 2716TIP3   OH232342   0.332   0.905  17.757  0.0424 -0.0717  0.0694
 2716TIP3    H132343   0.371   0.844  17.695  0.1707 -0.0168  0.0979
 2716TIP3    H232344   0.290   0.850  17.823 -1.4594 -0.1492 -0.9086
 2717TIP3   OH232345   7.511   1.909  17.378 -0.1495 -0.3811  0.2553
 2717TIP3    H132346   7.509   1.978  17.445 -0.8777 -0.0983 -0.0374
 2717TIP3    H232347   7.600   1.876  17.380  0.3247  0.8338  0.1461
 2718TIP3   OH232348   3.011   6.953  16.472 -0.1286 -0.3162  0.0403
 2718TIP3    H132349   2.961   7.026  16.434  1.2086  1.9855  2.3596
 2718TIP3    H232350   3.077   6.932  16.406  0.7114  2.0184  0.0246
 2719TIP3   OH232351   6.168   4.493  17.631  0.8468  0.1869 -0.3168
 2719TIP3    H132352   6.203   4.454  17.551  2.2896  0.7410 -0.0003
 2719TIP3    H232353   6.242   4.492  17.692 -0.6098 -1.5530  1.5387
 2720TIP3   OH232354   1.769   6.698  17.398 -0.6960  0.6619  0.1514
 2720TIP3    H132355   1.792   6.634  17.330 -1.1364 -0.9377  1.4500
 2720TIP3    H232356   1.821   6.671  17.474 -1.6383  1.2397  1.0183
 2721TIP3   OH232357   1.994   0.845  17.517  0.5266  0.7119 -0.8497
 2721TIP3    H132358   2.019   0.754  17.501 -3.1028 -0.9678  1.6070
 2721TIP3    H232359   2.076   0.888  17.544  2.1573 -2.1548 -0.8174
 2722TIP3   OH232360   2.364   2.529  17.098  0.0863 -0.2920  0.0928
 2722TIP3    H132361   2.457   2.545  17.082 -0.3859  2.3046 -0.4090
 2722TIP3    H232362   2.337   2.472  17.026  1.4010 -1.7864  0.6997
 2723TIP3   OH232363   5.125   2.188  16.705 -0.7378  0.0094  0.7343
 2723TIP3    H132364   5.215   2.154  16.711 -0.8395 -0.0580  2.6690
 2723TIP3    H232365   5.070   2.110  16.698 -0.8181 -0.1926  2.8804
 2724TIP3   OH232366   2.578   5.378  16.484 -0.1888 -0.0242 -0.4587
 2724TIP3    H132367   2.484   5.394  16.478 -0.1079  1.0926  0.7474
 2724TIP3    H232368   2.618   5.448  16.433 -0.0006  0.0471 -0.2184
 2725TIP3   OH232369   6.253   7.664  17.792  0.5987 -0.2831 -0.5898
 2725TIP3    H132370   6.299   7.580  17.801  1.0307  0.0024 -0.1381
 2725TIP3    H232371   6.215   7.680  17.878  1.1283  0.3401 -0.4640
 2726TIP3   OH232372   6.162   3.230  16.576  0.2775 -0.4483  0.4501
 2726TIP3    H132373   6.083   3.281  16.598 -0.3915 -1.7100  1.0814
 2726TIP3    H232374   6.147   3.144  16.615  1.6742 -0.9400 -0.0266
 2727TIP3   OH232375   2.112   4.514  18.715 -0.3997  0.4335 -0.1163
 2727TIP3    H132376   2.122   4.432  18.763 -1.5742  0.4305  0.1732
 2727TIP3    H232377   2.200   4.550  18.708  0.2545 -1.2582 -0.9871
 2728TIP3   OH232378   6.383   3.556  18.858  0.7803 -0.4064  0.0382
 2728TIP3    H132379   6.287   3.551  18.855  0.8061 -0.7913 -0.3790
 2728TIP3    H232380   6.402   3.650  18.866  0.3630 -0.3643  0.5870
 2729TIP3   OH232381   4.557   4.118  17.628 -0.1700  0.5103  0.2798
 2729TIP3    H132382   4.617   4.059  17.674  0.7501  0.2419 -1.1964
 2729TIP3    H232383   4.589   4.118  17.538  0.1195  3.5902  0.2911
 2730TIP3   OH232384   4.328   4.342  16.431 -0.1204 -0.1992  0.1968
 2730TIP3    H132385   4.258   4.382  16.483  0.8742 -1.5975  2.7634
 2730TIP3    H232386   4.297   4.252  16.415 -0.1522  0.0381 -1.2177
 2731TIP3   OH232387   3.578   3.597  16.812  0.5107 -0.1839 -0.0475
 2731TIP3    H132388   3.527   3.668  16.771  3.4680  1.2381 -1.5622
 2731TIP3    H232389   3.555   3.603  16.905 -1.3317  0.9964 -0.5162
 2732TIP3   OH232390   4.063   5.958  18.368  0.2242  0.2591 -0.2766
 2732TIP3    H132391   4.062   5.915  18.454  1.2104  1.6987  0.5131
 2732TIP3    H232392   3.978   5.939  18.330  0.3421 -1.7206  0.3405
 2733TIP3   OH232393   0.160   1.063  16.950  0.0983  0.4691  0.2513
 2733TIP3    H132394   0.133   1.150  16.921 -2.6295 -0.1151  0.6944
 2733TIP3    H232395   0.164   1.011  16.869  0.8637  0.8002  0.0765
 2734TIP3   OH232396   6.695   3.190  18.288 -0.0250  0.1464 -0.0604
 2734TIP3    H132397   6.698   3.285  18.300  0.2800  0.3281 -1.4394
 2734TIP3    H232398   6.735   3.154  18.368  0.9812  1.2201 -0.0569
 2735TIP3   OH232399   0.901   1.406  16.963  0.0594  0.3680 -0.5121
 2735TIP3    H132400   0.809   1.420  16.984 -0.2704  0.5751 -1.9479
 2735TIP3    H232401   0.949   1.451  17.032 -0.9380  1.9389 -0.7998
 2736TIP3   OH232402   4.398   5.317  19.017  0.0193 -0.3842 -0.5223
 2736TIP3    H132403   4.312   5.294  18.983  0.9881 -2.2903 -1.8009
 2736TIP3    H232404   4.416   5.251  19.084  0.3362  0.2477  0.0295
 2737TIP3   OH232405   4.633   4.157  18.141  0.1936  0.2091  0.0667
 2737TIP3    H132406   4.721   4.182  18.172  0.8016 -1.8880  0.2023
 2737TIP3    H232407   4.642   4.064  18.118 -1.9533  0.0054 -0.0930
 2738TIP3   OH232408   5.635   5.708  16.971 -0.0068 -0.5197  0.4972
 2738TIP3    H132409   5.578   5.648  17.018  1.6091 -1.7839  0.9022
 2738TIP3    H232410   5.612   5.696  16.879  0.0421 -1.4850  0.6064
 2739TIP3   OH232411   4.449   0.539  18.629 -0.2920 -0.1787  0.3655
 2739TIP3    H132412   4.415   0.497  18.708 -0.9980 -0.8471 -0.2719
 2739TIP3    H232413   4.403   0.622  18.625 -1.9520 -1.0839 -0.5020
 2740TIP3   OH232414   3.470   4.912  17.473  0.0305  0.1050 -0.4584
 2740TIP3    H132415   3.458   4.998  17.514  0.7547 -0.1725  0.3886
 2740TIP3    H232416   3.446   4.849  17.542  0.2512 -0.3687 -0.8093
 2741TIP3   OH232417   2.406   5.221  18.283  0.1522  0.5784 -0.4040
 2741TIP3    H132418   2.313   5.223  18.303 -0.3057  0.0973 -2.2431
 2741TIP3    H232419   2.426   5.127  18.273  0.4532  0.7438 -1.5120
 2742TIP3   OH232420   6.590   6.838  15.851 -0.8218 -0.0741 -0.3028
 2742TIP3    H132421   6.557   6.775  15.787  0.0126 -0.1997 -0.6242
 2742TIP3    H232422   6.518   6.900  15.864 -0.9190  0.0846 -1.5308
 2743TIP3   OH232423   5.389   6.840  15.891 -0.5599 -0.3479 -0.5429
 2743TIP3    H132424   5.338   6.919  15.909 -0.5580 -0.4622 -0.0032
 2743TIP3    H232425   5.480   6.869  15.890 -0.6157 -0.1825 -1.2840
 2744TIP3   OH232426   1.197   3.877  17.204  0.1741 -0.1637  0.4177
 2744TIP3    H132427   1.136   3.807  17.179  0.5845 -0.0418 -0.9844
 2744TIP3    H232428   1.158   3.957  17.168  1.6820 -0.2275 -1.5028
 2745TIP3   OH232429   2.949   5.706  17.091  0.0186  0.1494 -0.2333
 2745TIP3    H132430   2.971   5.798  17.109  0.0354  0.3532 -1.2420
 2745TIP3    H232431   2.853   5.705  17.087  0.0491  0.3368 -1.2475
 2746TIP3   OH232432   2.148   6.152  16.010 -0.0353 -0.1638 -0.1509
 2746TIP3    H132433   2.174   6.235  15.970  2.2548 -0.7259  0.0334
 2746TIP3    H232434   2.177   6.160  16.101 -1.8842 -0.3153  0.4869
 2747TIP3   OH232435   3.939   2.610  16.224 -0.0180 -0.2157 -0.2670
 2747TIP3    H132436   3.898   2.588  16.141  1.0821 -1.7056 -0.4504
 2747TIP3    H232437   4.004   2.677  16.201 -2.7205  2.7741  0.1498
 2748TIP3   OH232438   2.085   3.021  17.942 -0.3242 -0.1478 -0.0763
 2748TIP3    H132439   2.069   2.932  17.913  0.1487 -0.4253  0.5015
 2748TIP3    H232440   2.001   3.050  17.979 -0.5257 -0.2883 -0.4212
 2749TIP3   OH232441   2.143   7.241  17.524  0.0149 -0.2252  0.2045
 2749TIP3    H132442   2.177   7.330  17.521 -0.1676 -0.1628 -0.0271
 2749TIP3    H232443   2.129   7.224  17.617  2.0396 -0.7780  0.4401
 2750TIP3   OH232444   4.959   1.776  17.221  0.2141  0.4426  0.5916
 2750TIP3    H132445   4.949   1.828  17.141 -2.2297 -2.0954 -0.9477
 2750TIP3    H232446   5.041   1.728  17.208 -0.3609 -0.2681 -0.7011
 2751TIP3   OH232447   6.090   4.217  18.361  0.0709 -0.2490  0.2282
 2751TIP3    H132448   6.155   4.278  18.396  0.7551 -1.1501  0.5848
 2751TIP3    H232449   6.050   4.263  18.288  0.8980  0.4423  0.2005
 2752TIP3   OH232450   2.736   4.567  17.248 -0.0638 -0.0267  0.3219
 2752TIP3    H132451   2.723   4.641  17.189 -2.3350 -0.4564  0.1861
 2752TIP3    H232452   2.652   4.559  17.295  0.8557 -1.1893  1.8681
 2753TIP3   OH232453   7.598   4.651  16.822 -0.1122 -0.4541 -0.1774
 2753TIP3    H132454   7.589   4.682  16.732 -0.3054 -0.9667 -0.3442
 2753TIP3    H232455   7.576   4.557  16.817  1.4235 -0.8579  0.1243
 2754TIP3   OH232456   4.835   0.212  18.677  0.6784  0.0355 -0.3113
 2754TIP3    H132457   4.773   0.149  18.641 -0.0591 -0.7282  2.1644
 2754TIP3    H232458   4.920   0.184  18.641  0.3080 -2.1028  0.3273
 2755TIP3   OH232459   4.440   3.460  19.030 -0.3320 -0.4741 -0.0183
 2755TIP3    H132460   4.519   3.502  19.065 -0.4496  1.0698 -1.4905
 2755TIP3    H232461   4.464   3.367  19.024  1.1659 -0.1283  0.1234
 2756TIP3   OH232462   1.316   0.283  18.285  0.2832 -0.1953  0.5664
 2756TIP3    H132463   1.250   0.269  18.217  1.4586 -0.2633 -0.6013
 2756TIP3    H232464   1.269   0.269  18.367 -0.9051 -1.2719 -0.2524
 2757TIP3   OH232465   0.384   4.392  17.725  1.0422  0.2070  0.0929
 2757TIP3    H132466   0.398   4.445  17.646 -0.6767 -1.6406 -1.5432
 2757TIP3    H232467   0.430   4.440  17.794 -0.3232  3.8095 -1.2547
 2758TIP3   OH232468   4.284   7.155  16.958 -0.3421  0.2119  0.7741
 2758TIP3    H132469   4.321   7.079  17.003 -1.2597 -0.7943 -0.0943
 2758TIP3    H232470   4.348   7.177  16.891 -0.4051 -0.2715  0.5532
 2759TIP3   OH232471   2.652   2.475  16.810 -0.0273 -0.0170 -0.7176
 2759TIP3    H132472   2.648   2.468  16.905  2.2213 -0.1879 -0.5800
 2759TIP3    H232473   2.631   2.567  16.792 -0.2661  0.0670 -0.0296
 2760TIP3   OH232474   6.806   5.526  17.296  0.3951  0.2354 -0.8047
 2760TIP3    H132475   6.830   5.463  17.363 -0.1178  1.5332  0.6583
 2760TIP3    H232476   6.790   5.473  17.218 -0.5501 -1.5146  0.4952
 2761TIP3   OH232477   1.754   1.519  17.757 -0.0357  1.0669 -0.1952
 2761TIP3    H132478   1.673   1.482  17.723  0.8412 -0.5708 -0.6442
 2761TIP3    H232479   1.813   1.520  17.681  0.8102  0.8169  0.4398
 2762TIP3   OH232480   3.005   4.463  18.650 -0.2375  0.2325  0.5422
 2762TIP3    H132481   3.078   4.401  18.649 -0.5352 -0.1398 -1.0797
 2762TIP3    H232482   2.928   4.409  18.662 -0.4483  0.3349 -0.2880
 2763TIP3   OH232483   0.342   0.030  17.666  0.5156  0.4438  0.0025
 2763TIP3    H132484   0.423   0.007  17.712  1.0271  0.4196 -0.8705
 2763TIP3    H232485   0.365   0.023  17.573 -0.9045 -1.0377 -0.2892
 2764TIP3   OH232486   3.305   1.475  17.099 -0.0752  0.1766  0.0888
 2764TIP3    H132487   3.266   1.466  17.012  2.2263 -0.9034 -0.9243
 2764TIP3    H232488   3.395   1.505  17.082  1.5008 -3.0687  1.7765
 2765TIP3   OH232489   0.883   2.206  17.334  0.0479 -0.6792 -0.2768
 2765TIP3    H132490   0.865   2.165  17.249 -1.7901 -0.2359 -0.1490
 2765TIP3    H232491   0.844   2.293  17.326  1.7956  0.1956  0.2785
 2766TIP3   OH232492   0.402   6.272  18.757 -0.9885  0.3795  0.1980
 2766TIP3    H132493   0.423   6.228  18.839 -0.3254  1.2273  0.4986
 2766TIP3    H232494   0.354   6.207  18.706  0.0105 -0.6985  0.6071
 2767TIP3   OH232495   1.874   2.564  18.150  0.5922  0.1242  0.0253
 2767TIP3    H132496   1.792   2.599  18.116  0.6306  1.1523  0.9274
 2767TIP3    H232497   1.924   2.641  18.176  1.9127 -0.4807 -0.6303
 2768TIP3   OH232498   0.435   5.093  17.185 -0.6144 -0.3886  0.5542
 2768TIP3    H132499   0.411   5.172  17.234 -1.5343  0.4074 -1.0828
 2768TIP3    H232500   0.466   5.032  17.251  0.8582  1.5974  1.8070
 2769TIP3   OH232501   2.062   1.035  16.671 -0.4930 -0.3148 -0.2792
 2769TIP3    H132502   2.022   0.949  16.679 -1.3529  0.0786 -0.2648
 2769TIP3    H232503   2.029   1.069  16.588  1.3217 -0.7402 -1.2299
 2770TIP3   OH232504   3.342   1.038  18.642  0.0461  0.0714  0.2058
 2770TIP3    H132505   3.287   0.966  18.674  0.7401 -0.1091  1.0272
 2770TIP3    H232506   3.305   1.059  18.556 -0.7121 -0.6787  0.3242
 2771TIP3   OH232507   2.275   6.624  17.755 -0.2966  0.0363  0.6694
 2771TIP3    H132508   2.253   6.565  17.683 -3.5217 -1.2843  2.5153
 2771TIP3    H232509   2.242   6.579  17.833  1.4705  2.1804  2.7957
 2772TIP3   OH232510   4.512   1.604  18.040 -0.4346 -0.3099  0.2311
 2772TIP3    H132511   4.485   1.682  17.990 -0.2856  0.7410  1.7256
 2772TIP3    H232512   4.480   1.531  17.988 -0.3867  0.7267 -1.3502
 2773TIP3   OH232513   7.303   4.377  16.973 -0.1800  0.8055 -0.0717
 2773TIP3    H132514   7.246   4.358  16.899  0.1273 -0.1057 -0.0858
 2773TIP3    H232515   7.318   4.472  16.969 -2.2494  1.1933  0.3370
 2774TIP3   OH232516   2.911   1.630  18.345  0.0822 -0.3341 -0.0372
 2774TIP3    H132517   2.836   1.626  18.284  1.2116 -0.3726 -1.4802
 2774TIP3    H232518   2.972   1.565  18.311  0.1481 -1.4273  2.0427
 2775TIP3   OH232519   6.852   1.753  17.399 -0.8966  0.1334  0.1563
 2775TIP3    H132520   6.894   1.793  17.475 -0.1795  0.5497 -0.4390
 2775TIP3    H232521   6.816   1.827  17.350  1.3322  0.2552 -1.4959
 2776TIP3   OH232522   5.954   0.582  17.763  0.4261  0.1833 -0.0064
 2776TIP3    H132523   5.941   0.499  17.717  1.3079 -0.5362  0.9850
 2776TIP3    H232524   5.865   0.612  17.783  0.0864 -1.1656  0.6917
 2777TIP3   OH232525   2.131   7.665  18.912  0.1939  0.4055 -0.2740
 2777TIP3    H132526   2.148   7.745  18.861  0.1208  0.0961 -0.7923
 2777TIP3    H232527   2.035   7.658  18.914  0.2150 -0.2345 -1.1349
 2778TIP3   OH232528   6.968   6.208  18.379  0.9899  0.1999  0.0232
 2778TIP3    H132529   6.923   6.234  18.299 -2.4621 -1.1042  1.3716
 2778TIP3    H232530   6.980   6.114  18.370  0.3330 -0.0029  1.1030
 2779TIP3   OH232531   0.862   6.730  17.261 -0.3887  0.3011 -0.6051
 2779TIP3    H132532   0.786   6.789  17.262  0.2026  1.0928 -1.1953
 2779TIP3    H232533   0.854   6.682  17.178 -0.3287  0.2720 -0.5928
 2780TIP3   OH232534   7.167   1.095  18.425  0.7800 -0.1767  0.8467
 2780TIP3    H132535   7.076   1.088  18.455  1.3820  0.2032  2.9000
 2780TIP3    H232536   7.169   1.044  18.344 -1.7758  1.6931 -0.5573
 2781TIP3   OH232537   2.913   6.540  16.842  0.1730  0.2114  0.1845
 2781TIP3    H132538   2.881   6.518  16.755  1.4992 -0.6569 -0.1171
 2781TIP3    H232539   2.870   6.476  16.900 -0.2745  0.4300  0.0990
 2782TIP3   OH232540   6.411   1.473  16.495  0.3862 -0.1275 -1.0081
 2782TIP3    H132541   6.336   1.441  16.445  0.8105  0.5112 -2.0898
 2782TIP3    H232542   6.423   1.563  16.465  0.8299  0.1831  0.0577
 2783TIP3   OH232543   2.104   0.152  17.236  0.0220 -0.0130  0.0491
 2783TIP3    H132544   2.011   0.168  17.217  0.1300  0.5981  0.0252
 2783TIP3    H232545   2.115   0.058  17.222 -0.0717  0.2616 -2.1921
 2784TIP3   OH232546   3.635   0.983  16.776  0.6110  0.3521  0.1455
 2784TIP3    H132547   3.720   0.968  16.736  0.3617 -1.4609  0.2137
 2784TIP3    H232548   3.655   1.003  16.868  0.9938  1.0792 -0.0855
 2785TIP3   OH232549   1.623   3.542  16.720 -0.2638 -0.6297  0.4037
 2785TIP3    H132550   1.641   3.454  16.688  2.4631 -0.7794  2.0581
 2785TIP3    H232551   1.620   3.533  16.815 -1.1009  0.8908  0.5511
 2786TIP3   OH232552   1.415   2.872  17.725  0.0007  0.7188 -0.1812
 2786TIP3    H132553   1.495   2.820  17.727 -0.6806 -0.3500 -0.1120
 2786TIP3    H232554   1.344   2.809  17.741 -0.8168  1.7289  0.3550
 2787TIP3   OH232555   5.261   0.686  17.021  0.2536 -0.7900 -0.0375
 2787TIP3    H132556   5.222   0.640  17.096 -1.2003 -1.0510 -0.9140
 2787TIP3    H232557   5.219   0.646  16.945  0.8469  0.2627 -0.9359
 2788TIP3   OH232558   2.879   5.397  17.342  0.0886  0.5950 -0.3119
 2788TIP3    H132559   2.971   5.415  17.324  0.3346 -0.9651 -0.8031
 2788TIP3    H232560   2.835   5.481  17.330  1.1916  0.9891 -1.8881
 2789TIP3   OH232561   5.842   3.071  18.380 -0.9852  0.1170  0.0444
 2789TIP3    H132562   5.822   3.147  18.325  0.6834  1.0879  0.7292
 2789TIP3    H232563   5.823   3.100  18.469 -0.9805 -0.5121  0.2558
 2790TIP3   OH232564   0.689   1.716  17.706  0.4341  0.1403 -0.0563
 2790TIP3    H132565   0.646   1.801  17.700 -0.8938 -0.3998  1.3135
 2790TIP3    H232566   0.755   1.727  17.775  0.2084  0.0411  0.1756
 2791TIP3   OH232567   6.069   3.468  17.139  0.0829  0.4159 -0.3166
 2791TIP3    H132568   5.994   3.502  17.188 -0.3503  0.4871 -1.0169
 2791TIP3    H232569   6.145   3.484  17.196 -0.4735  0.0311  0.5396
 2792TIP3   OH232570   3.213   4.110  18.212  0.3406  0.1590  0.4265
 2792TIP3    H132571   3.264   4.184  18.247 -0.2044  1.1154 -0.7441
 2792TIP3    H232572   3.271   4.069  18.148  1.5928 -1.9948  2.7462
 2793TIP3   OH232573   5.180   3.031  17.557 -0.2671 -0.3483  0.3396
 2793TIP3    H132574   5.125   3.103  17.525  0.6756  0.3817  0.3372
 2793TIP3    H232575   5.154   2.956  17.504 -2.1671 -0.3551  1.1814
 2794TIP3   OH232576   1.049   3.505  18.601  0.1037 -0.0812  0.3322
 2794TIP3    H132577   1.053   3.559  18.522 -3.1761  0.3607  0.3263
 2794TIP3    H232578   1.073   3.565  18.672 -0.3606  0.5125 -0.0003
 2795TIP3   OH232579   3.827   4.156  18.870  0.2471 -0.3763  0.3363
 2795TIP3    H132580   3.911   4.171  18.828 -0.0593 -0.4443 -0.3224
 2795TIP3    H232581   3.807   4.064  18.850  0.2688 -0.5196  0.9520
 2796TIP3   OH232582   6.039   1.678  17.004  0.3680  0.2010  0.9210
 2796TIP3    H132583   6.057   1.599  16.954  1.5049  0.9486  0.0758
 2796TIP3    H232584   6.088   1.747  16.958  1.2078  0.9863  2.8618
 2797TIP3   OH232585   4.552   5.382  18.089  0.5007 -0.0375  1.0760
 2797TIP3    H132586   4.602   5.321  18.144  2.4492  1.9184  1.6033
 2797TIP3    H232587   4.515   5.445  18.151  1.0294  1.0195  0.3488
 2798TIP3   OH232588   5.329   1.976  16.666  0.6834 -0.0627  0.0660
 2798TIP3    H132589   5.422   1.956  16.667  0.7375  0.1776 -0.0119
 2798TIP3    H232590   5.302   1.968  16.758  0.6912 -0.5367  0.0280
 2799TIP3   OH232591   5.390   6.954  18.796  0.1542  0.4536  0.2786
 2799TIP3    H132592   5.441   6.875  18.779  1.5582  1.1029  1.2749
 2799TIP3    H232593   5.318   6.925  18.851 -0.5396 -0.4674 -1.0754
 2800TIP3   OH232594   4.003   2.638  16.697  0.6481  0.4073  0.1145
 2800TIP3    H132595   4.052   2.631  16.779  0.2737  0.7199  0.3630
 2800TIP3    H232596   3.959   2.553  16.688  0.0921  0.6359  0.6164
 2801TIP3   OH232597   3.902   3.238  17.827  0.5754  0.2834  0.3970
 2801TIP3    H132598   3.933   3.193  17.747 -0.9559  0.0517 -0.0898
 2801TIP3    H232599   3.861   3.168  17.879  0.5948  0.6398  0.8925
 2802TIP3   OH232600   1.666   4.428  17.222 -0.4620 -0.2533  0.2785
 2802TIP3    H132601   1.580   4.460  17.195 -0.3515 -0.3200 -0.1513
 2802TIP3    H232602   1.673   4.454  17.314 -0.0188  1.7324 -0.2799
 2803TIP3   OH232603   5.775   7.034  17.765 -0.1632  0.0457 -0.0082
 2803TIP3    H132604   5.762   6.940  17.754  0.3076  0.1228 -1.6343
 2803TIP3    H232605   5.856   7.042  17.815  0.7860 -0.4606 -1.3868
 2804TIP3   OH232606   0.303   6.976  17.168  0.0353 -0.5908  0.4564
 2804TIP3    H132607   0.231   7.000  17.110 -1.0880  0.3408  2.1623
 2804TIP3    H232608   0.368   6.936  17.110 -0.9857  0.3633 -1.4391
 2805TIP3   OH232609   0.637   4.603  18.838 -0.0548  0.5505 -0.0870
 2805TIP3    H132610   0.563   4.546  18.857  0.4113  0.2733  0.9918
 2805TIP3    H232611   0.606   4.691  18.861 -0.0941  0.4562  0.2204
 2806TIP3   OH232612   1.011   4.384  16.743  0.3040 -0.4089 -0.6682
 2806TIP3    H132613   1.078   4.407  16.807  0.4023  0.1382 -0.9578
 2806TIP3    H232614   1.060   4.346  16.669  0.0912 -2.2400  0.0800
 2807TIP3   OH232615   6.935   5.437  18.646 -0.3297  0.0323 -0.2096
 2807TIP3    H132616   6.975   5.465  18.563  2.2137 -1.3736  0.4322
 2807TIP3    H232617   6.920   5.518  18.694 -0.6031  0.7744 -1.4774
 2808TIP3   OH232618   1.527   0.845  18.021  0.0408 -0.2335  0.6350
 2808TIP3    H132619   1.579   0.880  18.094  0.5296 -1.4181  0.8669
 2808TIP3    H232620   1.555   0.754  18.012  1.6898  0.4714 -2.5505
 2809TIP3   OH232621   4.794   4.935  18.135  0.1012  0.0894 -0.0619
 2809TIP3    H132622   4.789   4.956  18.228  0.0497 -0.5056  0.0788
 2809TIP3    H232623   4.873   4.881  18.127 -0.0314 -0.0695 -0.3216
 2810TIP3   OH232624   2.653   3.405  17.903  0.0082 -0.0929 -0.1817
 2810TIP3    H132625   2.690   3.351  17.833 -1.3639 -1.7361  0.3070
 2810TIP3    H232626   2.700   3.377  17.982  0.9538  1.1539 -0.2715
 2811TIP3   OH232627   4.505   1.336  18.575 -0.1730 -0.4942  0.3773
 2811TIP3    H132628   4.574   1.397  18.600 -1.6416  1.5169 -0.1532
 2811TIP3    H232629   4.482   1.363  18.486 -0.5186 -2.2193 -0.0880
 2812TIP3   OH232630   6.735   7.168  17.452 -0.3253 -0.9111  0.3752
 2812TIP3    H132631   6.799   7.118  17.402 -1.4484 -1.1886 -0.8516
 2812TIP3    H232632   6.723   7.249  17.401 -0.0019 -0.2671  1.2864
 2813TIP3   OH232633   0.988   4.577  17.788  0.3599  0.3684  0.2053
 2813TIP3    H132634   0.981   4.595  17.882  0.2184 -1.4889  0.5965
 2813TIP3    H232635   0.956   4.487  17.779  0.6425  0.4191 -1.5914
 2814TIP3   OH232636   4.292   6.876  17.520 -0.2314 -0.0377  0.1341
 2814TIP3    H132637   4.199   6.887  17.498 -0.0641  1.4768  0.0446
 2814TIP3    H232638   4.327   6.965  17.519  0.9374 -0.4463  1.4726
 2815TIP3   OH232639   3.400   1.196  18.397 -0.7631  0.0507  0.0150
 2815TIP3    H132640   3.422   1.249  18.320 -0.1573  0.4566  0.4573
 2815TIP3    H232641   3.442   1.112  18.380 -0.0172  0.3748  0.2221
 2816TIP3   OH232642   0.456   2.526  17.831 -0.6854 -0.2138  0.0987
 2816TIP3    H132643   0.529   2.532  17.893 -0.7189  1.2385  0.0539
 2816TIP3    H232644   0.495   2.553  17.747 -0.9659 -0.7551 -0.2038
 2817TIP3   OH232645   4.715   6.741  17.315  0.0815 -0.1746  0.0633
 2817TIP3    H132646   4.655   6.742  17.240  1.4269  0.6447 -1.0688
 2817TIP3    H232647   4.773   6.667  17.297  0.5477  0.1602  0.1769
 2818TIP3   OH232648   2.138   4.752  18.292  0.1294  0.0855 -0.4451
 2818TIP3    H132649   2.060   4.734  18.345 -0.3849 -0.0885 -1.2377
 2818TIP3    H232650   2.206   4.773  18.355 -0.5252  0.0888  0.2725
 2819TIP3   OH232651   0.921   0.757  17.790  0.5771  0.2148  0.9105
 2819TIP3    H132652   0.915   0.826  17.856  0.2151  1.5482 -0.4780
 2819TIP3    H232653   0.913   0.802  17.706 -0.6254 -1.6026 -0.0302
 2820TIP3   OH232654   0.027   4.963  17.751 -0.4443  0.2517 -0.1216
 2820TIP3    H132655  -0.004   5.042  17.707 -1.7426  0.0156  0.3260
 2820TIP3    H232656   0.026   4.986  17.844 -0.5762 -0.2037 -0.0093
 2821TIP3   OH232657   2.976   5.321  16.279 -0.0928 -0.6250  0.0943
 2821TIP3    H132658   2.905   5.313  16.343 -0.0641 -2.3546 -0.0598
 2821TIP3    H232659   3.014   5.234  16.274  0.3847 -0.3516 -1.7504
 2822TIP3   OH232660   0.176   1.487  17.060  0.5348 -0.0257 -0.0765
 2822TIP3    H132661   0.231   1.470  16.983 -0.8860  1.3790 -1.4809
 2822TIP3    H232662   0.092   1.449  17.037 -0.0934  0.9853  0.4929
 2823TIP3   OH232663   4.581   1.165  17.246  0.1902 -0.4192  0.3420
 2823TIP3    H132664   4.511   1.148  17.309 -0.4832 -1.3422 -0.6122
 2823TIP3    H232665   4.658   1.121  17.282  0.4967  1.1209  1.7141
 2824TIP3   OH232666   3.419   6.339  18.218 -0.2869  0.1717  0.2208
 2824TIP3    H132667   3.325   6.357  18.215 -0.3530 -0.0794  0.6739
 2824TIP3    H232668   3.426   6.245  18.203 -0.2767 -0.2066  2.2194
 2825TIP3   OH232669   5.736   5.220  16.841 -0.5184  0.1439  0.8690
 2825TIP3    H132670   5.761   5.269  16.919  1.3356 -1.5467  1.4170
 2825TIP3    H232671   5.818   5.213  16.791 -0.8575 -1.8662  0.5387
 2826TIP3   OH232672   3.515   0.151  17.597  0.3200 -0.4774  0.0830
 2826TIP3    H132673   3.497   0.071  17.646 -0.8070 -0.8438 -0.9145
 2826TIP3    H232674   3.545   0.121  17.511 -0.0383  0.1660 -0.2712
 2827TIP3   OH232675   6.639   7.457  16.703 -0.5468  0.0983 -0.3948
 2827TIP3    H132676   6.590   7.539  16.692  0.7245  0.8398 -0.6879
 2827TIP3    H232677   6.729   7.485  16.721 -0.6328 -1.1890  2.5335
 2828TIP3   OH232678   3.951   0.061  16.767  0.2689 -0.1992  0.0913
 2828TIP3    H132679   3.866   0.082  16.729  0.0098 -0.1070  0.7011
 2828TIP3    H232680   4.007   0.043  16.692 -0.0967  0.4442 -0.3480
 2829TIP3   OH232681   1.095   1.565  18.050  0.1501 -0.5447  0.0436
 2829TIP3    H132682   1.063   1.479  18.020 -0.9195 -0.6411  1.3405
 2829TIP3    H232683   1.189   1.553  18.059  0.2354 -1.0883 -1.3287
 2830TIP3   OH232684   4.768   6.591  18.110  0.3544  0.4865  0.0008
 2830TIP3    H132685   4.776   6.651  18.184 -0.5413  0.4170  0.1561
 2830TIP3    H232686   4.696   6.626  18.058  0.0328 -0.2752 -0.0786
 2831TIP3   OH232687   2.537   4.204  19.023 -0.4406  0.0740  0.1124
 2831TIP3    H132688   2.600   4.164  18.964 -0.1613 -0.9349  1.0548
 2831TIP3    H232689   2.452   4.166  18.998 -0.2105 -0.9699  0.8460
 2832TIP3   OH232690   3.119   5.998  18.285 -0.2167 -0.0208 -0.1579
 2832TIP3    H132691   3.067   6.044  18.351 -0.0325 -1.3924  1.0011
 2832TIP3    H232692   3.204   5.984  18.327 -0.7424 -2.7470  0.1923
 2833TIP3   OH232693   7.643   1.873  18.614 -0.2820  0.5037  0.1938
 2833TIP3    H132694   7.720   1.893  18.667 -1.5537  1.7896  1.6290
 2833TIP3    H232695   7.666   1.905  18.526  2.1769 -2.4084 -0.3860
 2834TIP3   OH232696   6.772   4.784  18.208 -0.4008 -0.0689 -0.0418
 2834TIP3    H132697   6.750   4.692  18.198 -0.9934  0.1573 -0.9676
 2834TIP3    H232698   6.865   4.789  18.184 -0.2211 -0.4921  0.5282
 2835TIP3   OH232699   6.952   1.125  17.163 -0.2324 -0.1086  0.0686
 2835TIP3    H132700   6.936   1.035  17.134  2.4295 -0.0562 -1.9159
 2835TIP3    H232701   6.984   1.116  17.253  0.9330 -1.2992 -0.4277
 2836TIP3   OH232702   0.670   6.129  18.040  0.1639  0.0909 -0.1030
 2836TIP3    H132703   0.582   6.151  18.009  0.8165  0.2108 -2.0166
 2836TIP3    H232704   0.677   6.173  18.125 -1.7437 -0.2655  0.2816
 2837TIP3   OH232705   7.440   5.378  17.663  0.8178 -0.0347  0.5595
 2837TIP3    H132706   7.387   5.298  17.657  0.5560  0.1608  0.2825
 2837TIP3    H232707   7.456   5.389  17.757 -0.2311  0.2937  0.7075
 2838TIP3   OH232708   5.238   7.062  15.993 -0.3733 -0.2813 -0.2317
 2838TIP3    H132709   5.310   7.114  15.958 -0.2341 -0.5162 -0.2952
 2838TIP3    H232710   5.200   7.118  16.061  1.9297 -1.4059  2.1754
 2839TIP3   OH232711   0.668   0.259  17.714 -0.0550  0.0095 -0.1233
 2839TIP3    H132712   0.681   0.352  17.730 -3.6069  0.8304 -1.2400
 2839TIP3    H232713   0.697   0.216  17.794 -2.0151  2.4685  2.0537
 2840TIP3   OH232714   3.821   4.000  18.356  0.2219 -0.1794 -0.4753
 2840TIP3    H132715   3.904   3.988  18.402 -0.3953 -2.7204  0.1228
 2840TIP3    H232716   3.845   4.040  18.273  1.9594 -0.3011 -0.0647
 2841TIP3   OH232717   1.904   1.642  18.895 -0.3297  0.0739  0.1755
 2841TIP3    H132718   1.921   1.652  18.989 -0.1680  0.8716  0.0626
 2841TIP3    H232719   1.826   1.586  18.891 -1.9456  2.1654  0.8565
 2842TIP3   OH232720   2.187   6.775  17.374 -0.5596 -0.0530 -0.1529
 2842TIP3    H132721   2.157   6.686  17.355  0.6949 -0.8397  1.2905
 2842TIP3    H232722   2.115   6.814  17.423 -0.2936 -1.0754  1.1337
 2843TIP3   OH232723   7.234   4.495  18.446 -0.0762  0.0675 -0.4577
 2843TIP3    H132724   7.150   4.535  18.424 -0.8234 -1.5679 -0.7222
 2843TIP3    H232725   7.279   4.486  18.361  0.7323  1.6338 -0.2356
 2844TIP3   OH232726   6.465   6.129  18.862  0.1920  0.6203 -0.5381
 2844TIP3    H132727   6.545   6.137  18.913  0.1127 -0.0654 -0.3008
 2844TIP3    H232728   6.406   6.195  18.899  0.0470 -0.0387  0.4397
 2845TIP3   OH232729   5.430   2.870  16.893  0.2832  0.5231 -0.5048
 2845TIP3    H132730   5.522   2.897  16.897  0.0601  1.8062 -2.2967
 2845TIP3    H232731   5.427   2.807  16.821  0.7373 -4.5856  3.4516
 2846TIP3   OH232732   1.116   5.891  16.392 -0.0218 -0.8415  0.3887
 2846TIP3    H132733   1.180   5.867  16.458  1.6262  0.8843 -0.5015
 2846TIP3    H232734   1.155   5.964  16.345 -1.8787 -0.8850 -1.3864
 2847TIP3   OH232735   0.883   4.341  17.789 -0.4222 -0.7221 -0.1702
 2847TIP3    H132736   0.806   4.373  17.837  0.0251  0.2083 -0.0484
 2847TIP3    H232737   0.847   4.284  17.721 -1.2664  0.0086 -0.3635
 2848TIP3   OH232738   7.673   4.084  17.436 -0.3652  0.0370 -0.3429
 2848TIP3    H132739   7.701   3.996  17.460 -1.6571 -0.2274  0.2773
 2848TIP3    H232740   7.577   4.079  17.433 -0.5279  1.6279  0.6330
 2849TIP3   OH232741   2.672   3.486  16.395  0.0325 -0.2925  0.4068
 2849TIP3    H132742   2.697   3.460  16.307 -0.1398 -1.7139  0.7532
 2849TIP3    H232743   2.578   3.507  16.388  0.3917  1.3108 -0.0834
 2850TIP3   OH232744   3.964   1.563  18.626 -0.1350  0.4251 -0.6898
 2850TIP3    H132745   3.963   1.476  18.665 -2.6790  0.0071 -1.4937
 2850TIP3    H232746   4.056   1.579  18.604  0.5938 -1.4321  0.7362
 2851TIP3   OH232747   4.058   6.724  16.069  0.3602 -0.0963  0.2510
 2851TIP3    H132748   4.129   6.755  16.012 -1.0022  0.5387 -1.1997
 2851TIP3    H232749   3.996   6.797  16.071 -1.1026 -1.2919 -0.0345
 2852TIP3   OH232750   5.842   4.280  18.513 -0.0193 -0.0502 -0.2519
 2852TIP3    H132751   5.925   4.254  18.473  0.3626 -0.7975  0.9969
 2852TIP3    H232752   5.858   4.276  18.607 -0.8167  1.9414  0.0240
 2853TIP3   OH232753   4.599   0.769  17.453 -0.2602 -0.3948  0.4857
 2853TIP3    H132754   4.530   0.719  17.408 -0.3955 -0.6184  0.9404
 2853TIP3    H232755   4.656   0.702  17.491 -1.3731 -0.2397  2.5464
 2854TIP3   OH232756   3.104   3.255  18.205  0.7918  0.5220 -0.0885
 2854TIP3    H132757   3.161   3.260  18.128  0.2018  2.5334 -0.4502
 2854TIP3    H232758   3.073   3.344  18.218 -1.1883 -0.2412  0.9353
 2855TIP3   OH232759   0.461   3.199  17.811  0.0528  0.3150  0.1962
 2855TIP3    H132760   0.437   3.248  17.890 -1.1989 -0.5822  0.4139
 2855TIP3    H232761   0.385   3.143  17.795  1.1513 -1.0390 -0.4365
 2856TIP3   OH232762   7.629   6.842  17.385 -0.4590  0.1983  0.0732
 2856TIP3    H132763   7.688   6.917  17.390  0.4604 -0.5720  1.8621
 2856TIP3    H232764   7.640   6.809  17.296  0.2238  1.3156 -0.2795
 2857TIP3   OH232765   3.016   4.614  16.928  0.3242 -0.0978 -0.7986
 2857TIP3    H132766   3.063   4.553  16.871 -1.1963 -3.4839  1.2308
 2857TIP3    H232767   3.003   4.565  17.010 -1.8100  2.6912  0.7145
 2858TIP3   OH232768   6.156   4.671  19.125 -0.1297 -0.4222  0.0439
 2858TIP3    H132769   6.176   4.696  19.035 -0.3941  2.0283  0.5950
 2858TIP3    H232770   6.063   4.689  19.135  0.3581  1.7009  1.4358
 2859TIP3   OH232771   7.021   6.673  17.677  0.1729  0.2879 -0.9325
 2859TIP3    H132772   6.946   6.731  17.666 -1.8654 -1.9998 -0.2088
 2859TIP3    H232773   7.065   6.705  17.756 -1.8541 -0.0201  0.3974
 2860TIP3   OH232774   5.241   4.242  18.205  0.2625  0.3391 -0.3591
 2860TIP3    H132775   5.280   4.215  18.288  0.8691 -1.5094 -1.1899
 2860TIP3    H232776   5.301   4.309  18.172 -0.6930  2.0849  1.2561
 2861TIP3   OH232777   4.125   2.534  16.931  0.3967  0.2078  0.5293
 2861TIP3    H132778   4.101   2.496  17.015  1.3686  0.3650  0.8938
 2861TIP3    H232779   4.157   2.622  16.952  0.1410  0.4527 -0.0671
 2862TIP3   OH232780   4.182   3.124  19.014 -0.0108 -0.6475 -0.2876
 2862TIP3    H132781   4.211   3.108  19.104 -0.0907 -1.6231 -0.4338
 2862TIP3    H232782   4.172   3.038  18.976  0.9105 -0.2385 -1.5364
 2863TIP3   OH232783   0.513   7.618  17.844  0.3323  0.2110  0.2751
 2863TIP3    H132784   0.560   7.695  17.876  2.4167 -0.4182 -1.0993
 2863TIP3    H232785   0.532   7.550  17.909  1.7324 -0.1536 -0.4873
 2864TIP3   OH232786   6.681   5.761  17.399  0.7919 -0.4327  0.3526
 2864TIP3    H132787   6.727   5.764  17.483  1.9610  0.1264 -0.2809
 2864TIP3    H232788   6.716   5.683  17.356 -2.3524 -2.8057  1.7328
 2865TIP3   OH232789   5.534   3.160  18.348 -0.2271 -0.0057 -0.2869
 2865TIP3    H132790   5.451   3.116  18.330  1.0514 -2.3336 -0.9600
 2865TIP3    H232791   5.549   3.147  18.441 -1.2965  1.7987  0.1861
 2866TIP3   OH232792   2.835   4.338  17.555  0.3119 -0.4358  0.1413
 2866TIP3    H132793   2.836   4.308  17.464  1.1169 -2.0018  0.6386
 2866TIP3    H232794   2.809   4.261  17.606 -1.6436  0.7958  1.1554
 2867TIP3   OH232795   6.849   1.078  18.378  0.0257 -0.2453 -0.0095
 2867TIP3    H132796   6.855   1.165  18.339  1.4501  1.0939  2.8525
 2867TIP3    H232797   6.756   1.059  18.382 -0.5330  2.3653  1.5366
 2868TIP3   OH232798   3.999   0.252  16.204 -0.0681 -0.6118 -0.0699
 2868TIP3    H132799   3.946   0.327  16.177  0.8632  0.2254  0.3664
 2868TIP3    H232800   4.008   0.199  16.125  1.3003  0.9942 -1.0558
 2869TIP3   OH232801   2.508   6.383  18.845  0.4113 -0.1027 -0.5532
 2869TIP3    H132802   2.417   6.391  18.819  0.9001 -0.1791 -2.4366
 2869TIP3    H232803   2.516   6.436  18.924 -1.4733 -0.9403  0.2568
 2870TIP3   OH232804   0.807   7.240  17.551  0.1683  0.2698 -0.0774
 2870TIP3    H132805   0.876   7.175  17.535 -0.4198 -0.3872 -0.0335
 2870TIP3    H232806   0.763   7.208  17.630 -0.6079  0.3092 -0.4873
 2871TIP3   OH232807   6.998   4.704  17.490 -0.0806 -0.2137 -0.0031
 2871TIP3    H132808   6.930   4.656  17.538  0.6549  0.0771  1.3823
 2871TIP3    H232809   6.987   4.676  17.399 -0.3916 -2.1658  0.5808
 2872TIP3   OH232810   0.555   3.752  18.052  0.3795  0.0699  0.0622
 2872TIP3    H132811   0.593   3.835  18.022 -1.5637 -0.2857 -4.1485
 2872TIP3    H232812   0.630   3.693  18.058  1.2911  0.9651 -1.6632
 2873TIP3   OH232813   0.419   1.717  18.486 -0.4058 -0.3569 -0.0194
 2873TIP3    H132814   0.357   1.738  18.416 -1.7298 -0.8488  0.9640
 2873TIP3    H232815   0.438   1.624  18.475 -0.8165 -0.4970  0.4067
 2874TIP3   OH232816   6.769   3.745  18.404 -0.1533  0.4832 -0.6681
 2874TIP3    H132817   6.697   3.765  18.464  0.9064  2.5246  0.0436
 2874TIP3    H232818   6.820   3.678  18.449  0.6958  2.0725  0.8832
 2875TIP3   OH232819   0.349   5.863  18.243  0.5928  0.5758  0.8802
 2875TIP3    H132820   0.285   5.882  18.174  2.1049 -1.2343 -1.1652
 2875TIP3    H232821   0.326   5.775  18.273  3.1938 -1.0235 -1.3743
 2876TIP3   OH232822   2.393   3.609  16.315  0.2499 -0.3568  0.1145
 2876TIP3    H132823   2.349   3.527  16.337  0.9922 -0.8933 -0.3819
 2876TIP3    H232824   2.336   3.650  16.250 -0.1249 -0.4674  0.3670
 2877TIP3   OH232825   7.011   6.390  17.419  0.0999 -0.2915  0.3203
 2877TIP3    H132826   7.059   6.471  17.404  0.6458 -0.5866  0.4622
 2877TIP3    H232827   6.957   6.409  17.497 -0.2286  0.1256 -0.0007
 2878TIP3   OH232828   5.941   3.533  17.762  0.1647 -0.0558  0.4042
 2878TIP3    H132829   5.968   3.624  17.774  1.2192 -0.4342  0.9862
 2878TIP3    H232830   5.909   3.505  17.848 -0.7302 -0.0652  0.0841
 2879TIP3   OH232831   5.478   1.775  17.109 -0.1005 -0.6452 -0.1019
 2879TIP3    H132832   5.550   1.838  17.111 -1.4730  0.9440  1.4401
 2879TIP3    H232833   5.505   1.705  17.168 -0.6680  1.0188  2.2677
 2880TIP3   OH232834   3.804   4.522  17.629  0.0657  0.6203  0.4283
 2880TIP3    H132835   3.896   4.541  17.650  0.1235  2.3353 -1.1303
 2880TIP3    H232836   3.766   4.608  17.612 -1.8068 -0.0907  0.8599
 2881TIP3   OH232837   1.031   6.403  16.712 -0.2595 -0.6707 -0.4477
 2881TIP3    H132838   1.121   6.373  16.698  0.3191  0.9018 -0.2578
 2881TIP3    H232839   1.028   6.424  16.806 -0.3079  0.8180 -0.7555
 2882TIP3   OH232840   0.606   5.106  18.981 -0.3903  0.4746  0.1726
 2882TIP3    H132841   0.632   5.118  18.890  2.3413 -0.9225  0.6651
 2882TIP3    H232842   0.654   5.174  19.029  0.4593 -0.5772  0.8518
 2883TIP3   OH232843   4.213   5.583  17.561  0.1731 -0.4509  0.2769
 2883TIP3    H132844   4.261   5.648  17.613  0.2849 -0.6674  0.4436
 2883TIP3    H232845   4.246   5.499  17.592  0.9134 -0.5712 -0.7784
 2884TIP3   OH232846   7.602   0.129  16.772  0.6017  0.0009  0.0626
 2884TIP3    H132847   7.658   0.087  16.707  0.7955 -0.5624  0.5832
 2884TIP3    H232848   7.633   0.094  16.856 -1.3412 -1.3024  0.2892
 2885TIP3   OH232849   2.338   4.620  18.579  0.0354  0.5703 -0.5880
 2885TIP3    H132850   2.433   4.617  18.592 -0.0854 -0.6379  0.1506
 2885TIP3    H232851   2.320   4.710  18.551  1.2493  1.1870  0.5091
 2886TIP3   OH232852   0.538   6.168  17.128 -0.5090  0.5040  0.3129
 2886TIP3    H132853   0.586   6.143  17.207  0.6752  0.6430 -0.3410
 2886TIP3    H232854   0.452   6.196  17.160 -0.6865 -1.1129  1.3745
 2887TIP3   OH232855   6.967   6.203  16.416 -0.1265  0.4782 -0.5653
 2887TIP3    H132856   6.955   6.116  16.454  1.0189  1.2840  1.7955
 2887TIP3    H232857   6.881   6.224  16.379 -0.7417 -1.1911 -0.1856
 2888TIP3   OH232858   2.618   2.597  17.671 -0.5374 -0.0745  0.6075
 2888TIP3    H132859   2.684   2.643  17.620 -1.3136 -1.1155 -1.4264
 2888TIP3    H232860   2.647   2.606  17.762  1.2051  1.3353 -0.0462
 2889TIP3   OH232861   6.937   0.344  16.914 -0.3173 -0.1223 -0.2074
 2889TIP3    H132862   6.886   0.272  16.877 -0.5181 -0.1700  0.1506
 2889TIP3    H232863   6.908   0.422  16.867 -2.6822  0.2975  1.7458
 2890TIP3   OH232864   2.043   6.429  16.708  0.0335  0.3150 -0.3799
 2890TIP3    H132865   1.966   6.485  16.715  0.6950  1.1403  0.4666
 2890TIP3    H232866   2.107   6.481  16.661  0.6840  0.3170  0.4841
 2891TIP3   OH232867   1.718   7.047  16.599 -0.1432 -0.1948  0.1905
 2891TIP3    H132868   1.808   7.016  16.595 -0.0128  0.2347 -0.3390
 2891TIP3    H232869   1.712   7.114  16.530 -1.1011 -0.8412 -0.3823
 2892TIP3   OH232870   5.227   7.667  18.316  0.8344  0.7074  0.5540
 2892TIP3    H132871   5.159   7.690  18.253 -0.5097  1.9612  2.3688
 2892TIP3    H232872   5.301   7.723  18.294  0.5992  0.7093 -0.2416
 2893TIP3   OH232873   1.824   0.396  17.495 -0.2893 -0.3269 -0.0103
 2893TIP3    H132874   1.871   0.313  17.507 -1.7727 -1.3321 -0.8324
 2893TIP3    H232875   1.740   0.370  17.458 -2.0353  1.2711  2.5274
 2894TIP3   OH232876   3.859   1.046  18.781 -0.2075  0.0319  0.3209
 2894TIP3    H132877   3.947   1.013  18.763 -0.3052 -0.3606  0.5464
 2894TIP3    H232878   3.848   1.035  18.875  0.4005  2.3007  0.7134
 2895TIP3   OH232879   6.341   0.866  17.452  0.2692  0.2280 -0.4062
 2895TIP3    H132880   6.371   0.942  17.500 -1.8561  0.7903  0.1474
 2895TIP3    H232881   6.276   0.825  17.509 -0.5316 -0.4871 -1.7701
 2896TIP3   OH232882   4.448   1.021  16.199 -0.2178  0.0275  0.6726
 2896TIP3    H132883   4.417   1.013  16.109 -0.5134 -0.8726  0.8356
 2896TIP3    H232884   4.368   1.033  16.251 -0.2309 -1.1726  0.9773
 2897TIP3   OH232885   0.605   3.025  18.365 -0.3489  0.4323 -0.3571
 2897TIP3    H132886   0.551   3.104  18.356  0.8686  1.3431  0.0847
 2897TIP3    H232887   0.549   2.963  18.412 -0.9882  1.3955  0.1909
 2898TIP3   OH232888   0.881   3.387  17.716  0.1553  0.0210  1.0696
 2898TIP3    H132889   0.880   3.304  17.670  2.0356  0.1264  0.7808
 2898TIP3    H232890   0.957   3.383  17.774  0.9512  1.9174  0.2585
 2899TIP3   OH232891   4.309   4.319  17.990  0.0784  0.2880 -0.2600
 2899TIP3    H132892   4.259   4.239  17.976  0.7345 -0.1213 -0.2939
 2899TIP3    H232893   4.288   4.345  18.080  1.9471 -1.4485  0.7800
 2900TIP3   OH232894   6.548   5.360  18.091  0.0680 -0.0205 -0.2853
 2900TIP3    H132895   6.626   5.318  18.056  1.2803  0.8343  1.2502
 2900TIP3    H232896   6.503   5.292  18.140  0.4290 -0.2447 -0.2687
 2901TIP3   OH232897   4.809   0.972  17.270 -0.2466  0.1655 -0.3069
 2901TIP3    H132898   4.832   0.940  17.357  0.0106 -0.7425 -0.7072
 2901TIP3    H232899   4.772   0.896  17.225  0.8091  0.2890 -1.4321
 2902TIP3   OH232900   4.018   1.236  18.295 -0.3394 -0.0888  0.8371
 2902TIP3    H132901   3.940   1.182  18.281  0.5779 -1.3038  0.2588
 2902TIP3    H232902   4.020   1.249  18.390 -2.0436  1.2303  0.7472
 2903TIP3   OH232903   2.937   6.640  17.767  0.1907  0.3041 -0.4500
 2903TIP3    H132904   2.984   6.604  17.691 -0.2751  1.0998 -1.1206
 2903TIP3    H232905   2.941   6.734  17.755  0.6785  0.4681  0.8754
 2904TIP3   OH232906   0.721   2.195  15.967  0.3780  0.0485  0.1506
 2904TIP3    H132907   0.725   2.175  15.874  0.0983 -2.2194  0.5638
 2904TIP3    H232908   0.746   2.288  15.973  0.6848  0.1682 -2.1216
 2905TIP3   OH232909   0.140   3.731  17.243  0.1200 -0.1712 -0.7019
 2905TIP3    H132910   0.155   3.687  17.327  0.7519 -0.0434 -0.7471
 2905TIP3    H232911   0.045   3.724  17.230 -0.0529  0.2254  0.2542
 2906TIP3   OH232912   2.194   2.430  18.759 -0.0865 -0.1276  0.1376
 2906TIP3    H132913   2.278   2.399  18.724 -0.1078  1.4156 -1.4098
 2906TIP3    H232914   2.166   2.361  18.819  1.5800 -1.3554 -0.4311
 2907TIP3   OH232915   6.107   5.495  18.745  0.3181  0.3798 -0.3305
 2907TIP3    H132916   6.187   5.458  18.708  0.2234 -0.7437  0.5468
 2907TIP3    H232917   6.079   5.431  18.811 -3.3631 -1.1906 -3.0909
 2908TIP3   OH232918   3.660   3.802  18.635  0.4529 -0.0552 -0.0290
 2908TIP3    H132919   3.613   3.723  18.608  0.8173  0.2471 -1.6908
 2908TIP3    H232920   3.592   3.859  18.670 -0.7845  0.8304 -3.4012
 2909TIP3   OH232921   5.226   1.583  18.737  0.2129  0.6193  0.3076
 2909TIP3    H132922   5.204   1.662  18.687  0.2002  0.2473 -0.2784
 2909TIP3    H232923   5.321   1.577  18.731  0.1831  0.3973  0.0597
 2910TIP3   OH232924   1.399   3.647  17.871 -0.1702  0.0023  0.2088
 2910TIP3    H132925   1.412   3.552  17.876 -0.7148 -0.0579  0.5718
 2910TIP3    H232926   1.487   3.684  17.882 -0.0531 -0.4358  0.8257
 2911TIP3   OH232927   3.535   1.409  17.869 -0.6659 -0.1245  0.0008
 2911TIP3    H132928   3.484   1.448  17.940  0.5438  1.7897 -0.1168
 2911TIP3    H232929   3.504   1.318  17.865 -1.9941  0.1838  1.8043
 2912TIP3   OH232930   1.064   4.365  18.727 -0.0374  0.1489  0.0817
 2912TIP3    H132931   0.978   4.399  18.752 -0.6225  1.2833 -3.0715
 2912TIP3    H232932   1.126   4.424  18.770 -0.9861  2.5406 -1.6364
 2913TIP3   OH232933   3.657   6.596  18.602 -0.0096 -0.4644 -0.2914
 2913TIP3    H132934   3.638   6.528  18.667 -2.7380  0.1680 -0.2968
 2913TIP3    H232935   3.607   6.570  18.524 -1.4620  1.6537 -0.1650
 2914TIP3   OH232936   6.906   7.118  17.229  0.7385  0.3125 -0.2943
 2914TIP3    H132937   6.913   7.213  17.220 -2.2733  0.4843 -2.0783
 2914TIP3    H232938   6.902   7.085  17.139  0.3574 -1.3868  0.2964
 2915TIP3   OH232939   7.376   4.387  16.555 -0.7703  0.4146 -0.9392
 2915TIP3    H132940   7.373   4.360  16.463  0.2464  0.6582 -1.0595
 2915TIP3    H232941   7.287   4.373  16.588 -0.7017 -1.5276 -1.4349
 2916TIP3   OH232942   4.734   7.514  18.889 -0.1233  0.1479 -0.2241
 2916TIP3    H132943   4.802   7.563  18.934  0.9774  1.2945 -2.9040
 2916TIP3    H232944   4.689   7.579  18.835  0.0686 -1.3809 -2.3795
 2917TIP3   OH232945   3.775   2.233  16.293  0.0146  0.2360  0.3755
 2917TIP3    H132946   3.778   2.327  16.309 -1.3358  0.3365  0.1379
 2917TIP3    H232947   3.836   2.219  16.220 -0.3463  1.0473 -0.0982
 2918TIP3   OH232948   4.518   2.897  18.370  0.0638 -0.5896  0.0439
 2918TIP3    H132949   4.589   2.835  18.382  0.8903 -0.0212 -1.5467
 2918TIP3    H232950   4.542   2.972  18.424 -0.9864 -1.6211  2.0483
 2919TIP3   OH232951   4.216   3.753  17.985  0.2453 -0.4021 -0.1413
 2919TIP3    H132952   4.269   3.827  17.956 -0.3293 -0.2861 -0.9222
 2919TIP3    H232953   4.214   3.761  18.081  2.2284 -0.8290 -0.0165
 2920TIP3   OH232954   3.396   7.080  16.354 -0.3832 -0.0008 -0.0622
 2920TIP3    H132955   3.343   7.146  16.398  0.2405  0.4614  0.0099
 2920TIP3    H232956   3.334   7.014  16.325 -0.8075 -0.3557  1.5821
 2921TIP3   OH232957   2.572   6.922  18.201 -0.3682  0.1855 -0.1045
 2921TIP3    H132958   2.546   7.013  18.214 -0.5354  0.3536 -1.5447
 2921TIP3    H232959   2.494   6.871  18.223 -0.6256  0.4579 -0.3774
 2922TIP3   OH232960   4.582   0.204  18.251  0.4237 -0.4432 -0.2520
 2922TIP3    H132961   4.517   0.141  18.219 -1.5496  0.6618  1.3463
 2922TIP3    H232962   4.612   0.168  18.334  0.2905  0.0555  0.0177
 2923TIP3   OH232963   2.630   4.596  18.620 -0.0134 -0.6768  0.0782
 2923TIP3    H132964   2.709   4.581  18.672  0.4883 -0.8531 -0.7103
 2923TIP3    H232965   2.660   4.592  18.529 -1.1535 -2.0885 -0.2732
 2924TIP3   OH232966   4.476   4.228  18.937 -0.0118 -0.2307  0.1946
 2924TIP3    H132967   4.430   4.310  18.956 -1.1479 -1.3516  2.8879
 2924TIP3    H232968   4.568   4.248  18.954 -0.0413  0.9044 -0.8834
 2925TIP3   OH232969   4.242   0.534  18.979  0.5915 -0.5610  0.3123
 2925TIP3    H132970   4.191   0.504  19.054  0.0168  0.4723  0.3487
 2925TIP3    H232971   4.200   0.494  18.903 -1.7508  2.0160  0.0952
 2926TIP3   OH232972   5.644   5.514  16.199 -0.0810  0.7199  1.0440
 2926TIP3    H132973   5.613   5.424  16.205 -2.7356  1.6130  1.8023
 2926TIP3    H232974   5.740   5.506  16.203 -0.2104 -2.0513  0.7388
 2927TIP3   OH232975   0.127   6.240  18.433 -0.1912 -0.5814  0.1934
 2927TIP3    H132976   0.176   6.321  18.417 -1.4188  0.1700  0.1210
 2927TIP3    H232977   0.187   6.170  18.409 -0.5777  0.3444 -4.1591
 2928TIP3   OH232978   6.817   0.766  17.811  0.5190 -0.1193 -0.3175
 2928TIP3    H132979   6.910   0.778  17.791  0.6748 -0.7526  0.0103
 2928TIP3    H232980   6.778   0.853  17.796  1.1168  0.0921 -0.6761
 2929TIP3   OH232981   1.768   4.401  17.890  0.6459  0.7255 -0.3683
 2929TIP3    H132982   1.692   4.440  17.847 -0.5824  1.2518  2.1032
 2929TIP3    H232983   1.809   4.473  17.937  1.2827  0.0029  0.2148
 2930TIP3   OH232984   0.050   6.162  18.094  0.4860 -0.6236 -0.3943
 2930TIP3    H132985  -0.034   6.120  18.110  0.2878 -0.1587 -0.1900
 2930TIP3    H232986   0.103   6.095  18.051 -0.0530 -0.8551 -0.7035
 2931TIP3   OH232987   2.106   7.680  18.214 -0.4352  0.1516  0.0051
 2931TIP3    H132988   2.169   7.709  18.148 -0.0872 -0.7951 -0.0951
 2931TIP3    H232989   2.160   7.644  18.285 -0.7718  1.8434  1.1703
 2932TIP3   OH232990   6.410   5.448  16.458  0.5423  0.2061 -0.4064
 2932TIP3    H132991   6.496   5.450  16.501 -0.2406  0.9173  1.2378
 2932TIP3    H232992   6.399   5.536  16.422 -0.0875  0.5923  0.6866
 2933TIP3   OH232993   4.649   5.166  17.803  0.0063  1.2404 -0.0974
 2933TIP3    H132994   4.735   5.200  17.826  0.1851 -0.3278  1.8558
 2933TIP3    H232995   4.591   5.199  17.873 -1.0632  2.3952 -1.4561
 2934TIP3   OH232996   5.477   7.131  17.151  0.3924 -0.1841 -0.9885
 2934TIP3    H132997   5.447   7.086  17.071  0.3028 -0.5061 -0.7748
 2934TIP3    H232998   5.527   7.066  17.198  0.2891 -0.0500 -0.6900
 2935TIP3   OH232999   4.266   2.663  18.699 -0.6007  0.3759  0.3579
 2935TIP3    H133000   4.211   2.586  18.689 -1.7649  1.2744 -0.4417
 2935TIP3    H233001   4.259   2.709  18.615  0.0697  1.3415  0.8076
 2936TIP3   OH233002   3.521   0.213  16.973 -0.6630 -0.1877 -0.1222
 2936TIP3    H133003   3.597   0.177  17.019  0.2705  2.6060  0.7328
 2936TIP3    H233004   3.471   0.257  17.041 -1.3060  0.7697 -1.1818
 2937TIP3   OH233005   7.138   2.291  18.650 -0.4603  0.0332 -1.0418
 2937TIP3    H133006   7.224   2.254  18.671 -1.0695 -1.0217 -0.2709
 2937TIP3    H233007   7.142   2.380  18.684  0.0248 -0.3070 -0.1689
 2938TIP3   OH233008   0.215   0.633  17.377 -0.1694  0.4084  0.3334
 2938TIP3    H133009   0.183   0.543  17.365 -0.9006  0.5464  1.0985
 2938TIP3    H233010   0.220   0.669  17.289 -0.2979 -0.2457  0.0549
 2939TIP3   OH233011   6.840   7.405  18.312  0.0206  0.5870 -0.0729
 2939TIP3    H133012   6.907   7.337  18.304  0.4781  1.0651 -0.3728
 2939TIP3    H233013   6.887   7.481  18.347 -0.8313  0.2362  1.9633
 2940TIP3   OH233014   3.992   5.311  16.901 -0.7533  0.2476  0.9564
 2940TIP3    H133015   3.920   5.322  16.838 -1.5683  0.1652  1.8597
 2940TIP3    H233016   3.992   5.218  16.921  0.9461 -0.1487 -0.5575
 2941TIP3   OH233017   4.043   0.067  18.047 -0.5139  0.3296 -0.5423
 2941TIP3    H133018   3.955   0.057  18.083 -0.1911 -1.0292 -0.0511
 2941TIP3    H233019   4.051   0.160  18.025 -1.5876  0.7157  0.6379
 2942TIP3   OH233020   6.270   5.564  17.276 -0.3935  0.0772  0.3399
 2942TIP3    H133021   6.301   5.567  17.185 -1.1502  0.3366  0.0837
 2942TIP3    H233022   6.271   5.471  17.298 -0.3998 -0.0079 -0.0081
 2943TIP3   OH233023   5.363   5.976  17.524  0.2959  0.0976  0.1512
 2943TIP3    H133024   5.311   5.918  17.468 -0.1236  1.2423 -0.6585
 2943TIP3    H233025   5.356   5.936  17.611 -1.2720 -0.2225 -0.0899
 2944TIP3   OH233026   2.040   5.260  17.921  0.1303 -0.1372  0.3501
 2944TIP3    H133027   2.092   5.206  17.861  1.0907  1.1689 -0.0276
 2944TIP3    H233028   2.048   5.215  18.005 -1.2072 -1.9799 -0.4219
 2945TIP3   OH233029   3.690   0.316  18.477  0.6579 -0.1187  0.3897
 2945TIP3    H133030   3.700   0.347  18.567 -0.9030  0.8121  0.2813
 2945TIP3    H233031   3.608   0.355  18.447  0.4824 -1.4678 -1.0147
 2946TIP3   OH233032   5.105   5.838  18.649  0.5061  0.0339  0.8673
 2946TIP3    H133033   5.189   5.851  18.694  1.5199  0.9478 -1.1771
 2946TIP3    H233034   5.078   5.926  18.623  1.0618 -0.5863 -2.1427
 2947TIP3   OH233035   6.631   7.375  17.296 -0.4445 -0.3108 -0.4101
 2947TIP3    H133036   6.679   7.434  17.238 -1.2551 -1.7676 -2.6823
 2947TIP3    H233037   6.546   7.363  17.253 -0.5804 -2.5161  0.3339
 2948TIP3   OH233038   0.959   4.028  18.731 -0.4834  0.2369 -0.0517
 2948TIP3    H133039   0.901   4.081  18.677 -2.2334 -0.2985  1.2197
 2948TIP3    H233040   0.902   3.961  18.769  1.0286 -0.5048  1.0223
 2949TIP3   OH233041   3.680   2.983  18.338 -0.5274 -0.5074  0.1972
 2949TIP3    H133042   3.586   2.968  18.324 -0.7356 -0.0307  0.9754
 2949TIP3    H233043   3.693   2.965  18.431 -0.1421  0.7754  0.4146
 2950TIP3   OH233044   5.383   6.647  16.623 -0.4233  0.5244 -0.4240
 2950TIP3    H133045   5.472   6.631  16.655 -0.1229 -1.5960 -2.0877
 2950TIP3    H233046   5.338   6.563  16.635 -1.7896  1.1587 -0.9051
 2951TIP3   OH233047   2.732   0.492  17.781 -0.0737 -0.1432 -0.0180
 2951TIP3    H133048   2.818   0.515  17.745 -0.7237 -0.0156 -1.5612
 2951TIP3    H233049   2.686   0.576  17.788  0.0953 -0.1337  1.3688
 2952TIP3   OH233050   2.196   6.386  17.052  0.4914  0.0839  0.6055
 2952TIP3    H133051   2.129   6.318  17.059  1.1951 -0.9712 -1.8743
 2952TIP3    H233052   2.270   6.343  17.010  1.1382  2.2478 -0.6185
 2953TIP3   OH233053   4.870   0.497  16.530  0.0265 -0.2743 -1.0484
 2953TIP3    H133054   4.951   0.548  16.528 -0.2345  0.1694 -0.4972
 2953TIP3    H233055   4.816   0.540  16.596  0.0886 -1.7105 -0.0154
 2954TIP3   OH233056   7.223   6.613  17.430  0.0151 -0.9063 -0.4197
 2954TIP3    H133057   7.179   6.643  17.510  0.6162 -0.5320 -0.2195
 2954TIP3    H233058   7.316   6.617  17.452  0.1937 -0.5364 -1.2303
 2955TIP3   OH233059   7.321   6.471  18.898  0.4308  0.2698 -0.3371
 2955TIP3    H133060   7.311   6.472  18.803 -3.5063  0.8503 -0.0821
 2955TIP3    H233061   7.344   6.562  18.920 -0.3985  0.5665 -0.6567
 2956TIP3   OH233062   4.610   4.568  18.148  0.6778 -0.3415  0.3098
 2956TIP3    H133063   4.700   4.553  18.120  0.0397  0.0773 -2.2394
 2956TIP3    H233064   4.567   4.606  18.071 -0.8390  2.8465  2.4817
 2957TIP3   OH233065   0.847   2.976  17.355 -0.0333 -0.4336 -0.1999
 2957TIP3    H133066   0.809   3.041  17.296 -2.3007 -0.4446  1.1063
 2957TIP3    H233067   0.891   3.028  17.422 -1.6390 -0.1596  0.7108
 2958TIP3   OH233068   6.246   6.821  16.765 -0.2552 -0.0069  0.1072
 2958TIP3    H133069   6.178   6.778  16.713  2.1241 -2.1602 -1.4870
 2958TIP3    H233070   6.252   6.909  16.728 -1.1764 -0.2610 -0.7028
 2959TIP3   OH233071   2.006   4.789  16.698 -0.1467  0.5346 -1.0300
 2959TIP3    H133072   2.049   4.874  16.705  0.3117  0.2065  0.3334
 2959TIP3    H233073   2.071   4.731  16.658  0.2559  0.3512 -0.1333
 2960TIP3   OH233074   5.864   0.834  16.663  0.3307  0.2991 -0.2456
 2960TIP3    H133075   5.941   0.880  16.630  0.0312  1.6016  0.7977
 2960TIP3    H233076   5.821   0.800  16.584  1.4399  0.3834 -0.9081
 2961TIP3   OH233077   0.596   4.237  17.614 -0.1913  0.1616 -0.3191
 2961TIP3    H133078   0.636   4.182  17.682  0.6090  1.7441  0.5438
 2961TIP3    H233079   0.521   4.277  17.658 -0.0107  0.7527 -0.5478
 2962TIP3   OH233080   5.863   4.782  17.499 -0.6734  0.1666 -0.5312
 2962TIP3    H133081   5.820   4.735  17.427  0.4258 -0.3123 -0.8855
 2962TIP3    H233082   5.886   4.714  17.562 -2.2855  0.6543  0.6765
 2963TIP3   OH233083   4.736   4.881  17.833  0.4270  0.2880 -0.1294
 2963TIP3    H133084   4.695   4.967  17.830  0.7518  0.4369 -0.3318
 2963TIP3    H233085   4.794   4.884  17.909 -1.7328 -0.7460  1.6571
 2964TIP3   OH233086   7.316   7.051  16.073  0.2840  0.1259  0.5566
 2964TIP3    H133087   7.220   7.055  16.073  0.2425 -0.4040 -0.1776
 2964TIP3    H233088   7.342   7.094  15.991  0.5470 -1.3967 -0.2010
 2965TIP3   OH233089   3.071   0.543  18.154 -1.0264  0.0718  0.4440
 2965TIP3    H133090   2.997   0.591  18.191 -0.3842  1.8921 -0.5152
 2965TIP3    H233091   3.120   0.609  18.105  1.5944 -0.9220  1.5493
 2966TIP3   OH233092   7.109   6.361  17.921 -0.0289  0.1864  0.0127
 2966TIP3    H133093   7.154   6.290  17.969 -1.5524 -0.6686  0.2544
 2966TIP3    H233094   7.120   6.438  17.977  0.9317 -0.0386  0.1621
 2967TIP3   OH233095   7.567   2.931  17.769 -0.1597 -0.2299 -0.2425
 2967TIP3    H133096   7.575   2.851  17.822  0.2724 -1.1009 -1.5695
 2967TIP3    H233097   7.510   2.988  17.821  1.1965 -0.5444  1.7204
 2968TIP3   OH233098   6.202   4.970  17.418 -0.4165 -0.1864  0.1119
 2968TIP3    H133099   6.111   4.996  17.406 -0.2132  0.8894  0.7245
 2968TIP3    H233100   6.227   4.929  17.336 -1.5868 -0.9042  0.0994
 2969TIP3   OH233101   3.505   0.467  16.746 -0.2969 -0.2474 -0.1840
 2969TIP3    H133102   3.454   0.536  16.704  1.0966  1.5930  0.9550
 2969TIP3    H233103   3.506   0.491  16.839 -0.3003 -2.1890  0.3667
 2970TIP3   OH233104   4.756   3.904  17.684  0.3286 -0.2154  0.0621
 2970TIP3    H133105   4.766   3.830  17.624  0.9858 -0.3281  0.3054
 2970TIP3    H233106   4.841   3.947  17.685  0.0221  0.4059  0.1165
 2971TIP3   OH233107   5.978   6.825  16.428  0.3913 -0.1055  0.1113
 2971TIP3    H133108   5.935   6.909  16.414 -0.7200 -0.5903  0.4686
 2971TIP3    H233109   5.983   6.786  16.341  0.3056  0.0602  0.0329
 2972TIP3   OH233110   0.731   5.344  17.960 -0.6737  0.0253 -0.4305
 2972TIP3    H133111   0.659   5.286  17.935 -0.5617  0.3048 -1.4677
 2972TIP3    H233112   0.691   5.409  18.017 -1.5989  1.0641 -2.1817
 2973TIP3   OH233113   7.104   6.677  16.861  0.0256 -0.1498  0.5493
 2973TIP3    H133114   7.099   6.743  16.930 -1.0373  0.7109 -0.3104
 2973TIP3    H233115   7.061   6.718  16.786  1.9619 -0.6943 -0.9387
 2974TIP3   OH233116   1.469   7.494  17.027 -0.2320  0.2274  0.5734
 2974TIP3    H133117   1.544   7.539  17.064 -0.9722 -0.6581  3.3551
 2974TIP3    H233118   1.498   7.403  17.015 -0.4488  0.1903  0.3077
 2975TIP3   OH233119   6.948   4.144  18.405 -0.3100 -0.8835 -0.3396
 2975TIP3    H133120   6.927   4.077  18.340  0.7837  0.8763 -2.6777
 2975TIP3    H233121   7.044   4.150  18.403 -0.4085  1.6635 -1.3204
 2976TIP3   OH233122   4.447   3.528  17.046  0.0464  0.1922  0.0579
 2976TIP3    H133123   4.530   3.512  17.092  0.6379 -0.9993 -1.3420
 2976TIP3    H233124   4.457   3.615  17.008 -0.1013  0.8195  1.3820
 2977TIP3   OH233125   4.903   4.141  18.436 -0.3804 -0.8074 -0.0250
 2977TIP3    H133126   4.963   4.146  18.361  0.3252 -1.4004  0.4820
 2977TIP3    H233127   4.829   4.089  18.404  0.3137 -1.7948 -0.0764
 2978TIP3   OH233128   6.936   5.463  17.693 -0.1889  0.0374 -0.8611
 2978TIP3    H133129   6.911   5.382  17.739  3.1784 -0.5434  0.3083
 2978TIP3    H233130   6.944   5.437  17.602  0.6817 -0.9643 -0.5252
 2979TIP3   OH233131   4.400   6.654  18.677 -0.3732 -0.8751 -0.2374
 2979TIP3    H133132   4.390   6.716  18.749  1.3854 -0.6214 -0.1801
 2979TIP3    H233133   4.352   6.576  18.706 -1.8085  0.0923  0.0921
 2980TIP3   OH233134   5.866   1.592  18.201 -0.4445 -0.3537  0.0036
 2980TIP3    H133135   5.884   1.686  18.208 -2.6891 -0.0058  2.6779
 2980TIP3    H233136   5.926   1.551  18.263  1.3048 -0.9257 -1.9348
 2981TIP3   OH233137   7.561   7.266  16.684  0.0004 -0.2042 -0.3249
 2981TIP3    H133138   7.621   7.250  16.611  1.5914 -0.1395  0.8966
 2981TIP3    H233139   7.526   7.180  16.705  0.4037 -0.4054 -0.4614
 2982TIP3   OH233140   4.516   2.671  17.804  0.4164 -0.3089  0.4167
 2982TIP3    H133141   4.506   2.613  17.729 -0.0301 -1.8051  1.5974
 2982TIP3    H233142   4.587   2.731  17.778  0.8288 -1.3114 -0.8668
 2983TIP3   OH233143   1.266   3.514  17.170  0.6351 -0.6201  0.3602
 2983TIP3    H133144   1.308   3.461  17.101 -2.6475 -1.5108 -1.1456
 2983TIP3    H233145   1.209   3.574  17.122  0.7238  1.0568  2.2646
 2984TIP3   OH233146   1.416   0.038  17.317  0.2192  0.1790  0.2000
 2984TIP3    H133147   1.385  -0.053  17.324  2.4776 -0.7896 -1.2268
 2984TIP3    H233148   1.356   0.088  17.372 -1.1066 -2.1717  1.0358
 2985TIP3   OH233149   2.380   5.707  17.062 -0.0549 -0.3418  0.8996
 2985TIP3    H133150   2.368   5.755  16.980  0.8485 -0.2134  0.8331
 2985TIP3    H233151   2.390   5.775  17.129 -0.6992 -0.4454  1.1083
 2986TIP3   OH233152   2.834   5.255  19.110 -0.5326  0.1277  0.2684
 2986TIP3    H133153   2.902   5.189  19.095 -0.0488  0.4497  0.9844
 2986TIP3    H233154   2.854   5.291  19.196 -1.9867 -0.2016  0.7789
 2987TIP3   OH233155   7.037   6.899  17.339 -0.0589  0.0716  0.1747
 2987TIP3    H133156   7.021   6.986  17.304  1.7063  2.3811  4.4019
 2987TIP3    H233157   7.133   6.890  17.337 -0.1254 -1.1358  1.0679
 2988TIP3   OH233158   3.265   6.374  16.642  0.1870  0.1723 -0.4117
 2988TIP3    H133159   3.275   6.330  16.727  1.2338 -2.2985 -1.7265
 2988TIP3    H233160   3.192   6.329  16.600  0.6416  0.3706 -1.4246
 2989TIP3   OH233161   4.018   5.817  17.502  0.7608  0.2696 -0.1625
 2989TIP3    H133162   4.099   5.836  17.454  0.6741 -0.3197 -0.5433
 2989TIP3    H233163   4.017   5.882  17.573  0.1249  2.2164 -1.8407
 2990TIP3   OH233164   6.015   5.201  17.656  0.2032  0.5806 -0.0689
 2990TIP3    H133165   5.943   5.172  17.599  1.7686 -0.5817 -1.5468
 2990TIP3    H233166   5.982   5.188  17.745 -1.3751 -0.0174 -0.7021
 2991TIP3   OH233167   6.141   4.128  17.308  0.0422  0.1613 -0.2681
 2991TIP3    H133168   6.170   4.039  17.331 -1.2402 -0.0390  0.6270
 2991TIP3    H233169   6.056   4.116  17.266  0.2215  0.9141 -0.8709
 2992TIP3   OH233170   5.677   0.051  16.298  0.3283 -0.1192  0.0912
 2992TIP3    H133171   5.733   0.119  16.262 -0.4344  0.6909  0.4012
 2992TIP3    H233172   5.611   0.036  16.230  0.3736 -0.4098  0.1090
 2993TIP3   OH233173   0.477   4.736  18.060 -0.3348 -0.4711 -0.7217
 2993TIP3    H133174   0.398   4.732  18.006 -0.5345  0.4117 -0.5039
 2993TIP3    H233175   0.448   4.772  18.143 -0.0031 -1.6964 -0.0518
 2994TIP3   OH233176   0.206   6.137  19.205  0.8737  0.3688  0.3373
 2994TIP3    H133177   0.211   6.228  19.236  0.8156  1.6760 -3.1192
 2994TIP3    H233178   0.120   6.130  19.165  1.3857 -0.7614 -0.6228
 2995TIP3   OH233179   0.570   6.473  18.722 -0.1820 -0.3386  0.4481
 2995TIP3    H133180   0.545   6.545  18.779  0.0138  0.0939  0.0014
 2995TIP3    H233181   0.502   6.407  18.735 -0.0539 -0.3133  1.2895
 2996TIP3   OH233182   3.228   6.813  16.764  0.0173 -0.0457 -0.2205
 2996TIP3    H133183   3.283   6.789  16.690 -0.1293  1.1306 -0.7149
 2996TIP3    H233184   3.265   6.895  16.797 -0.0415 -0.4372  0.8932
 2997TIP3   OH233185   4.703   0.446  17.249  0.0410  0.2231 -0.3646
 2997TIP3    H133186   4.779   0.391  17.265  0.1959  0.2474 -0.9834
 2997TIP3    H233187   4.663   0.408  17.170 -0.5112  0.2896 -0.1185
 2998TIP3   OH233188   6.497   5.869  18.790  0.6945  0.2225 -0.0589
 2998TIP3    H133189   6.489   5.961  18.816  1.0814  0.7153 -1.5865
 2998TIP3    H233190   6.479   5.869  18.696  0.6623 -1.2761 -0.0739
 2999TIP3   OH233191   6.010   6.879  15.713  0.5120  0.2772  0.5540
 2999TIP3    H133192   5.949   6.951  15.697  1.3390  1.0379  0.7549
 2999TIP3    H233193   5.985   6.844  15.798 -1.1595 -1.0000 -0.3875
 3000TIP3   OH233194   4.884   6.948  18.557 -0.0442  0.9267  0.7597
 3000TIP3    H133195   4.973   6.913  18.548 -0.4206 -0.0893  0.9411
 3000TIP3    H233196   4.894   7.041  18.536  1.1317  0.9098  1.1460
 3001TIP3   OH233197   0.104   2.390  16.614  0.1754  0.2870  0.4087
 3001TIP3    H133198   0.189   2.424  16.642 -1.0411  2.0452  2.2574
 3001TIP3    H233199   0.063   2.464  16.568 -0.3087 -0.6120 -0.6524
 3002TIP3   OH233200   3.645   2.263  16.663  0.3726  0.0538  0.4229
 3002TIP3    H133201   3.660   2.196  16.596  0.0675  0.3233  0.0805
 3002TIP3    H233202   3.667   2.345  16.619  1.1896  0.1403  0.9843
 3003TIP3   OH233203   1.416   7.146  16.591 -1.0910  0.4064 -0.0779
 3003TIP3    H133204   1.347   7.103  16.641 -0.7109  0.1909  0.2588
 3003TIP3    H233205   1.443   7.081  16.526 -1.0902  0.4293 -0.1004
 3004TIP3   OH233206   5.680   3.988  17.036 -0.0439  0.1361  0.1327
 3004TIP3    H133207   5.687   4.033  16.952  1.3125  0.8185  0.5872
 3004TIP3    H233208   5.679   3.895  17.014  2.5879  0.1949 -0.5686
 3005TIP3   OH233209   5.134   4.523  18.221  0.5553  0.1707 -0.6316
 3005TIP3    H133210   5.178   4.581  18.283  0.0917  0.2984 -0.4170
 3005TIP3    H233211   5.203   4.496  18.160  1.1100 -0.3181  0.1983
 3006TIP3   OH233212   1.392   4.696  17.967  0.2445 -0.3477 -0.3633
 3006TIP3    H133213   1.340   4.736  18.038  1.2849  1.6837 -0.6898
 3006TIP3    H233214   1.473   4.668  18.010 -0.8979 -3.2905  0.0919
 3007TIP3   OH233215   3.867   4.352  18.273 -0.0099  0.2376 -0.6738
 3007TIP3    H133216   3.905   4.273  18.234  0.1176  0.9496 -2.0783
 3007TIP3    H233217   3.778   4.355  18.238 -0.1347  0.5170 -0.3367
 3008TIP3   OH233218   2.347   5.408  18.608  0.0872  0.3973  0.4425
 3008TIP3    H133219   2.420   5.392  18.549  0.3470  0.6426  0.6940
 3008TIP3    H233220   2.383   5.395  18.695 -0.3211 -0.0712  0.5452
 3009TIP3   OH233221   5.166   1.064  18.598  0.0033 -0.0796  0.3804
 3009TIP3    H133222   5.089   1.120  18.595  1.2772  1.7917  0.4085
 3009TIP3    H233223   5.153   1.000  18.529 -0.9911  1.0079 -0.4708
 3010TIP3   OH233224   7.533   1.345  16.610 -0.3083 -0.2159 -0.2756
 3010TIP3    H133225   7.454   1.335  16.663  0.5766 -0.1981  1.1172
 3010TIP3    H233226   7.519   1.426  16.560 -0.3817  0.8878  1.4485
 3011TIP3   OH233227   5.347   3.898  18.209  0.4939 -0.0219  0.2374
 3011TIP3    H133228   5.374   3.961  18.275  0.0853 -1.5124  1.9232
 3011TIP3    H233229   5.387   3.929  18.128  1.4597  1.5886  1.2757
 3012TIP3   OH233230   0.085   0.572  16.617  0.0448  0.1563 -0.2966
 3012TIP3    H133231   0.059   0.661  16.593  0.0402 -0.0809 -1.1872
 3012TIP3    H233232   0.106   0.530  16.534  2.7627  0.1460  0.2890
 3013TIP3   OH233233   1.757   0.848  17.824  0.6931 -0.0826  0.1296
 3013TIP3    H133234   1.799   0.797  17.755  0.2246 -0.3476  0.0368
 3013TIP3    H233235   1.793   0.813  17.905  0.4304 -0.5114  0.0642
 3014TIP3   OH233236   7.468   2.709  16.745 -0.0312 -0.4036  0.0555
 3014TIP3    H133237   7.416   2.686  16.823  0.1548  0.1729  0.3553
 3014TIP3    H233238   7.448   2.640  16.682 -2.2533  0.5137 -0.3556
 3015TIP3   OH233239   2.642   6.139  17.844 -0.0866 -0.4805  0.3717
 3015TIP3    H133240   2.692   6.131  17.925 -1.8140 -2.5386  1.3119
 3015TIP3    H233241   2.705   6.174  17.781  1.8308 -0.6191  2.0955
 3016TIP3   OH233242   3.729   1.696  18.451 -0.2124  0.0711  0.0127
 3016TIP3    H133243   3.688   1.624  18.498 -0.0529 -2.0282 -2.8210
 3016TIP3    H233244   3.823   1.685  18.469 -0.3479  1.3180  1.7575
 3017TIP3   OH233245   6.266   3.584  17.899 -0.3952 -0.6615  0.9873
 3017TIP3    H133246   6.288   3.536  17.819  1.3685  0.7460  0.5774
 3017TIP3    H233247   6.178   3.618  17.882 -0.5409 -1.3970  0.1521
 3018TIP3   OH233248   1.284   5.238  16.437 -0.0548  0.4436 -0.1001
 3018TIP3    H133249   1.282   5.312  16.376 -0.3471  1.1010  0.6905
 3018TIP3    H233250   1.247   5.165  16.388 -0.5661  1.0373 -0.6180
 3019TIP3   OH233251   4.657   0.896  16.591 -0.8012  0.2605 -0.3278
 3019TIP3    H133252   4.611   0.813  16.589 -0.1332 -0.1036 -1.1273
 3019TIP3    H233253   4.676   0.915  16.499  3.0824 -1.0039  0.0390
 3020TIP3   OH233254   5.668   4.892  18.831  0.2477  0.2911  0.4935
 3020TIP3    H133255   5.695   4.934  18.913  2.5308 -0.2714  0.1063
 3020TIP3    H233256   5.575   4.874  18.843  0.0825  1.8958  2.2019
 3021TIP3   OH233257   4.711   2.003  16.728  0.0627 -0.1696  0.3348
 3021TIP3    H133258   4.806   2.005  16.725  0.1302 -1.4434  1.0611
 3021TIP3    H233259   4.684   2.016  16.637  0.9126  0.4116  0.1556
 3022TIP3   OH233260   4.982   5.062  16.895  0.5205 -0.0472  0.0990
 3022TIP3    H133261   5.001   5.009  16.818  2.5882  1.6263 -0.6436
 3022TIP3    H233262   5.067   5.098  16.920 -0.6163  2.0036  1.2204
 3023TIP3   OH233263   0.879   7.459  17.923  0.2427 -0.6931 -0.2036
 3023TIP3    H133264   0.915   7.370  17.920 -0.7279 -1.1231  0.3622
 3023TIP3    H233265   0.913   7.501  17.844  1.7564 -1.1367  0.1668
 3024TIP3   OH233266   1.475   7.014  18.930 -0.2945 -0.8475 -0.2450
 3024TIP3    H133267   1.425   6.935  18.950 -0.3221 -0.3521  1.8372
 3024TIP3    H233268   1.442   7.042  18.845 -3.0948 -0.9222  0.7260
 3025TIP3   OH233269   3.951   5.648  18.516  0.1065  0.3634 -0.1395
 3025TIP3    H133270   3.897   5.576  18.548  1.5879 -1.1214 -0.8528
 3025TIP3    H233271   3.998   5.678  18.594  0.0850 -0.0022  0.0181
 3026TIP3   OH233272   1.914   2.716  16.272  0.3982  0.0224  0.4623
 3026TIP3    H133273   1.948   2.798  16.310  0.4212  0.1290  0.2111
 3026TIP3    H233274   1.971   2.700  16.196  1.0929 -0.8068  1.1342
 3027TIP3   OH233275   5.144   0.355  16.441 -0.2638  0.1188 -0.0608
 3027TIP3    H133276   5.076   0.412  16.476 -0.3283 -0.7141  1.2400
 3027TIP3    H233277   5.111   0.266  16.457  1.8134 -0.3618  2.1837
 3028TIP3   OH233278   0.454   3.590  18.365  0.0528 -0.4914  0.4129
 3028TIP3    H133279   0.458   3.563  18.273  1.1061 -1.7993  0.8098
 3028TIP3    H233280   0.361   3.589  18.386 -0.1404 -1.0088 -0.4097
 3029TIP3   OH233281   3.940   0.708  18.653  0.0133  0.0797  0.6696
 3029TIP3    H133282   4.034   0.702  18.634  0.6494  0.6364  3.2705
 3029TIP3    H233283   3.911   0.785  18.605  0.8117 -0.2405 -0.3624
 3030TIP3   OH233284   7.545   4.397  16.763  0.2088  0.2207  0.0738
 3030TIP3    H133285   7.482   4.404  16.691  2.5748  3.0738 -1.9932
 3030TIP3    H233286   7.614   4.340  16.729  0.7824  0.6116  0.5575
 3031TIP3   OH233287   4.959   6.690  16.320  0.6761  0.4847  0.0768
 3031TIP3    H133288   5.023   6.734  16.264  1.0618  1.5519  1.3040
 3031TIP3    H233289   4.892   6.756  16.336  0.7080  0.2894  1.0736
 3032TIP3   OH233290   4.312   2.031  18.547  0.2044  0.4805  0.3525
 3032TIP3    H133291   4.363   2.111  18.541  1.3192 -0.3374 -2.2172
 3032TIP3    H233292   4.245   2.039  18.480  0.4486 -0.7795 -0.0865
 3033TIP3   OH233293   6.797   3.973  17.067  0.0516  0.3012 -0.7916
 3033TIP3    H133294   6.756   4.015  17.143  1.2100 -0.7314  0.4817
 3033TIP3    H233295   6.891   3.978  17.085  0.3615  0.2410 -2.2952
 3034TIP3   OH233296   4.913   0.236  17.648 -0.1198  0.8087  0.1958
 3034TIP3    H133297   4.839   0.207  17.701  0.6935 -0.5919  0.6254
 3034TIP3    H233298   4.968   0.158  17.640  0.7016  1.4956 -1.1457
 3035TIP3   OH233299   6.553   4.462  17.533  0.0970  0.1595 -0.1035
 3035TIP3    H133300   6.571   4.463  17.439 -0.2932  1.1796 -0.1776
 3035TIP3    H233301   6.458   4.470  17.539 -0.1228 -2.1426  0.3466
 3036TIP3   OH233302   0.618   5.813  17.582 -0.1282 -0.3648  0.2175
 3036TIP3    H133303   0.617   5.866  17.503 -2.7183 -0.2413  0.2261
 3036TIP3    H233304   0.600   5.724  17.552  1.0266 -0.7135  0.5038
 3037TIP3   OH233305   1.883   6.595  18.242  0.7533  0.1558  0.2678
 3037TIP3    H133306   1.930   6.511  18.236  0.5625  0.0801 -0.2790
 3037TIP3    H233307   1.791   6.570  18.246  0.7271  0.3234  0.7770
 3038TIP3   OH233308   3.836   2.806  16.963 -0.1606 -0.3770 -0.2567
 3038TIP3    H133309   3.794   2.778  17.044  1.1418 -0.1524  0.5236
 3038TIP3    H233310   3.870   2.894  16.982  0.6515 -0.5504 -0.8530
 3039TIP3   OH233311   4.751   2.537  17.930 -0.9064  0.3581  0.0938
 3039TIP3    H133312   4.733   2.453  17.888  1.1113  0.4494 -1.0639
 3039TIP3    H233313   4.712   2.602  17.872  0.9863  0.4214 -1.1647
 3040TIP3   OH233314   5.563   2.865  18.621 -0.1184  0.0492 -0.3306
 3040TIP3    H133315   5.597   2.954  18.631  2.6790 -1.0650  1.4913
 3040TIP3    H233316   5.574   2.845  18.528  0.2206  1.2673 -0.5661
 3041TIP3   OH233317   6.671   0.237  17.632  0.3160 -0.1393  0.0953
 3041TIP3    H133318   6.615   0.186  17.690 -0.2840 -1.9381 -1.9332
 3041TIP3    H233319   6.610   0.283  17.574  0.9045  1.2696  0.5429
 3042TIP3   OH233320   3.965   3.936  17.870  0.3797  0.3220 -0.7700
 3042TIP3    H133321   3.957   3.844  17.894 -0.2425  0.9116  1.6119
 3042TIP3    H233322   3.896   3.979  17.920  0.1604  2.0122 -2.4217
 3043TIP3   OH233323   7.666   4.965  18.351 -0.0443 -0.3311 -0.0921
 3043TIP3    H133324   7.719   4.939  18.426 -0.2609  1.0150  0.5495
 3043TIP3    H233325   7.577   4.973  18.387 -0.4042 -0.9983 -0.8054
 3044TIP3   OH233326   1.294   3.051  17.514  0.4144  0.0221  0.2300
 3044TIP3    H133327   1.250   3.090  17.590 -2.2735 -0.7795 -0.8087
 3044TIP3    H233328   1.335   2.971  17.548 -0.6673 -0.2748  0.8780
 3045TIP3   OH233329   5.437   7.392  16.090  0.3526 -0.3664  0.1739
 3045TIP3    H133330   5.392   7.422  16.170  0.5324  0.0468  0.1212
 3045TIP3    H233331   5.472   7.472  16.051  0.1898 -0.5592 -0.3692
 3046TIP3   OH233332   0.930   1.987  18.179 -0.0127  0.8920 -0.0221
 3046TIP3    H133333   0.865   2.006  18.246  1.5955  0.6784  1.6845
 3046TIP3    H233334   0.885   1.930  18.117 -1.4495  0.8007  1.0569
 3047TIP3   OH233335   4.294   3.201  17.129  0.4171 -0.2126 -0.1488
 3047TIP3    H133336   4.268   3.115  17.094 -0.0659  0.1185 -0.6053
 3047TIP3    H233337   4.371   3.225  17.076  0.0827 -0.0113 -0.5453
 3048TIP3   OH233338   2.351   6.027  18.129  0.0479 -0.7116 -0.0327
 3048TIP3    H133339   2.363   6.002  18.220  0.5556 -0.0299  0.0949
 3048TIP3    H233340   2.321   6.118  18.133 -1.1163 -1.0502 -0.5062
 3049TIP3   OH233341   0.538   5.182  16.170  0.1037  0.0150 -0.1433
 3049TIP3    H133342   0.457   5.152  16.211 -0.1284 -0.1142 -0.6888
 3049TIP3    H233343   0.512   5.255  16.114  0.2254 -0.5187 -0.9224
 3050TIP3   OH233344   1.482   5.313  15.893 -0.1286  1.1479  0.6942
 3050TIP3    H133345   1.559   5.345  15.940 -0.1058  1.3453  0.5262
 3050TIP3    H233346   1.439   5.393  15.861 -0.4186  1.0415  0.8130
 3051TIP3   OH233347   6.038   4.457  18.165  0.1166 -0.0584  0.1554
 3051TIP3    H133348   5.978   4.459  18.090 -0.0514 -2.0449  0.1916
 3051TIP3    H233349   6.104   4.524  18.145 -0.3134 -0.0777 -1.4447
 3052TIP3   OH233350   1.869   4.096  17.459 -0.7154  0.3090  0.2681
 3052TIP3    H133351   1.832   4.011  17.436 -1.1201  0.8398 -1.1286
 3052TIP3    H233352   1.963   4.085  17.445 -0.3207 -0.7919  3.0499
 3053TIP3   OH233353   0.515   6.391  19.053 -0.0318  0.4299 -0.6172
 3053TIP3    H133354   0.507   6.301  19.022 -2.3774 -0.5748  2.5068
 3053TIP3    H233355   0.440   6.437  19.015 -0.2254  0.4372 -0.2233
 3054TIP3   OH233356   3.720   0.772  17.370 -0.0123  0.4298 -0.0577
 3054TIP3    H133357   3.678   0.730  17.295  0.7013  1.5227 -1.1043
 3054TIP3    H233358   3.711   0.865  17.353  1.4577  0.6942  0.4594
 3055TIP3   OH233359   5.264   4.107  18.946 -0.2310  0.0966  0.3195
 3055TIP3    H133360   5.245   4.157  18.867  0.1268  1.7022  1.2052
 3055TIP3    H233361   5.319   4.034  18.916  0.7394  1.2362 -0.7804
 3056TIP3   OH233362   7.234   2.328  17.127  0.4118  0.1086  0.2540
 3056TIP3    H133363   7.260   2.242  17.158  1.1887  0.9581  2.0541
 3056TIP3    H233364   7.154   2.348  17.175 -0.5026 -0.1073 -1.1045
 3057TIP3   OH233365   5.518   5.323  18.515 -0.2046  0.0017 -0.2402
 3057TIP3    H133366   5.569   5.283  18.445 -0.9952 -0.4308 -0.5806
 3057TIP3    H233367   5.584   5.355  18.577  0.4779 -1.5106 -0.1324
 3058TIP3   OH233368   1.386   6.037  18.803  0.1717 -0.3742  0.0148
 3058TIP3    H133369   1.465   5.984  18.798  0.6779  0.3249  0.4131
 3058TIP3    H233370   1.416   6.122  18.838 -0.9653 -0.5914  1.6551
 3059TIP3   OH233371   2.522   3.494  17.263 -0.1695  0.0701 -0.6116
 3059TIP3    H133372   2.550   3.450  17.344 -0.0476  0.3904 -0.4804
 3059TIP3    H233373   2.540   3.586  17.278  1.4950 -0.0453 -1.6700
 3060TIP3   OH233374   6.737   5.945  16.340  0.2530  0.6975  0.0638
 3060TIP3    H133375   6.774   5.884  16.276 -1.1037 -0.7989  0.6387
 3060TIP3    H233376   6.808   5.957  16.404  0.7596  0.2133 -0.3925
 3061TIP3   OH233377   6.966   0.844  16.533  0.5337  0.8389  0.0426
 3061TIP3    H133378   6.976   0.915  16.470  1.3348 -0.6154 -1.5620
 3061TIP3    H233379   7.052   0.801  16.534  0.0901 -0.0729  1.0243
 3062TIP3   OH233380   3.892   4.968  18.365 -0.0806 -0.5239  0.7419
 3062TIP3    H133381   3.984   4.971  18.393  0.1890  0.6495 -0.1867
 3062TIP3    H233382   3.867   5.060  18.357 -0.1658 -0.7433 -2.6895
 3063TIP3   OH233383   3.738   5.301  17.193  0.2413  0.1728 -0.0629
 3063TIP3    H133384   3.647   5.315  17.164  0.1526 -0.9409 -0.3714
 3063TIP3    H233385   3.791   5.353  17.132  0.0083 -1.5829 -1.8791
 3064TIP3   OH233386   5.365   5.463  17.373 -0.3682 -0.1560 -0.0487
 3064TIP3    H133387   5.342   5.370  17.383  1.2435 -0.7853 -1.6055
 3064TIP3    H233388   5.305   5.496  17.307 -1.1063 -0.0161  0.6851
 3065TIP3   OH233389   4.657   5.921  18.138 -0.4261  0.1520 -0.0351
 3065TIP3    H133390   4.569   5.949  18.113 -0.3792  0.7726  0.4664
 3065TIP3    H233391   4.648   5.827  18.157 -1.3567  0.5343  1.6258
 3066TIP3   OH233392   5.947   3.129  17.945 -0.5151  0.1443  0.1303
 3066TIP3    H133393   5.945   3.037  17.919 -1.4394 -0.6408  2.6791
 3066TIP3    H233394   5.873   3.168  17.899 -0.4263 -0.4837 -0.5815
 3067TIP3   OH233395   0.367   5.740  17.171 -0.2696 -0.4393 -0.5717
 3067TIP3    H133396   0.277   5.762  17.193 -0.0058  0.1870 -0.0785
 3067TIP3    H233397   0.383   5.655  17.212 -0.7256 -0.7066 -0.9321
 3068TIP3   OH233398   3.261   6.049  16.556 -0.2494  0.2110  0.3630
 3068TIP3    H133399   3.356   6.047  16.572 -0.3645 -1.1576  0.9735
 3068TIP3    H233400   3.222   6.048  16.643 -0.8334 -2.4376  0.1440
 3069TIP3   OH233401   6.212   4.904  17.726  0.1233 -0.0472  0.2255
 3069TIP3    H133402   6.165   4.822  17.712  2.4845 -1.4869  0.1691
 3069TIP3    H233403   6.223   4.940  17.638 -1.1922  0.5468  0.2771
 3070TIP3   OH233404   6.231   5.653  17.876  0.2490 -0.3856  0.3580
 3070TIP3    H133405   6.303   5.711  17.899 -0.1517  0.5831 -0.7189
 3070TIP3    H233406   6.273   5.580  17.829  0.7751 -1.0969  1.8832
 3071TIP3   OH233407   2.864   0.683  16.301  0.4281 -0.6456  0.0798
 3071TIP3    H133408   2.901   0.706  16.216  0.2769  1.0581  0.4281
 3071TIP3    H233409   2.784   0.735  16.307  0.9904  0.0978  1.6910
 3072TIP3   OH233410   6.402   2.426  18.533 -0.1035  0.1572  0.3867
 3072TIP3    H133411   6.470   2.360  18.521 -0.2012  0.1131  0.0578
 3072TIP3    H233412   6.447   2.509  18.520  0.4129  0.2791  2.5054
 3073TIP3   OH233413   1.846   2.504  16.927 -0.4213 -0.1290 -0.2428
 3073TIP3    H133414   1.800   2.537  17.005  0.2643  0.7901 -0.2023
 3073TIP3    H233415   1.779   2.456  16.878 -1.5168  1.4297 -0.3456
 3074TIP3   OH233416   3.083   1.455  16.082 -0.4749  0.1296 -0.1474
 3074TIP3    H133417   3.042   1.421  16.162 -0.6286  1.4593  0.3725
 3074TIP3    H233418   3.046   1.402  16.012 -0.1687 -1.2131  0.6788
 3075TIP3   OH233419   3.676   0.372  17.582 -0.0358  0.1897  0.0894
 3075TIP3    H133420   3.624   0.292  17.577  0.7219 -0.3100 -0.0113
 3075TIP3    H233421   3.613   0.441  17.606 -0.5682 -0.5645  0.9432
 3076TIP3   OH233422   5.497   7.019  17.839 -0.2103 -0.3915  0.4000
 3076TIP3    H133423   5.518   7.101  17.884  0.6490 -0.3108 -0.1337
 3076TIP3    H233424   5.578   6.994  17.794 -0.1203 -2.0840  1.3976
 3077TIP3   OH233425   7.647   4.880  17.004  0.4055  0.2966 -0.2952
 3077TIP3    H133426   7.646   4.804  16.945 -0.1966 -0.0280  0.1130
 3077TIP3    H233427   7.719   4.862  17.064  0.7068  0.3888 -0.6273
 3078TIP3   OH233428   3.726   6.720  17.055  0.1288 -0.0399 -0.1400
 3078TIP3    H133429   3.664   6.680  17.116  0.4534  2.6461  2.2056
 3078TIP3    H233430   3.693   6.697  16.968 -3.5500  0.3175  0.9789
 3079TIP3   OH233431   3.917   4.809  17.961  0.4208  0.1815 -0.3936
 3079TIP3    H133432   3.927   4.714  17.955  0.8563  0.1886  0.1135
 3079TIP3    H233433   3.929   4.840  17.871 -0.2681 -0.2865 -0.6522
 3080TIP3   OH233434   2.199   5.965  17.084  0.4273  0.5717  0.0870
 3080TIP3    H133435   2.235   6.049  17.055  0.8788  0.7553  1.1504
 3080TIP3    H233436   2.266   5.928  17.141 -0.2834  0.0375  0.5966
 3081TIP3   OH233437   7.568   6.756  18.119  0.6911  0.1615  0.1960
 3081TIP3    H133438   7.505   6.826  18.105  0.2621 -0.2596 -0.0098
 3081TIP3    H233439   7.622   6.787  18.192  0.9861  1.0277 -0.3728
 3082TIP3   OH233440   6.321   5.318  18.668 -0.0614 -0.2993 -0.1156
 3082TIP3    H133441   6.352   5.229  18.680 -0.2010 -0.3463 -0.1069
 3082TIP3    H233442   6.336   5.336  18.575  1.5966  0.2821  0.2298
 3083TIP3   OH233443   6.080   4.650  18.819  0.0318  0.0356 -0.0819
 3083TIP3    H133444   6.031   4.568  18.815  2.5745 -1.6441  0.7561
 3083TIP3    H233445   6.015   4.718  18.801 -2.0347 -2.1848 -1.5687
 3084TIP3   OH233446   0.847   3.384  16.751  0.5184 -0.0661  0.2691
 3084TIP3    H133447   0.870   3.338  16.669 -2.5777 -0.3921 -0.5272
 3084TIP3    H233448   0.827   3.473  16.723  0.2400  0.0344  0.7936
 3085TIP3   OH233449   4.953   1.738  18.034 -0.4750  0.5795 -0.7246
 3085TIP3    H133450   5.004   1.749  18.114 -0.1790  0.8704 -0.9489
 3085TIP3    H233451   4.981   1.810  17.978 -1.2625  0.8489 -0.7860
 3086TIP3   OH233452   5.539   1.231  16.699  0.0923  0.0173  0.1610
 3086TIP3    H133453   5.543   1.137  16.716  1.5916 -0.0582 -0.4472
 3086TIP3    H233454   5.498   1.238  16.613  0.5637 -0.1219 -0.0766
 3087TIP3   OH233455   1.342   1.438  18.051 -0.2090 -0.3082 -0.6146
 3087TIP3    H133456   1.424   1.458  18.097  0.3018 -1.8143 -0.8023
 3087TIP3    H233457   1.366   1.369  17.989 -1.7242 -1.1785 -0.2762
 3088TIP3   OH233458   4.863   7.055  17.172  0.2927  0.7787  0.2945
 3088TIP3    H133459   4.839   7.070  17.263  1.5369 -0.1412  0.7903
 3088TIP3    H233460   4.785   7.015  17.132 -0.3958  1.5549  0.8293
 3089TIP3   OH233461   6.250   6.170  17.967  0.3616 -0.1038 -0.2500
 3089TIP3    H133462   6.292   6.121  17.896  3.0952 -1.3340  1.9982
 3089TIP3    H233463   6.174   6.117  17.991  1.2922 -1.4762 -0.1725
 3090TIP3   OH233464   6.496   2.163  18.215 -0.3291  0.4253 -0.5601
 3090TIP3    H133465   6.529   2.182  18.127 -0.6347  2.2273 -0.3231
 3090TIP3    H233466   6.478   2.069  18.214  2.8260 -0.3006 -1.3485
 3091TIP3   OH233467   5.360   6.680  16.973  0.2840  0.1533 -0.0203
 3091TIP3    H133468   5.299   6.731  16.919 -0.0060  0.4780  0.6088
 3091TIP3    H233469   5.381   6.604  16.918 -0.9346 -0.1344 -0.1332
 3092TIP3   OH233470   2.559   2.411  17.482  0.0149 -0.6912 -0.1135
 3092TIP3    H133471   2.556   2.469  17.558 -0.9814 -0.8766  0.0049
 3092TIP3    H233472   2.642   2.432  17.439  0.4023 -0.3031  0.8009
 3093TIP3   OH233473   2.418   4.577  17.174 -0.4010  0.2668  0.2923
 3093TIP3    H133474   2.465   4.628  17.108 -1.1746  0.5473 -0.0492
 3093TIP3    H233475   2.414   4.635  17.251 -0.3718  0.3240  0.2503
 3094TIP3   OH233476   4.014   1.008  17.313  1.0214 -0.3049  0.2972
 3094TIP3    H133477   3.920   1.025  17.311  0.7943 -0.9600  2.3309
 3094TIP3    H233478   4.030   0.950  17.239 -0.1097  0.0830 -0.2713
 3095TIP3   OH233479   4.425   0.296  18.758 -0.4291 -0.0095  0.0425
 3095TIP3    H133480   4.454   0.285  18.848 -0.2678 -0.4206 -0.0588
 3095TIP3    H233481   4.330   0.288  18.762 -0.4039 -0.2480  0.1424
 3096TIP3   OH233482   0.657   3.316  18.071 -0.2743 -0.1188  0.0272
 3096TIP3    H133483   0.709   3.368  18.133 -1.7038 -0.3438  1.4910
 3096TIP3    H233484   0.642   3.376  17.998  0.4366  0.5813  0.4249
 3097TIP3   OH233485   3.646   0.336  18.008  0.2765 -0.0329  0.1390
 3097TIP3    H133486   3.705   0.368  17.940 -1.7535  2.4907 -0.6000
 3097TIP3    H233487   3.655   0.399  18.079  0.3495 -1.1030  1.1103
 3098TIP3   OH233488   4.516   0.870  16.889  0.3878 -0.3607 -0.3116
 3098TIP3    H133489   4.510   0.897  16.981  0.5142  0.2592 -0.4768
 3098TIP3    H233490   4.568   0.790  16.891 -1.3592 -1.5351  0.3594
 3099TIP3   OH233491   0.704   7.266  16.709 -0.5467 -0.1161 -0.2748
 3099TIP3    H133492   0.666   7.212  16.640 -1.8306 -0.6313  0.8121
 3099TIP3    H233493   0.718   7.206  16.782  0.0461  0.5902  0.2042
 3100TIP3   OH233494   7.414   1.889  16.744 -1.0539 -0.7897 -0.1659
 3100TIP3    H133495   7.453   1.976  16.747 -0.9410 -0.8670  0.8419
 3100TIP3    H233496   7.422   1.862  16.652  0.2106 -0.3319 -0.2065
 3101TIP3   OH233497   5.863   3.520  17.362 -0.6140 -0.1546 -0.5937
 3101TIP3    H133498   5.913   3.592  17.401 -0.2331 -0.3750 -0.6723
 3101TIP3    H233499   5.789   3.508  17.421 -0.8214  0.4735 -0.7142
 3102TIP3   OH233500   6.886   2.379  17.117 -0.3527  0.0889  0.0558
 3102TIP3    H133501   6.800   2.422  17.116 -1.4503 -1.8064 -3.4094
 3102TIP3    H233502   6.895   2.345  17.206 -3.3543  0.0800  0.4501
 3103TIP3   OH233503   6.564   6.821  17.209  0.2693 -0.3700 -0.1713
 3103TIP3    H133504   6.655   6.821  17.179  0.0725  1.2665 -0.8985
 3103TIP3    H233505   6.512   6.831  17.129 -0.4041  1.4458  0.4451
 3104TIP3   OH233506   1.959   0.609  17.784  0.8342  0.0063 -0.1454
 3104TIP3    H133507   2.034   0.623  17.843  0.6559  0.1919  0.0397
 3104TIP3    H233508   1.897   0.558  17.835  0.1772  1.1494  0.2545
 3105TIP3   OH233509   5.263   5.360  17.745  0.1145 -0.4293 -0.1562
 3105TIP3    H133510   5.224   5.446  17.728 -0.6419 -0.6409  0.4541
 3105TIP3    H233511   5.329   5.350  17.677 -0.0161  0.4952 -0.4380
 3106TIP3   OH233512   6.233   5.493  17.643 -0.0616  0.3865  0.5579
 3106TIP3    H133513   6.290   5.566  17.618 -2.1820  1.5038 -1.4659
 3106TIP3    H233514   6.284   5.415  17.626  0.4350  1.2744 -2.7273
 3107TIP3   OH233515   3.372   1.966  17.621  0.2692 -0.1051  0.6189
 3107TIP3    H133516   3.359   1.885  17.671  0.3044  0.7478  2.0391
 3107TIP3    H233517   3.292   1.975  17.570  1.6421 -2.9128 -2.4234
 3108TIP3   OH233518   1.909   2.770  17.812 -0.2257 -0.4687  0.2692
 3108TIP3    H133519   1.836   2.717  17.780 -0.1462 -1.2732  1.3763
 3108TIP3    H233520   1.987   2.722  17.786 -0.0811  0.2075 -0.5962
 3109TIP3   OH233521   4.665   3.896  16.774 -0.0333 -0.1607  0.3343
 3109TIP3    H133522   4.724   3.829  16.739  0.8378  0.7727  0.0023
 3109TIP3    H233523   4.582   3.849  16.788  0.7176 -1.4450  0.6582
 3110TIP3   OH233524   0.137   1.348  16.556 -0.1254 -0.1047 -0.1469
 3110TIP3    H133525   0.132   1.331  16.462  0.3637 -0.2203 -0.1539
 3110TIP3    H233526   0.045   1.353  16.585 -0.2806 -1.3544 -0.3898
 3111TIP3   OH233527   1.591   6.738  18.108 -0.1410  0.2674 -0.6826
 3111TIP3    H133528   1.606   6.786  18.026 -3.1740 -0.1055 -1.5793
 3111TIP3    H233529   1.554   6.654  18.080  1.7078 -1.2143  1.0077
 3112TIP3   OH233530   6.843   5.069  16.976  0.3335  0.5493  0.3179
 3112TIP3    H133531   6.760   5.091  16.933  1.1134  0.3015 -1.4057
 3112TIP3    H233532   6.910   5.092  16.912  1.5173 -0.7429  1.0358
 3113TIP3   OH233533   5.924   4.674  17.082 -0.3100 -0.7184  0.7002
 3113TIP3    H133534   5.941   4.581  17.064  0.9789 -0.3271 -0.2385
 3113TIP3    H233535   5.861   4.673  17.154 -0.7724 -2.3240  0.3174
 3114TIP3   OH233536   5.548   3.408  18.869  0.3549 -0.0320  0.3301
 3114TIP3    H133537   5.493   3.390  18.793 -0.0284 -0.1822  0.6447
 3114TIP3    H233538   5.489   3.407  18.944  0.8177 -0.4496  0.7027
 3115TIP3   OH233539   5.285   0.680  17.762 -0.5051  0.3845  0.4784
 3115TIP3    H133540   5.237   0.750  17.806 -1.2535  0.4042 -0.3366
 3115TIP3    H233541   5.317   0.720  17.681  0.9031  0.3670  0.9932
 3116TIP3   OH233542   6.366   5.273  16.681  0.1672 -0.0493  0.0358
 3116TIP3    H133543   6.318   5.293  16.600  1.4352 -0.0907 -0.7446
 3116TIP3    H233544   6.456   5.258  16.653  0.1308 -2.8623  1.0628
 3117TIP3   OH233545   1.578   6.331  17.310 -0.4360  0.4905  0.2111
 3117TIP3    H133546   1.655   6.374  17.272 -1.9669  1.2244 -2.3014
 3117TIP3    H233547   1.612   6.251  17.349  1.8465  1.6944  0.8456
 3118TIP3   OH233548   4.517   3.884  16.464  0.1744 -0.2880  0.3286
 3118TIP3    H133549   4.432   3.851  16.434  0.0206 -0.2608  0.7220
 3118TIP3    H233550   4.575   3.808  16.461  0.0438 -0.3916  0.3952
 3119TIP3   OH233551   1.713   7.251  18.624 -0.0753 -0.5111  0.1220
 3119TIP3    H133552   1.643   7.308  18.592 -0.5347 -1.6358 -0.9704
 3119TIP3    H233553   1.756   7.302  18.693 -0.2877  1.2521 -0.9833
 3120TIP3   OH233554   5.744   5.016  19.069 -0.2038  0.0309 -0.6915
 3120TIP3    H133555   5.823   5.057  19.104 -0.1393  0.0698 -0.8783
 3120TIP3    H233556   5.698   4.982  19.146 -0.2860  0.5051 -0.5279
 3121TIP3   OH233557   3.287   5.712  17.491 -0.0202 -0.1155 -0.2007
 3121TIP3    H133558   3.320   5.740  17.405  1.5967 -2.3941 -0.4070
 3121TIP3    H233559   3.192   5.723  17.484  0.2376  1.8679 -1.4424
 3122TIP3   OH233560   3.181   2.474  17.487  0.1405  0.4845 -0.4836
 3122TIP3    H133561   3.175   2.569  17.494  0.0132  0.6140 -1.9216
 3122TIP3    H233562   3.273   2.457  17.467  0.5563  0.1348  1.5624
 3123TIP3   OH233563   0.783   2.459  15.959 -0.4737  0.4190  0.0386
 3123TIP3    H133564   0.710   2.520  15.974  0.4922  1.6597 -0.1249
 3123TIP3    H233565   0.847   2.510  15.910 -0.4279 -1.3353 -1.8277
 3124TIP3   OH233566   5.688   5.012  17.564  0.3531  0.0723 -0.1686
 3124TIP3    H133567   5.632   4.964  17.503  0.8327  0.9016 -1.2875
 3124TIP3    H233568   5.721   4.945  17.624 -2.4989 -0.3583  1.1138
 3125TIP3   OH233569   0.931   1.570  17.312 -0.2215  0.0274  0.0301
 3125TIP3    H133570   0.996   1.571  17.242 -1.7696  1.5024 -1.4962
 3125TIP3    H233571   0.915   1.478  17.329  1.8825 -0.3710  0.1403
 3126TIP3   OH233572   3.040   4.826  17.179 -0.1252 -0.0066  0.4572
 3126TIP3    H133573   2.965   4.795  17.229 -0.4169 -2.7858 -1.4648
 3126TIP3    H233574   3.110   4.763  17.198  1.0172  1.1973  0.4178
 3127TIP3   OH233575   5.272   7.335  16.572  0.5320  0.2875  0.3908
 3127TIP3    H133576   5.283   7.385  16.491  0.1127 -0.9330 -0.4585
 3127TIP3    H233577   5.361   7.324  16.606  0.6878  1.0252  0.2271
 3128TIP3   OH233578   7.421   2.696  17.625  0.0284  0.0426  0.5056
 3128TIP3    H133579   7.516   2.698  17.628  0.0982 -1.8092  1.4204
 3128TIP3    H233580   7.396   2.652  17.706 -1.6203  0.6370  0.3567
 3129TIP3   OH233581   1.708   2.724  17.466  0.2516  0.0481 -0.0809
 3129TIP3    H133582   1.627   2.746  17.421  0.4583 -1.8957 -1.5442
 3129TIP3    H233583   1.764   2.801  17.453 -0.5491  0.4904 -1.1009
 3130TIP3   OH233584   4.305   0.318  18.096  0.2410 -0.3520  0.2414
 3130TIP3    H133585   4.341   0.394  18.142  0.2191 -0.0768 -0.1821
 3130TIP3    H233586   4.212   0.320  18.117 -0.1013  0.7975 -1.1787
 3131TIP3   OH233587   0.988   6.703  16.206  0.0239  0.0473 -0.4275
 3131TIP3    H133588   0.921   6.659  16.154  0.1962  0.3460 -0.9013
 3131TIP3    H233589   1.050   6.737  16.142  0.2692  0.3648 -0.0232
 3132TIP3   OH233590   7.398   4.916  18.755  0.6549 -0.3552 -0.7437
 3132TIP3    H133591   7.477   4.955  18.793 -0.7772  0.6070  1.4561
 3132TIP3    H233592   7.378   4.843  18.813  0.4023 -1.1535 -1.8146
 3133TIP3   OH233593   6.197   1.792  17.230 -0.1661  0.6786  0.3010
 3133TIP3    H133594   6.145   1.836  17.296 -1.3591  1.6354 -1.2219
 3133TIP3    H233595   6.134   1.764  17.164  0.4747 -3.3617  1.0916
 3134TIP3   OH233596   5.174   3.574  17.995 -0.0226 -0.4352  0.6409
 3134TIP3    H133597   5.259   3.541  18.024  0.5132  1.1768  0.9667
 3134TIP3    H233598   5.151   3.518  17.920 -0.0971 -2.8039  2.3260
 3135TIP3   OH233599   0.249   6.832  16.673  0.4992 -0.0285  0.2504
 3135TIP3    H133600   0.200   6.855  16.593 -0.2462 -2.1028  0.0505
 3135TIP3    H233601   0.340   6.848  16.650  0.2278  0.1321 -0.7784
 3136TIP3   OH233602   3.279   6.525  16.918 -0.5902 -0.1927  0.1621
 3136TIP3    H133603   3.279   6.488  16.830  1.1568  0.1906 -0.0370
 3136TIP3    H233604   3.233   6.609  16.909  0.6850  0.4466 -0.6954
 3137TIP3   OH233605   4.276   2.284  17.758  0.1100  0.7878 -0.3931
 3137TIP3    H133606   4.282   2.300  17.664  1.2601  0.4852 -0.3938
 3137TIP3    H233607   4.347   2.222  17.776  0.1777  1.1697  0.7427
 3138TIP3   OH233608   2.910   6.834  17.316 -0.4302 -0.4999  0.0773
 3138TIP3    H133609   2.956   6.787  17.385  0.8635 -0.1417 -0.5147
 3138TIP3    H233610   2.948   6.922  17.316 -0.4620 -0.4609 -1.0292
 3139TIP3   OH233611   1.656   5.623  17.411 -0.0098 -0.2613 -0.0978
 3139TIP3    H133612   1.697   5.543  17.377  0.5012 -1.1498  2.3523
 3139TIP3    H233613   1.562   5.604  17.410  0.0849 -0.7628  0.1149
 3140TIP3   OH233614   2.393   2.666  18.609 -0.3505  0.2619 -0.4145
 3140TIP3    H133615   2.400   2.572  18.626 -0.6636  0.5686  1.7616
 3140TIP3    H233616   2.474   2.703  18.643 -0.7527  0.8926 -0.1122
 3141TIP3   OH233617   2.162   3.578  17.117 -0.0685  0.1633 -0.1132
 3141TIP3    H133618   2.210   3.574  17.200 -0.2690  2.2372  0.1592
 3141TIP3    H233619   2.083   3.627  17.138 -1.9567 -2.4150 -0.7731
 3142TIP3   OH233620   1.181   4.488  16.918  0.1007  0.6944  0.3142
 3142TIP3    H133621   1.134   4.485  17.001  0.4865  1.8494  0.5887
 3142TIP3    H233622   1.204   4.581  16.906  1.4731  0.3026 -0.2885
 3143TIP3   OH233623   2.358   2.781  16.968 -0.0703 -0.0553 -0.0564
 3143TIP3    H133624   2.358   2.877  16.970 -1.3334 -0.0454  0.8281
 3143TIP3    H233625   2.266   2.758  16.954  0.4396 -1.1496 -1.8911
 3144TIP3   OH233626   3.649   7.560  18.628  0.0151 -0.0719  0.8079
 3144TIP3    H133627   3.679   7.648  18.652  1.2449 -0.0325 -0.7155
 3144TIP3    H233628   3.592   7.576  18.552 -0.1173 -0.5549  0.8067
 3145TIP3   OH233629   1.006   7.183  17.875 -0.0949 -0.0135  0.3715
 3145TIP3    H133630   1.077   7.120  17.882 -0.1400  0.0303  1.2258
 3145TIP3    H233631   1.026   7.232  17.795  1.5765  0.8922  1.2863
 3146TIP3   OH233632   2.567   6.206  16.626  0.5736 -0.2544  0.8091
 3146TIP3    H133633   2.505   6.238  16.560  1.8223  1.0452  0.2025
 3146TIP3    H233634   2.601   6.125  16.589 -0.5988 -0.8688  1.0545
 3147TIP3   OH233635   2.592   5.079  16.522  0.0273 -0.0108  0.1394
 3147TIP3    H133636   2.560   5.170  16.524  2.5316  0.9479  1.7431
 3147TIP3    H233637   2.554   5.042  16.443 -0.7257  2.5663 -0.8171
 3148TIP3   OH233638   5.094   2.031  18.329  0.0091 -0.4700  0.2136
 3148TIP3    H133639   5.071   1.945  18.295 -1.8201 -0.2695  0.7999
 3148TIP3    H233640   5.174   2.018  18.379 -0.3650 -1.8914  0.4745
 3149TIP3   OH233641   7.278   5.606  19.109 -0.3553  0.6890 -0.2910
 3149TIP3    H133642   7.203   5.645  19.063 -1.2949  0.5300  1.0722
 3149TIP3    H233643   7.271   5.639  19.199  0.0447 -0.9409  0.3641
 3150TIP3   OH233644   5.565   2.760  18.365  0.2249 -0.2601 -0.0503
 3150TIP3    H133645   5.509   2.762  18.288 -0.5219 -0.1771  0.4845
 3150TIP3    H233646   5.652   2.782  18.332 -0.0182 -0.5821 -0.9191
 3151TIP3   OH233647   3.588   3.216  17.051  0.7073  0.3034  0.0418
 3151TIP3    H133648   3.651   3.282  17.021  1.7600 -0.6408  0.1163
 3151TIP3    H233649   3.642   3.146  17.086 -0.4305  0.0508  1.3776
 3152TIP3   OH233650   2.391   6.613  18.477 -0.2692 -0.2383  0.6275
 3152TIP3    H133651   2.405   6.527  18.437 -4.3771 -0.8177  0.0165
 3152TIP3    H233652   2.354   6.666  18.406 -1.1394  0.9090  1.8957
 3153TIP3   OH233653   0.479   5.938  16.984 -0.2843  0.6133  0.4893
 3153TIP3    H133654   0.516   6.013  17.031 -0.3394  0.2072  1.2039
 3153TIP3    H233655   0.422   5.896  17.049  1.0182 -0.9992  0.6529
 3154TIP3   OH233656   4.991   7.533  18.648 -0.5221 -0.4083 -0.4464
 3154TIP3    H133657   5.068   7.504  18.599  0.5093  1.8613 -0.3188
 3154TIP3    H233658   5.014   7.521  18.740  0.0769  1.0918 -0.3806
 3155TIP3   OH233659   1.250   6.816  18.849 -0.0732 -0.3016 -0.0487
 3155TIP3    H133660   1.181   6.756  18.875 -0.0021 -0.1003  0.6268
 3155TIP3    H233661   1.209   6.874  18.785 -0.6337  0.0435  0.6141
 3156TIP3   OH233662   4.718   4.727  16.716 -0.2464 -0.1792  0.4657
 3156TIP3    H133663   4.660   4.745  16.642 -2.5904  0.4360  2.3421
 3156TIP3    H233664   4.787   4.672  16.679 -0.9562  0.6066 -2.2810
 3157TIP3   OH233665   4.959   0.847  18.786  0.7253 -0.1569  0.7705
 3157TIP3    H133666   4.934   0.916  18.847 -1.2441 -1.7499  1.9061
 3157TIP3    H233667   4.910   0.770  18.816 -0.0056 -1.1495 -2.5424
 3158TIP3   OH233668   3.980   3.411  17.314  0.2259  0.4438 -0.0436
 3158TIP3    H133669   3.953   3.365  17.234  0.5461  0.6158 -0.2541
 3158TIP3    H233670   4.073   3.430  17.300  0.1110  1.1119  0.0621
 3159TIP3   OH233671   3.662   5.067  18.782 -0.2303  0.3990  0.4069
 3159TIP3    H133672   3.756   5.052  18.787 -0.2669  0.0000 -0.0337
 3159TIP3    H233673   3.637   5.037  18.694 -0.8419  0.0688  0.6864
 3160TIP3   OH233674   3.494   1.131  17.937  0.1823  0.3437  0.0318
 3160TIP3    H133675   3.431   1.091  17.877  0.0864  0.3921  0.0984
 3160TIP3    H233676   3.454   1.123  18.024  0.1829  0.5425  0.0527
 3161TIP3   OH233677   6.238   1.540  17.563  0.5247  0.0725 -0.4742
 3161TIP3    H133678   6.209   1.487  17.489 -1.4295  1.4040 -0.7150
 3161TIP3    H233679   6.273   1.476  17.626 -0.6569 -1.3794 -1.2338
 3162TIP3   OH233680   1.573   3.020  18.089 -0.5843 -0.1857 -0.1245
 3162TIP3    H133681   1.663   2.990  18.077 -0.2559  0.9497 -0.6249
 3162TIP3    H233682   1.533   2.954  18.146 -0.5177 -2.7076 -2.7805
 3163TIP3   OH233683   6.387   1.566  18.125 -0.1783  0.3231 -0.2359
 3163TIP3    H133684   6.419   1.565  18.215 -0.0571 -0.2076 -0.2767
 3163TIP3    H233685   6.294   1.589  18.133 -0.7455 -1.8777  0.2480
 3164TIP3   OH233686   6.448   7.467  17.769  0.4147  0.2968  0.1778
 3164TIP3    H133687   6.515   7.487  17.704 -0.6144  0.5638 -0.8336
 3164TIP3    H233688   6.432   7.373  17.759  0.3957  0.2994  0.1831
 3165TIP3   OH233689   4.661   3.010  16.843 -0.1805  0.5539  0.5559
 3165TIP3    H133690   4.667   2.940  16.908 -0.4070  0.7577  0.7971
 3165TIP3    H233691   4.615   2.971  16.769  0.5728  0.1505  0.2831
 3166TIP3   OH233692   4.647   4.162  17.313  0.1502 -0.0828  0.0052
 3166TIP3    H133693   4.589   4.238  17.326  0.6301  0.3923 -0.5528
 3166TIP3    H233694   4.732   4.191  17.346  0.6625  0.1081 -1.4191
 3167TIP3   OH233695   1.096   4.700  16.557 -0.1781  0.2705 -0.1399
 3167TIP3    H133696   1.074   4.616  16.518 -0.0149  0.1577  0.0076
 3167TIP3    H233697   1.063   4.765  16.496  0.4084  0.0955 -0.6506
 3168TIP3   OH233698   0.612   5.911  18.280 -0.1212 -0.6527  0.3209
 3168TIP3    H133699   0.614   6.000  18.246 -0.2990  0.1097  2.1581
 3168TIP3    H233700   0.529   5.875  18.249  0.2543 -0.4312 -0.9913
 3169TIP3   OH233701   4.923   5.649  18.650 -0.1612  0.3018  0.4124
 3169TIP3    H133702   4.849   5.709  18.657  0.6032  1.3342 -0.0269
 3169TIP3    H233703   5.000   5.706  18.644  0.5163 -0.6779 -0.9401
 3170TIP3   OH233704   3.762   2.496  17.414 -0.1323 -0.3900  0.3346
 3170TIP3    H133705   3.833   2.539  17.462  0.6752 -0.0553 -1.0915
 3170TIP3    H233706   3.800   2.414  17.383 -0.5307 -0.4590  0.0225
 3171TIP3   OH233707   3.552   6.090  16.397 -0.0428 -0.1447 -0.3188
 3171TIP3    H133708   3.622   6.102  16.332  0.5949  1.0449  0.5488
 3171TIP3    H233709   3.571   6.005  16.438  1.2983  0.4619  0.3629
 3172TIP3   OH233710   4.846   4.639  17.710  0.1711 -0.1768 -0.1520
 3172TIP3    H133711   4.826   4.578  17.781  0.2024  1.3460  1.2294
 3172TIP3    H233712   4.811   4.723  17.740  0.9247  0.6908 -1.5886
 3173TIP3   OH233713   2.078   0.565  17.102  0.2399 -0.5230  0.1182
 3173TIP3    H133714   2.008   0.536  17.044 -0.3363 -1.4422  1.2534
 3173TIP3    H233715   2.144   0.495  17.098  0.6605 -0.1198 -0.1865
 3174TIP3   OH233716   2.600   7.617  16.687 -0.0257  0.0172 -0.1696
 3174TIP3    H133717   2.671   7.650  16.632 -0.6086 -0.7977 -1.4767
 3174TIP3    H233718   2.533   7.685  16.683 -0.3051 -0.2819 -1.0034
 3175TIP3   OH233719   4.819   4.849  19.067 -0.7738  0.2707  0.1051
 3175TIP3    H133720   4.901   4.800  19.065 -0.5951  0.5567  0.2211
 3175TIP3    H233721   4.847   4.941  19.073 -1.0895  0.4303 -0.6809
 3176TIP3   OH233722   7.464   0.630  16.774  0.8977  0.4039  0.0085
 3176TIP3    H133723   7.444   0.622  16.681  3.0181 -2.9074 -0.3595
 3176TIP3    H233724   7.501   0.717  16.784  1.5108  0.4933 -2.4822
 3177TIP3   OH233725   7.572   0.449  18.060 -0.1848  0.2198 -0.4521
 3177TIP3    H133726   7.636   0.389  18.101  0.5778  0.8790 -0.6506
 3177TIP3    H233727   7.543   0.402  17.982 -1.7363 -1.1020  0.8377
 3178TIP3   OH233728   2.641   6.496  18.185  0.4932 -0.1439  0.1945
 3178TIP3    H133729   2.636   6.588  18.159  0.8688  0.1624  1.1617
 3178TIP3    H233730   2.733   6.473  18.171  0.0854 -0.8582 -1.5696
 3179TIP3   OH233731   6.661   2.736  16.784  0.0062  0.1447 -0.3036
 3179TIP3    H133732   6.756   2.722  16.793  0.2608  0.3703 -2.2081
 3179TIP3    H233733   6.627   2.651  16.758  0.0462  0.5594 -1.8110
 3180TIP3   OH233734   5.457   2.030  16.053 -0.3849 -0.0029  0.5790
 3180TIP3    H133735   5.446   2.124  16.067  0.0517  0.3707 -1.3439
 3180TIP3    H233736   5.539   2.023  16.003  0.1072 -1.4946  1.5360
 3181TIP3   OH233737   4.617   2.570  17.275  0.1241 -0.0670  0.8385
 3181TIP3    H133738   4.582   2.484  17.296 -1.5562  0.1246 -0.9092
 3181TIP3    H233739   4.554   2.631  17.312 -0.7009  0.3083 -1.0625
 3182TIP3   OH233740   4.381   1.403  16.180  0.1701  0.1253  0.3029
 3182TIP3    H133741   4.381   1.355  16.263 -1.0099  0.4041  0.4764
 3182TIP3    H233742   4.382   1.496  16.206  0.9331  0.2204 -0.0209
 3183TIP3   OH233743   3.274   6.303  17.920 -0.2913  0.0414  0.4611
 3183TIP3    H133744   3.235   6.282  17.835 -0.9329  0.6850  0.5935
 3183TIP3    H233745   3.279   6.218  17.965 -0.3099 -0.2443 -0.0591
 3184TIP3   OH233746   0.901   6.022  18.730  0.6497  0.0054 -0.2368
 3184TIP3    H133747   0.988   6.024  18.691  1.2497  3.0482  1.0028
 3184TIP3    H233748   0.916   5.997  18.821 -0.3079 -3.2483 -0.8549
 3185TIP3   OH233749   6.197   4.358  19.160  0.0530 -0.5621  0.5080
 3185TIP3    H133750   6.216   4.393  19.247 -1.8128 -0.1690  0.7831
 3185TIP3    H233751   6.243   4.418  19.100 -0.4294  0.4508  1.1247
 3186TIP3   OH233752   0.112   6.113  16.234 -0.3501  0.2160 -0.6939
 3186TIP3    H133753   0.051   6.139  16.303 -0.1748  0.1482 -0.5115
 3186TIP3    H233754   0.103   6.181  16.167  0.1721  0.8068 -0.1851
 3187TIP3   OH233755   2.739   4.952  17.077  0.4141 -0.1234 -0.4254
 3187TIP3    H133756   2.754   4.994  16.992  1.4837  0.8501  0.2199
 3187TIP3    H233757   2.780   5.010  17.141 -0.3047 -0.8723  0.7718
 3188TIP3   OH233758   2.678   5.737  17.105 -0.3327  0.6428  0.0097
 3188TIP3    H133759   2.594   5.714  17.065 -0.5293 -0.6351  1.0492
 3188TIP3    H233760   2.675   5.832  17.116 -0.0374  1.1346 -3.3889
 3189TIP3   OH233761   7.218   6.959  16.397 -0.0262 -0.1846  0.2529
 3189TIP3    H133762   7.245   6.902  16.325  1.5594  0.1034  0.5844
 3189TIP3    H233763   7.133   6.994  16.369  0.5461 -0.0703 -1.4716
 3190TIP3   OH233764   7.139   2.903  15.945 -0.2969  0.4283 -0.1266
 3190TIP3    H133765   7.192   2.976  15.977  0.2319  0.4989 -1.1395
 3190TIP3    H233766   7.185   2.825  15.975 -0.7607  0.4980  0.7943
 3191TIP3   OH233767   5.320   4.375  17.658  0.2797  0.1054 -0.5414
 3191TIP3    H133768   5.263   4.422  17.597  0.2587  0.9357  0.1077
 3191TIP3    H233769   5.305   4.416  17.743  3.5496  1.9726 -0.7120
 3192TIP3   OH233770   3.064   5.542  17.726  0.3473  0.5467 -0.3412
 3192TIP3    H133771   3.118   5.500  17.659  0.3597 -0.0262  0.0183
 3192TIP3    H233772   3.030   5.621  17.685  0.4114  0.2322 -1.0014
 3193TIP3   OH233773   0.717   3.805  16.290 -0.3079 -0.4626 -0.8358
 3193TIP3    H133774   0.689   3.799  16.199 -2.5830  0.9944 -0.3259
 3193TIP3    H233775   0.667   3.736  16.334 -2.4190  1.4121 -0.1029
 3194TIP3   OH233776   6.782   3.052  18.536  0.2285  0.0538  0.1629
 3194TIP3    H133777   6.691   3.042  18.564 -0.4037  0.3407 -1.6276
 3194TIP3    H233778   6.828   3.085  18.613 -1.0567 -0.6541  1.2680
 3195TIP3   OH233779   5.306   3.881  17.601 -0.5684  0.0091  0.2667
 3195TIP3    H133780   5.334   3.833  17.679 -0.1368 -0.3107 -0.0811
 3195TIP3    H233781   5.387   3.908  17.559 -0.7410  3.1181  1.6587
 3196TIP3   OH233782   0.814   5.756  16.170  0.6333  0.2177  0.6284
 3196TIP3    H133783   0.728   5.750  16.128  1.2028  0.7588 -0.6625
 3196TIP3    H233784   0.802   5.818  16.242  0.2176  1.1929 -0.2717
 3197TIP3   OH233785   2.874   6.673  18.170 -0.1193  0.2502  0.5943
 3197TIP3    H133786   2.898   6.745  18.112  0.4101 -0.1431  0.3264
 3197TIP3    H233787   2.923   6.598  18.138 -0.7535 -0.2661  0.8042
 3198TIP3   OH233788   2.453   7.399  16.762 -0.6317  0.2149  0.0104
 3198TIP3    H133789   2.512   7.355  16.701 -1.1030  0.6203 -0.7501
 3198TIP3    H233790   2.484   7.489  16.766 -1.2472  0.4510 -0.4595
 3199TIP3   OH233791   2.811   4.793  18.325  0.3086  0.0522  0.2694
 3199TIP3    H133792   2.761   4.711  18.329 -1.3779  1.0660  1.4266
 3199TIP3    H233793   2.790   4.829  18.239  2.0027 -1.2306 -0.7461
 3200TIP3   OH233794   6.330   0.504  18.682  0.1130  0.2312 -0.3436
 3200TIP3    H133795   6.367   0.442  18.620 -1.5850  0.7909 -2.0408
 3200TIP3    H233796   6.374   0.587  18.663 -0.8404  0.5432 -1.2784
 3201TIP3   OH233797   0.476   6.837  16.972 -0.4460  0.0787  0.2009
 3201TIP3    H133798   0.531   6.808  16.898 -2.0756  0.0533 -1.0527
 3201TIP3    H233799   0.436   6.756  17.004 -1.1963  0.3211 -0.1161
 3202TIP3   OH233800   3.469   2.208  16.192 -0.4027 -0.5434 -0.1802
 3202TIP3    H133801   3.437   2.263  16.264  0.5277  0.3329 -0.4160
 3202TIP3    H233802   3.427   2.123  16.207 -1.7385  0.1695  0.2855
 3203TIP3   OH233803   6.868   5.974  17.315 -0.6608  0.4461  0.0311
 3203TIP3    H133804   6.801   5.906  17.311 -0.4351  0.2917 -1.9581
 3203TIP3    H233805   6.819   6.055  17.325 -1.0068  0.1645  0.7673
 3204TIP3   OH233806   2.009   5.887  17.644 -0.2906  0.1301  0.1177
 3204TIP3    H133807   2.040   5.922  17.561 -1.5398  0.0309 -0.4227
 3204TIP3    H233808   1.965   5.805  17.621  0.8871 -0.8359  1.1167
 3205TIP3   OH233809   3.372   1.609  17.454 -0.1492 -0.0459  0.4950
 3205TIP3    H133810   3.282   1.600  17.425  0.0686  0.6169 -0.4332
 3205TIP3    H233811   3.415   1.528  17.428  0.2733  0.8806 -2.0082
 3206TIP3   OH233812   5.878   2.159  16.571 -0.4894 -0.0059 -0.1264
 3206TIP3    H133813   5.786   2.133  16.582 -0.7677 -1.0874 -3.6847
 3206TIP3    H233814   5.876   2.231  16.509  1.0820  0.0797 -0.1294
 3207TIP3   OH233815   0.339   2.385  18.315  0.1997  0.3230  0.3104
 3207TIP3    H133816   0.325   2.466  18.266  0.7275  0.1698 -0.1122
 3207TIP3    H233817   0.364   2.321  18.248  2.2504  0.4279  0.9274
 3208TIP3   OH233818   5.837   0.935  17.920 -0.5804 -0.3586  0.4324
 3208TIP3    H133819   5.850   0.987  17.999 -0.8934  0.5346 -0.0966
 3208TIP3    H233820   5.838   0.998  17.849 -0.3455 -1.1538 -0.2804
 3209TIP3   OH233821   1.239   6.399  17.039 -0.3511 -0.3882 -0.1518
 3209TIP3    H133822   1.319   6.378  16.991 -0.5500  0.9322 -1.1357
 3209TIP3    H233823   1.258   6.482  17.082 -0.4587 -1.1605  1.4454
 3210TIP3   OH233824   3.068   2.016  17.028  0.1217  0.0117  0.2810
 3210TIP3    H133825   3.151   2.019  17.076  0.5974 -1.3048 -0.4187
 3210TIP3    H233826   3.064   1.928  16.992 -2.5891 -0.7134  2.0313
 3211TIP3   OH233827   2.649   7.670  17.618  0.2398  0.1772 -0.0363
 3211TIP3    H133828   2.702   7.617  17.677  0.3581  0.6222  0.2585
 3211TIP3    H233829   2.704   7.746  17.599  0.5667 -0.3556 -1.3995
 3212TIP3   OH233830   7.074   2.617  17.056 -0.8005  0.0848  0.4757
 3212TIP3    H133831   7.049   2.527  17.075 -0.4574 -0.7140 -2.3274
 3212TIP3    H233832   7.007   2.648  16.995  0.3691  0.8626 -0.4622
 3213TIP3   OH233833   2.577   2.730  16.789  0.0494 -0.1997 -0.4135
 3213TIP3    H133834   2.563   2.785  16.712 -2.2882 -4.5662 -3.5220
 3213TIP3    H233835   2.503   2.750  16.846  0.0914  0.9286 -0.7344
 3214TIP3   OH233836   3.917   2.342  18.365  0.4981  0.0581  0.9998
 3214TIP3    H133837   3.921   2.420  18.309 -1.1343 -0.1329  0.5646
 3214TIP3    H233838   3.830   2.344  18.404  0.7256 -1.1125  1.6286
 3215TIP3   OH233839   1.428   1.794  17.245 -0.0794  0.0134 -0.0435
 3215TIP3    H133840   1.522   1.813  17.254 -0.2558  0.9505 -0.1264
 3215TIP3    H233841   1.422   1.743  17.164  0.6362 -2.2056  1.2091
 3216TIP3   OH233842   6.227   1.041  17.695  0.5263 -0.1992  0.0091
 3216TIP3    H133843   6.163   1.067  17.629  2.9032  0.5845 -2.1553
 3216TIP3    H233844   6.196   1.081  17.776 -0.8985  1.4575 -1.2785
 3217TIP3   OH233845   7.459   3.477  17.015 -0.4077 -0.0058  0.0552
 3217TIP3    H133846   7.470   3.568  16.987 -0.5960 -0.0125 -0.0417
 3217TIP3    H233847   7.534   3.431  16.976 -1.0037 -0.1362 -0.9933
 3218TIP3   OH233848   7.602   5.941  18.437 -0.4514  0.6231  0.4131
 3218TIP3    H133849   7.583   5.963  18.528 -3.1754  0.2821  0.0202
 3218TIP3    H233850   7.592   6.025  18.391 -1.4856  0.3669  0.1454
 3219TIP3   OH233851   1.373   3.755  17.584 -0.1900 -0.4207  0.4971
 3219TIP3    H133852   1.381   3.696  17.509 -1.0135  1.3408 -1.0630
 3219TIP3    H233853   1.333   3.702  17.652 -0.3920 -1.8197 -0.6592
 3220TIP3   OH233854   6.438   0.905  17.770 -0.0876  0.1933  0.1872
 3220TIP3    H133855   6.358   0.946  17.738  1.5233  1.8992 -1.9919
 3220TIP3    H233856   6.428   0.813  17.748 -0.7137  0.6925 -1.8433
 3221TIP3   OH233857   1.224   0.182  18.517  0.5799 -0.5732  0.3153
 3221TIP3    H133858   1.164   0.152  18.585  0.1531  0.8316  0.5921
 3221TIP3    H233859   1.296   0.118  18.518  0.0504 -1.1716  1.3321
 3222TIP3   OH233860   1.350   2.150  18.154 -0.4958  0.0875  0.4135
 3222TIP3    H133861   1.422   2.150  18.218 -0.6857  2.5686  0.7347
 3222TIP3    H233862   1.330   2.057  18.141  2.0760 -0.6463  1.0635
 3223TIP3   OH233863   7.075   1.293  17.850  0.2885 -0.2060 -0.2131
 3223TIP3    H133864   7.033   1.240  17.918 -0.1415 -2.5182 -2.1514
 3223TIP3    H233865   7.124   1.359  17.899 -2.2442  0.0784  2.2760
 3224TIP3   OH233866   3.051   4.529  18.958  0.1773 -0.2818 -0.2766
 3224TIP3    H133867   3.038   4.434  18.951 -0.5406 -0.1675 -0.5690
 3224TIP3    H233868   2.975   4.560  19.006 -0.8684  0.4365 -2.2549
 3225TIP3   OH233869   6.080   3.692  18.334 -0.2052  0.6870  0.3192
 3225TIP3    H133870   6.170   3.718  18.315  0.6553  0.5394  3.5854
 3225TIP3    H233871   6.035   3.774  18.355 -0.0709  0.5373  1.2557
 3226TIP3   OH233872   5.571   7.618  18.155 -0.2141  0.4162 -0.2775
 3226TIP3    H133873   5.573   7.584  18.244  1.1526 -0.0579 -0.4655
 3226TIP3    H233874   5.559   7.713  18.165  1.0866  0.5198  0.4675
 3227TIP3   OH233875   1.328   4.771  17.707  0.3494 -0.2294 -0.3998
 3227TIP3    H133876   1.397   4.837  17.699  1.0627 -0.9558 -0.3958
 3227TIP3    H233877   1.338   4.737  17.796  1.0800 -1.5070 -0.9541
 3228TIP3   OH233878   3.456   0.547  17.902 -0.1606 -0.1555  0.1398
 3228TIP3    H133879   3.495   0.479  17.956 -1.4017 -0.1467  1.1110
 3228TIP3    H233880   3.494   0.629  17.934 -0.9169 -0.1470  1.0723
 3229TIP3   OH233881   3.495   3.559  18.603 -0.5715  0.4696 -0.1696
 3229TIP3    H133882   3.555   3.490  18.575  0.7089  1.3293  0.3333
 3229TIP3    H233883   3.430   3.514  18.656  0.5011 -0.3087  0.5388
 3230TIP3   OH233884   3.662   0.083  16.758 -0.6059 -0.9034 -0.1722
 3230TIP3    H133885   3.645   0.135  16.836  0.8869 -0.3232 -0.1983
 3230TIP3    H233886   3.617   0.129  16.687 -0.4168 -0.3954  0.0346
 3231TIP3   OH233887   1.512   6.476  18.052  0.1802 -1.0348 -0.8026
 3231TIP3    H133888   1.565   6.397  18.046 -1.8825 -2.5990  0.3795
 3231TIP3    H233889   1.517   6.502  18.144  0.4621 -0.0107 -1.0859
 3232TIP3   OH233890   5.756   1.692  15.939 -0.0911  0.4035 -0.6486
 3232TIP3    H133891   5.833   1.638  15.956 -0.0527  0.3114 -1.1166
 3232TIP3    H233892   5.690   1.631  15.909 -0.1759  0.5602 -0.7801
 3233TIP3   OH233893   3.942   5.002  16.471  0.3302 -0.3233 -0.7879
 3233TIP3    H133894   3.918   4.973  16.559 -0.4242  2.0068 -0.1492
 3233TIP3    H233895   4.038   4.998  16.471  0.2981 -1.6660 -0.3806
 3234TIP3   OH233896   7.281   5.441  16.670  0.2338  0.4559 -0.3476
 3234TIP3    H133897   7.227   5.511  16.706  0.6216 -0.3653  1.9960
 3234TIP3    H233898   7.370   5.462  16.698  0.3974 -0.7886  0.1293
 3235TIP3   OH233899   3.291   3.646  16.680 -0.3733 -0.7130  0.4689
 3235TIP3    H133900   3.303   3.551  16.688 -1.4039 -0.9518 -0.5257
 3235TIP3    H233901   3.287   3.662  16.585 -0.9519  0.2197  0.6335
 3236TIP3   OH233902   6.249   5.340  19.157 -0.4738  0.3806  0.1949
 3236TIP3    H133903   6.289   5.349  19.070 -0.3703 -0.0358  0.1996
 3236TIP3    H233904   6.184   5.410  19.160 -2.4966 -1.3165 -1.3440
 3237TIP3   OH233905   2.456   5.627  18.893 -0.1981 -0.0422 -0.0479
 3237TIP3    H133906   2.380   5.662  18.847 -1.5686  0.2576  2.2765
 3237TIP3    H233907   2.467   5.539  18.856 -1.2719  0.1418 -0.8821
 3238TIP3   OH233908   1.403   3.052  16.734  0.2275  0.6670  0.0481
 3238TIP3    H133909   1.427   2.960  16.745 -0.4609  0.5747  0.8359
 3238TIP3    H233910   1.308   3.054  16.747  0.0840  1.3488 -0.9166
 3239TIP3   OH233911   4.309   0.100  17.832  0.3346 -0.2072 -0.2648
 3239TIP3    H133912   4.229   0.063  17.796  0.5898 -0.5714 -0.4675
 3239TIP3    H233913   4.287   0.191  17.855 -0.6079 -0.7884  1.2699
 3240TIP3   OH233914   1.039   3.426  17.936  0.7393 -0.0333  0.2477
 3240TIP3    H133915   1.027   3.506  17.987  1.2432  1.0873 -1.3213
 3240TIP3    H233916   1.092   3.370  17.993  0.4949  0.7891  1.3256
 3241TIP3   OH233917   0.086   5.201  17.065 -0.6632 -0.3639  0.1556
 3241TIP3    H133918   0.116   5.292  17.068 -1.3378 -0.0795 -1.0354
 3241TIP3    H233919   0.056   5.183  17.154  1.3226 -0.0897  0.9196
 3242TIP3   OH233920   5.375   0.304  17.069 -0.1583 -0.0154 -0.0990
 3242TIP3    H133921   5.459   0.341  17.041 -0.0756 -0.7350 -0.8475
 3242TIP3    H233922   5.315   0.378  17.071  0.1225  0.2515 -1.0986
 3243TIP3   OH233923   0.756   2.831  16.397  0.9768 -0.6388  0.2814
 3243TIP3    H133924   0.729   2.739  16.408  1.3564 -0.7857  0.0239
 3243TIP3    H233925   0.816   2.829  16.322  0.9622 -0.1726  0.2573
 3244TIP3   OH233926   5.425   0.058  17.909  0.2247  0.1500 -0.2908
 3244TIP3    H133927   5.414  -0.034  17.933  0.7781 -0.0020 -0.6070
 3244TIP3    H233928   5.345   0.100  17.940 -0.9870 -0.7950 -1.9493
 3245TIP3   OH233929   1.709   3.958  18.699  0.3185  0.1854  0.6951
 3245TIP3    H133930   1.631   3.988  18.653 -0.2035 -0.6287  1.0283
 3245TIP3    H233931   1.683   3.875  18.739  1.4414 -0.2640  0.5490
 3246TIP3   OH233932   7.088   0.350  17.159  0.0173  0.1842 -0.3230
 3246TIP3    H133933   7.126   0.265  17.180  0.0455  0.6403  1.6416
 3246TIP3    H233934   7.043   0.336  17.076 -0.5140 -1.9077  0.2526
 3247TIP3   OH233935   6.891   3.697  17.034  0.3393 -0.4224  0.2074
 3247TIP3    H133936   6.900   3.686  16.939 -1.6651  0.0207 -0.0864
 3247TIP3    H233937   6.867   3.789  17.045 -0.8715 -0.8150  1.0001
 3248TIP3   OH233938   3.566   5.321  18.217 -1.3330 -0.1986 -0.1860
 3248TIP3    H133939   3.615   5.292  18.140 -1.8589 -1.0238 -0.2166
 3248TIP3    H233940   3.478   5.288  18.204 -1.1791 -1.2829  1.2720
 3249TIP3   OH233941   0.384   5.099  18.522 -0.1092  0.0322  0.4015
 3249TIP3    H133942   0.398   5.104  18.616  2.6752  1.5394  0.0383
 3249TIP3    H233943   0.463   5.056  18.488 -0.1803  1.1562 -1.3490
 3250TIP3   OH233944   4.206   2.472  17.287 -0.0836 -0.7132  0.2330
 3250TIP3    H133945   4.274   2.435  17.230 -0.4773 -1.8573  0.4698
 3250TIP3    H233946   4.124   2.440  17.250 -0.4918  0.4538  0.0976
 3251TIP3   OH233947   4.613   3.457  18.535 -0.0870  0.1324  0.2104
 3251TIP3    H133948   4.543   3.443  18.471 -1.0223  1.8103  0.8064
 3251TIP3    H233949   4.691   3.420  18.493 -1.0111 -0.3775 -1.1454
 3252TIP3   OH233950   5.018   1.912  16.380 -0.3821 -0.3573  0.1854
 3252TIP3    H133951   4.947   1.973  16.358 -1.0716 -0.4201  2.0321
 3252TIP3    H233952   5.098   1.961  16.363 -0.9168  1.2164  1.7912
 3253TIP3   OH233953   6.039   2.700  17.737  0.0455  0.1126  0.1918
 3253TIP3    H133954   6.078   2.645  17.805  0.2085 -0.0908 -0.0635
 3253TIP3    H233955   5.991   2.638  17.682  0.6541  0.1522 -0.3951
 3254TIP3   OH233956   1.273   0.645  17.851  0.4484 -0.2867  0.1871
 3254TIP3    H133957   1.209   0.645  17.922  0.4366  0.2859  0.1729
 3254TIP3    H233958   1.358   0.640  17.895  0.4942  1.2008  0.2868
 3255TIP3   OH233959   3.917   1.300  17.037 -0.0995 -0.2397  0.3244
 3255TIP3    H133960   3.975   1.363  17.080 -0.8783 -0.8473  2.3628
 3255TIP3    H233961   3.975   1.229  17.010  0.7334  1.0883 -1.6828
 3256TIP3   OH233962   0.598   3.779  17.326 -0.1415  0.0522  0.2151
 3256TIP3    H133963   0.568   3.695  17.360 -0.6331  0.5639  1.0824
 3256TIP3    H233964   0.518   3.822  17.294  0.0398  0.3853  0.2061
 3257TIP3   OH233965   1.378   5.500  16.255 -0.0338  1.0492  0.0145
 3257TIP3    H133966   1.378   5.542  16.341  0.0723  0.4000  0.3441
 3257TIP3    H233967   1.456   5.533  16.211  0.1041  1.1172  0.3099
 3258TIP3   OH233968   5.407   5.793  16.772  0.0735 -0.5238 -0.1950
 3258TIP3    H133969   5.456   5.859  16.820  0.1152 -1.1337  0.6230
 3258TIP3    H233970   5.440   5.799  16.682  1.6650 -0.9118  0.3283
 3259TIP3   OH233971   0.461   6.133  19.015 -0.1405 -0.4300  0.2410
 3259TIP3    H133972   0.411   6.101  19.090 -0.1798 -1.4627 -0.1946
 3259TIP3    H233973   0.471   6.055  18.959  0.3263  0.1995 -0.5707
 3260TIP3   OH233974   4.766   4.976  18.662  0.2471  0.3067  0.2345
 3260TIP3    H133975   4.836   5.014  18.715 -0.2203  0.1841  0.9541
 3260TIP3    H233976   4.737   4.900  18.712  0.6652 -0.5706 -0.8309
 3261TIP3   OH233977   2.273   4.856  17.501 -0.3817 -0.3278 -0.3320
 3261TIP3    H133978   2.251   4.827  17.412  0.5705 -3.8027  0.4133
 3261TIP3    H233979   2.189   4.880  17.540 -0.9376  0.2421 -1.8135
 3262TIP3   OH233980   0.154   2.804  16.407  0.1725 -0.2180  0.1989
 3262TIP3    H133981   0.240   2.785  16.444  0.3640  2.3215  1.3098
 3262TIP3    H233982   0.096   2.811  16.484 -0.4286  0.6843 -0.3240
 3263TIP3   OH233983   5.458   2.368  18.824  0.2899 -0.1058 -0.8268
 3263TIP3    H133984   5.480   2.461  18.832  0.0147  0.1658 -2.6604
 3263TIP3    H233985   5.538   2.327  18.791  1.0266 -0.9209  1.7281
 3264TIP3   OH233986   1.957   2.315  16.331  0.1984  0.1747  0.4788
 3264TIP3    H133987   1.927   2.243  16.388 -2.3070  0.4661 -0.3599
 3264TIP3    H233988   1.992   2.380  16.392 -2.9159  0.7267  1.8474
 3265TIP3   OH233989   0.751   5.723  18.756  0.0983  0.0387 -0.3858
 3265TIP3    H133990   0.722   5.801  18.708 -0.8790 -0.3587 -0.4758
 3265TIP3    H233991   0.679   5.705  18.817  2.0607  1.6500  2.6655
 3266TIP3   OH233992   1.523   4.120  18.549  0.1298 -0.7547  0.3953
 3266TIP3    H133993   1.475   4.077  18.478 -0.3424  1.8280 -0.9679
 3266TIP3    H233994   1.482   4.206  18.558  3.1492  0.8155  0.5367
 3267TIP3   OH233995   2.647   3.119  18.113 -0.2583 -0.2496 -0.0420
 3267TIP3    H133996   2.632   3.043  18.057  1.8902 -0.6890 -0.1266
 3267TIP3    H233997   2.623   3.090  18.200 -0.1670 -0.7815 -0.1924
 3268TIP3   OH233998   6.354   5.998  17.762  0.1128 -0.6567  0.2480
 3268TIP3    H133999   6.416   5.965  17.697  0.4896 -3.3097  1.7633
 3268TIP3    H234000   6.348   5.927  17.827 -0.8463  1.4838  2.6804
 3269TIP3   OH234001   1.350   3.577  16.841  0.0639 -0.1360 -0.4003
 3269TIP3    H134002   1.335   3.653  16.898 -0.5817 -1.0615  0.6995
 3269TIP3    H234003   1.442   3.583  16.817 -0.4587  2.2470 -2.2325
 3270TIP3   OH234004   4.968   0.962  18.041  0.2836  0.4398 -0.1635
 3270TIP3    H134005   4.921   1.029  18.092  0.3435 -0.0361  0.5296
 3270TIP3    H234006   4.931   0.879  18.071 -2.8252  0.1896 -3.9595
 3271TIP3   OH234007   0.207   2.182  17.402 -0.5881 -0.0062  0.7707
 3271TIP3    H134008   0.128   2.231  17.380 -1.1862 -0.5864  1.5506
 3271TIP3    H234009   0.277   2.247  17.398 -1.0475  0.4432 -0.2603
 3272TIP3   OH234010   1.050   5.598  18.181 -0.3063  0.0030 -0.1482
 3272TIP3    H134011   1.144   5.583  18.192 -0.2515 -0.2029 -0.8535
 3272TIP3    H234012   1.045   5.678  18.128 -0.5303  0.0977  0.0152
 3273TIP3   OH234013   2.497   4.259  18.505  0.0143  0.2316 -0.2293
 3273TIP3    H134014   2.443   4.331  18.473  1.1531  0.9122 -0.6767
 3273TIP3    H234015   2.486   4.190  18.441 -3.1994 -1.1032  1.5256
 3274TIP3   OH234016   5.152   7.141  18.103 -0.1764 -0.0869 -0.4379
 3274TIP3    H134017   5.079   7.174  18.050 -0.1086 -1.6133 -1.5677
 3274TIP3    H234018   5.229   7.158  18.049  0.2514  0.9113  0.4558
 3275TIP3   OH234019   7.393   3.072  17.933 -0.0586 -0.4178 -0.6391
 3275TIP3    H134020   7.303   3.094  17.911 -0.3028  0.8079  1.2896
 3275TIP3    H234021   7.385   3.016  18.010  0.8135  0.2526 -0.0413
 3276TIP3   OH234022   2.883   5.203  16.992 -0.2062 -0.0497 -0.3388
 3276TIP3    H134023   2.941   5.144  17.040 -1.1208  0.7190  1.8653
 3276TIP3    H234024   2.938   5.240  16.923  1.0724 -1.5379 -0.1673
 3277TIP3   OH234025   2.525   6.490  19.099 -0.1386  0.3651 -0.5241
 3277TIP3    H134026   2.465   6.502  19.172 -0.0590  0.4948 -0.4799
 3277TIP3    H234027   2.598   6.440  19.136 -1.4320 -2.1561 -1.1990
 3278TIP3   OH234028   0.055   1.946  17.229 -0.6175 -0.2658  0.1004
 3278TIP3    H134029   0.016   1.926  17.144 -0.5642  1.1186 -0.2767
 3278TIP3    H234030   0.052   2.042  17.235 -0.3079 -0.3156  1.5136
 3279TIP3   OH234031   4.529   4.492  16.321 -0.2676  0.2199 -0.1858
 3279TIP3    H134032   4.597   4.425  16.331 -0.5036  0.1481  1.1964
 3279TIP3    H234033   4.451   4.451  16.359 -1.2727  0.0844 -2.2246
 3280TIP3   OH234034   3.851   2.244  17.286 -0.4026 -0.4511  0.0274
 3280TIP3    H134035   3.940   2.235  17.251 -0.2831 -0.8099  0.4087
 3280TIP3    H234036   3.811   2.159  17.270 -1.1814  0.1569 -1.4777
 3281TIP3   OH234037   1.561   1.135  18.258  0.3195  0.0563 -1.1018
 3281TIP3    H134038   1.478   1.138  18.210  0.6014  2.6092 -1.5597
 3281TIP3    H234039   1.577   1.042  18.271 -1.3236 -0.6156 -3.2456
 3282TIP3   OH234040   6.833   1.566  16.211  0.6856  0.2732  0.3411
 3282TIP3    H134041   6.790   1.536  16.290  0.1782  0.1258  0.0127
 3282TIP3    H234042   6.810   1.659  16.205 -2.2754 -0.4634 -1.5070
 3283TIP3   OH234043   2.759   3.902  18.038 -1.0094 -0.6992  0.5082
 3283TIP3    H134044   2.683   3.953  18.012 -1.2158 -0.4826  1.5001
 3283TIP3    H234045   2.766   3.833  17.972 -0.3412  0.9468 -1.2496
 3284TIP3   OH234046   3.612   6.499  17.151 -0.4559  0.2064  0.3974
 3284TIP3    H134047   3.684   6.443  17.123 -0.4111 -0.3712  1.5718
 3284TIP3    H234048   3.575   6.453  17.227 -1.1330  1.2222  0.7022
 3285TIP3   OH234049   1.937   7.481  17.434 -0.0454 -0.2930  0.1676
 3285TIP3    H134050   1.997   7.509  17.365 -0.8351  0.6491 -0.1633
 3285TIP3    H234051   1.874   7.552  17.441 -0.9728 -1.1420  0.6887
 3286TIP3   OH234052   3.644   4.039  17.248 -0.2424 -0.6288 -0.3330
 3286TIP3    H134053   3.636   3.953  17.290  0.8381 -0.1076  1.0381
 3286TIP3    H234054   3.739   4.051  17.239 -0.4146 -1.0011 -3.6312
 3287TIP3   OH234055   4.148   3.968  18.222  0.3062 -0.2036 -0.3348
 3287TIP3    H134056   4.149   3.873  18.236  1.3963 -0.3694 -1.3735
 3287TIP3    H234057   4.241   3.993  18.223  0.0616  0.7421 -0.7610
 3288TIP3   OH234058   1.972   2.230  18.384  0.4692 -0.0865 -0.3907
 3288TIP3    H134059   1.909   2.199  18.450 -0.2627  0.8170 -0.6455
 3288TIP3    H234060   1.939   2.194  18.302  0.5975 -0.0604 -0.4532
 3289TIP3   OH234061   7.428   3.279  18.573 -0.4974  0.6710 -0.7211
 3289TIP3    H134062   7.483   3.214  18.528 -1.4509  0.0004 -0.9432
 3289TIP3    H234063   7.489   3.349  18.595  0.1621  0.6776 -2.3806
 3290TIP3   OH234064   1.515   6.460  17.533  0.1166  0.0205 -0.4981
 3290TIP3    H134065   1.553   6.428  17.452 -1.6848 -0.8308 -1.0601
 3290TIP3    H234066   1.520   6.556  17.525  2.9680 -0.0089 -0.0621
 3291TIP3   OH234067   3.657   2.240  17.539  0.6865 -0.0217  0.1132
 3291TIP3    H134068   3.698   2.242  17.453 -0.3663 -0.4038 -0.4030
 3291TIP3    H234069   3.660   2.148  17.565 -0.7153 -0.2292 -0.3733
 3292TIP3   OH234070   5.527   6.571  17.245 -0.2584 -0.4226  0.0900
 3292TIP3    H134071   5.591   6.523  17.299 -1.4447  0.1051  2.0661
 3292TIP3    H234072   5.471   6.502  17.209  0.3216 -0.7598 -0.1925
 3293TIP3   OH234073   1.982   1.520  17.560 -0.1334  0.5714  0.2876
 3293TIP3    H134074   2.030   1.450  17.604  2.1663  0.2194 -2.4744
 3293TIP3    H234075   2.010   1.514  17.469 -2.5469  2.9234 -0.7246
 3294TIP3   OH234076   2.557   4.720  17.413 -0.1185  0.0941 -0.3375
 3294TIP3    H134077   2.592   4.644  17.459  0.6459  0.0734 -0.9135
 3294TIP3    H234078   2.503   4.765  17.477 -0.2747 -0.7306  0.1231
 3295TIP3   OH234079   1.308   6.612  16.645 -0.1213 -0.0600 -0.1847
 3295TIP3    H134080   1.372   6.630  16.575  0.1320 -0.2982 -0.0170
 3295TIP3    H234081   1.227   6.652  16.614  0.6148  2.0984  0.5633
 3296TIP3   OH234082   3.425   3.326  16.715 -0.0890 -0.2738 -0.7159
 3296TIP3    H134083   3.508   3.371  16.701 -0.7156  1.3277  0.3748
 3296TIP3    H234084   3.399   3.296  16.628  1.2147 -0.0629 -1.1994
 3297TIP3   OH234085   0.662   3.022  16.815  0.2329 -0.0360  0.9352
 3297TIP3    H134086   0.601   2.996  16.884 -0.5362  1.0070  0.6747
 3297TIP3    H234087   0.614   3.088  16.764  2.0565  1.8978  1.5696
 3298TIP3   OH234088   2.504   6.330  16.872  0.8098 -0.0559 -0.1282
 3298TIP3    H134089   2.478   6.421  16.857  2.9742  0.7057  0.4106
 3298TIP3    H234090   2.530   6.299  16.785 -0.7120 -0.4657 -0.4654
 3299TIP3   OH234091   7.591   3.868  18.786  0.4997 -0.1580  0.7242
 3299TIP3    H134092   7.561   3.883  18.876  1.3752 -0.9846  1.1784
 3299TIP3    H234093   7.637   3.948  18.762  0.5195 -0.0428  1.1338
 3300TIP3   OH234094   0.014   5.226  17.679  0.4157  0.2246 -0.0916
 3300TIP3    H134095   0.013   5.229  17.775  0.5063 -0.4440 -0.0641
 3300TIP3    H234096  -0.048   5.293  17.652 -0.4932 -0.3819  0.4561
 3301TIP3   OH234097   6.564   6.192  16.916 -0.3129 -0.1141  0.2742
 3301TIP3    H134098   6.616   6.272  16.924 -0.3964  0.0770 -0.9221
 3301TIP3    H234099   6.492   6.216  16.857 -0.2909 -1.0974 -0.1717
 3302TIP3   OH234100   6.337   6.907  18.209  0.4070 -0.3169  0.1286
 3302TIP3    H134101   6.312   6.816  18.194  0.4833 -0.1312 -1.2666
 3302TIP3    H234102   6.386   6.931  18.130 -0.4641  1.2336  0.0311
 3303TIP3   OH234103   4.818   1.543  16.146 -0.4253  0.6140 -0.3078
 3303TIP3    H134104   4.884   1.532  16.215 -0.9199 -0.8478 -0.0337
 3303TIP3    H234105   4.750   1.597  16.187 -0.2313  0.6354 -0.0098
 3304TIP3   OH234106   4.755   4.336  17.097  0.0453  0.3110  0.5906
 3304TIP3    H134107   4.710   4.304  17.176 -0.6470 -1.0279 -0.3091
 3304TIP3    H234108   4.804   4.260  17.065 -1.4114  0.1699 -1.4715
 3305TIP3   OH234109   7.568   3.702  16.912 -0.0171 -0.4635  0.3416
 3305TIP3    H134110   7.563   3.676  16.820  1.7794  1.4244 -0.3498
 3305TIP3    H234111   7.547   3.795  16.911 -1.2907 -0.6919  2.0641
 3306TIP3   OH234112   4.348   4.714  18.708  0.0143 -0.2579  0.0966
 3306TIP3    H134113   4.261   4.755  18.713  0.8521  1.4943  3.7232
 3306TIP3    H234114   4.409   4.786  18.722  1.8858 -1.9196  1.0027
 3307TIP3   OH234115   3.658   3.095  17.947 -0.0731  0.2644  0.1779
 3307TIP3    H134116   3.636   3.140  17.865  0.1919 -0.1285 -0.1121
 3307TIP3    H234117   3.599   3.019  17.949  1.9426 -1.4427 -1.1685
 3308TIP3   OH234118   5.438   7.314  17.509  0.1763  0.5620  0.0601
 3308TIP3    H134119   5.427   7.283  17.599 -4.0998  2.1904  0.3324
 3308TIP3    H234120   5.521   7.276  17.481  0.6655 -1.8141  3.9144
 3309TIP3   OH234121   5.065   0.168  18.468  0.1310 -0.0545  0.3244
 3309TIP3    H134122   5.126   0.109  18.422 -0.9075 -0.9842  0.0854
 3309TIP3    H234123   5.028   0.222  18.399  1.3825  1.2114  0.5935
 3310TIP3   OH234124   6.404   0.841  18.312  0.0872 -0.2469  0.0874
 3310TIP3    H134125   6.393   0.893  18.233 -1.0352 -1.9515 -0.9369
 3310TIP3    H234126   6.462   0.769  18.286 -1.6452 -1.7875  0.2655
 3311TIP3   OH234127   7.620   1.181  17.669  0.5768 -0.3341  0.3611
 3311TIP3    H134128   7.668   1.259  17.639 -0.6420 -0.2120 -1.4671
 3311TIP3    H234129   7.555   1.165  17.600  0.7014 -2.9090  0.7481
 3312TIP3   OH234130   5.813   5.236  16.471 -0.3219  0.1809 -0.2331
 3312TIP3    H134131   5.724   5.218  16.501  0.0961 -0.4150  0.6923
 3312TIP3    H234132   5.803   5.308  16.409 -1.5588 -0.5246 -0.8853
 3313TIP3   OH234133   4.249   1.733  17.427 -0.4107 -0.3111  0.6804
 3313TIP3    H134134   4.227   1.741  17.520 -0.4675 -0.0762  0.6479
 3313TIP3    H234135   4.280   1.643  17.417  0.8322  0.0426  1.1792
 3314TIP3   OH234136   4.364   7.446  17.271 -0.1957  0.0927  0.2850
 3314TIP3    H134137   4.428   7.393  17.223 -0.8822 -0.7651  0.2808
 3314TIP3    H234138   4.328   7.505  17.205 -0.2677 -0.2463  0.0177
 3315TIP3   OH234139   0.553   7.214  17.362  0.2543 -0.2239  0.1776
 3315TIP3    H134140   0.640   7.232  17.398  0.5245 -2.7579  0.9661
 3315TIP3    H234141   0.501   7.187  17.437 -1.2075  1.0361 -0.3272
 3316TIP3   OH234142   4.359   2.319  17.045  0.0008 -0.0669 -0.1476
 3316TIP3    H134143   4.435   2.284  17.091 -1.0766 -0.5975  1.2939
 3316TIP3    H234144   4.393   2.344  16.959  1.9596  0.4336  0.7125
 3317TIP3   OH234145   1.203   3.934  18.567  0.4908  0.0001 -0.0993
 3317TIP3    H134146   1.219   4.025  18.594  5.1759 -0.1519 -1.4576
 3317TIP3    H234147   1.126   3.939  18.510 -0.2929  2.7823  1.0056
 3318TIP3   OH234148   6.759   7.173  16.334  0.4742 -0.4858 -0.5017
 3318TIP3    H134149   6.712   7.125  16.267 -2.6166  0.0200  1.1229
 3318TIP3    H234150   6.765   7.262  16.300 -1.2642 -0.1814 -0.1066
 3319TIP3   OH234151   3.161   4.029  16.243 -0.2312 -0.4301 -0.0138
 3319TIP3    H134152   3.206   3.964  16.298  0.4517 -0.4549 -0.5918
 3319TIP3    H234153   3.232   4.074  16.196 -0.7408  0.3181 -0.0758
 3320TIP3   OH234154   2.818   5.706  18.947 -0.6779  0.2758 -0.0007
 3320TIP3    H134155   2.756   5.700  19.019  0.5151  2.7143  1.3682
 3320TIP3    H234156   2.844   5.798  18.946  1.1930 -0.1910 -1.9956
 3321TIP3   OH234157   5.216   5.265  17.183 -0.4902  1.3066  0.4459
 3321TIP3    H134158   5.182   5.333  17.124 -2.5150  2.6128  2.9002
 3321TIP3    H234159   5.138   5.216  17.210  0.3920  0.5838  1.7800
 3322TIP3   OH234160   4.262   6.699  16.855  0.0752  0.1349 -0.0378
 3322TIP3    H134161   4.193   6.756  16.891 -0.6216 -1.1236  0.6959
 3322TIP3    H234162   4.225   6.611  16.860  1.4171 -0.4754 -0.4596
 3323TIP3   OH234163   4.145   0.349  18.803  0.0435  0.4439 -0.0076
 3323TIP3    H134164   4.116   0.289  18.872 -0.0977 -0.3516 -0.7536
 3323TIP3    H234165   4.072   0.351  18.741  0.0203  1.4428  0.0231
 3324TIP3   OH234166   0.844   3.635  18.042  0.3686  0.0929 -0.1860
 3324TIP3    H134167   0.873   3.561  18.096  1.5142  0.3035 -0.4838
 3324TIP3    H234168   0.916   3.699  18.049 -0.6173  1.2030  0.1035
 3325TIP3   OH234169   6.798   4.712  16.310  0.1595 -0.0562 -0.0292
 3325TIP3    H134170   6.766   4.792  16.268 -1.4369 -0.0256  1.1291
 3325TIP3    H234171   6.804   4.649  16.239 -1.1185  0.3872 -0.5635
 3326TIP3   OH234172   5.300   0.664  18.191  0.4272  0.1523 -0.4186
 3326TIP3    H134173   5.231   0.612  18.151  1.4594 -2.8992  1.4195
 3326TIP3    H234174   5.380   0.636  18.147  0.7557  2.7511 -1.6812
 3327TIP3   OH234175   2.841   3.864  16.644  0.4403 -0.2238 -0.1826
 3327TIP3    H134176   2.857   3.791  16.584 -1.6677 -0.2452 -0.8189
 3327TIP3    H234177   2.884   3.939  16.603  3.0705 -1.1244  0.7302
 3328TIP3   OH234178   4.011   4.656  18.210  0.3281 -0.0059  0.6162
 3328TIP3    H134179   4.066   4.725  18.247  1.2784 -1.3714  1.8468
 3328TIP3    H234180   3.960   4.700  18.142  1.1546  1.8219  1.1195
 3329TIP3   OH234181   5.830   5.846  18.412 -0.5548  0.4903  0.2136
 3329TIP3    H134182   5.782   5.858  18.330 -1.5551  1.2387  0.8830
 3329TIP3    H234183   5.794   5.766  18.449 -0.8418  0.7090  0.4114
 3330TIP3   OH234184   2.750   1.100  18.417  0.3893  0.4109  0.7815
 3330TIP3    H134185   2.694   1.177  18.427  0.5790  0.3915  2.0570
 3330TIP3    H234186   2.820   1.128  18.358 -1.4970  0.1276 -1.7641
 3331TIP3   OH234187   0.342   5.085  18.813  1.1192 -0.5620  1.1065
 3331TIP3    H134188   0.249   5.106  18.811  1.7150  2.8964 -2.2119
 3331TIP3    H234189   0.381   5.150  18.871  1.7732  0.7302 -0.6623
 3332TIP3   OH234190   6.204   2.477  17.400  0.5245 -0.3063  0.1731
 3332TIP3    H134191   6.229   2.410  17.337 -1.4408 -1.9096  0.9792
 3332TIP3    H234192   6.208   2.433  17.485 -3.0418 -0.2234  0.5262
 3333TIP3   OH234193   2.425   6.971  16.952  0.1413 -0.9823 -0.1177
 3333TIP3    H134194   2.389   6.959  17.040  0.1352  0.0074  0.0250
 3333TIP3    H234195   2.480   7.049  16.959 -0.1318 -0.6947 -1.0750
 3334TIP3   OH234196   1.610   3.234  15.968 -0.2007  0.1388 -0.1065
 3334TIP3    H134197   1.706   3.238  15.972 -0.1766 -0.8430  0.8141
 3334TIP3    H234198   1.581   3.249  16.058 -0.8838 -0.1374 -0.2757
 3335TIP3   OH234199   4.645   6.975  16.713  0.2197  0.0701  0.0955
 3335TIP3    H134200   4.626   6.881  16.712 -0.0365  0.1167  0.4643
 3335TIP3    H234201   4.559   7.017  16.714  0.3368  0.3058  0.2254
 3336TIP3   OH234202   2.632   3.544  16.820  0.1192 -0.0584 -0.2340
 3336TIP3    H134203   2.594   3.508  16.740  1.7444 -1.0691 -0.5903
 3336TIP3    H234204   2.726   3.542  16.806  0.3652  3.2933  0.2357
 3337TIP3   OH234205   0.422   1.939  16.023 -0.5778 -0.2807  0.7930
 3337TIP3    H134206   0.350   1.876  16.029 -0.9950  0.0913 -0.1502
 3337TIP3    H234207   0.380   2.024  16.023 -0.1640 -0.0657 -0.0205
 3338TIP3   OH234208   7.321   4.017  17.808 -0.3109  0.0305  0.3348
 3338TIP3    H134209   7.404   4.050  17.844 -0.3842  1.1756 -0.4856
 3338TIP3    H234210   7.328   3.922  17.815  1.0568  0.1093  0.3330
 3339TIP3   OH234211   5.726   2.390  17.472 -0.3097 -0.2817 -0.6645
 3339TIP3    H134212   5.718   2.294  17.470 -0.4548 -0.2676 -1.7356
 3339TIP3    H234213   5.666   2.418  17.540 -1.5344 -0.8665 -1.4680
 3340TIP3   OH234214   6.494   4.427  16.240  0.1979 -0.1133  0.2050
 3340TIP3    H134215   6.440   4.497  16.277 -2.1595 -1.6910 -0.0296
 3340TIP3    H234216   6.547   4.396  16.313 -2.1616 -1.1335  1.6112
 3341TIP3   OH234217   4.150   5.536  18.100  0.0803  0.4207 -0.0214
 3341TIP3    H134218   4.086   5.466  18.103  2.1870 -1.6113 -0.0226
 3341TIP3    H234219   4.145   5.577  18.186  0.3775 -1.2513  0.8273
 3342TIP3   OH234220   0.597   3.195  17.579  0.0607 -0.2598 -0.7596
 3342TIP3    H134221   0.552   3.202  17.663 -0.2056  1.8336 -1.0320
 3342TIP3    H234222   0.659   3.123  17.591  2.0642  1.7410  2.2600
 3343TIP3   OH234223   6.476   1.549  18.377 -0.1188 -0.2691  0.6558
 3343TIP3    H134224   6.550   1.489  18.369 -0.6487 -1.2551  2.6503
 3343TIP3    H234225   6.515   1.632  18.402  0.3666 -0.6018  1.0227
 3344TIP3   OH234226   4.877   5.309  18.543  0.1404 -0.1537 -0.0634
 3344TIP3    H134227   4.941   5.284  18.609  1.4802 -0.7906 -1.5373
 3344TIP3    H234228   4.922   5.296  18.460 -2.3172 -1.9193 -1.2457
 3345TIP3   OH234229   5.941   1.605  17.610 -0.2430 -0.4224 -0.3048
 3345TIP3    H134230   6.027   1.615  17.568 -0.4613 -0.2161 -0.7164
 3345TIP3    H234231   5.947   1.522  17.658 -0.2634 -1.1184 -1.4585
 3346TIP3   OH234232   5.195   6.443  16.674 -0.3726 -0.0766 -0.0986
 3346TIP3    H134233   5.217   6.387  16.749  3.0022  2.5534  1.1096
 3346TIP3    H234234   5.143   6.514  16.712  1.0631  1.0832 -0.2061
 3347TIP3   OH234235   5.256   5.063  19.059 -0.6106 -0.1363  0.0773
 3347TIP3    H134236   5.253   5.159  19.051  0.5161 -0.2351 -2.1010
 3347TIP3    H234237   5.169   5.039  19.091 -1.0165  1.5714  0.3662
 3348TIP3   OH234238   7.016   5.066  17.344 -0.0240 -0.1960 -0.3856
 3348TIP3    H134239   7.040   4.997  17.282  0.7024 -0.9251  0.6760
 3348TIP3    H234240   7.014   5.022  17.429  0.1248  1.0291  0.2686
 3349TIP3   OH234241   1.238   0.952  16.814 -0.0664 -0.0515  0.0405
 3349TIP3    H134242   1.184   0.946  16.735  1.1969 -2.0260 -0.7662
 3349TIP3    H234243   1.301   1.022  16.794  0.6305 -0.9369 -1.0187
 3350TIP3   OH234244   3.289   3.253  16.479 -0.0518  0.2149 -0.1790
 3350TIP3    H134245   3.250   3.167  16.464 -0.9399  0.5751 -0.0055
 3350TIP3    H234246   3.351   3.265  16.407  1.9852 -1.6277  1.1548
 3351TIP3   OH234247   2.937   2.911  17.136  0.4062  0.3287 -0.4053
 3351TIP3    H134248   2.888   2.907  17.054 -0.0193 -0.7137 -0.1195
 3351TIP3    H234249   3.014   2.963  17.115 -1.0059  2.4107 -0.7495
 3352TIP3   OH234250   4.475   7.259  17.735 -0.5631  0.3137  0.1091
 3352TIP3    H134251   4.524   7.310  17.670 -0.2875  2.2881  1.7540
 3352TIP3    H234252   4.394   7.234  17.690 -0.3374  1.5163 -1.0388
 3353TIP3   OH234253   1.141   3.432  16.732 -0.5366  0.2654 -0.5204
 3353TIP3    H134254   1.183   3.359  16.687 -3.0596  0.4007 -3.4489
 3353TIP3    H234255   1.211   3.496  16.744  0.8424 -0.9231 -1.7775
 3354TIP3   OH234256   5.295   6.118  17.915  0.3845 -0.5744 -0.1715
 3354TIP3    H134257   5.244   6.095  17.992  0.3750  1.7393  0.6147
 3354TIP3    H234258   5.300   6.214  17.918  2.4930 -0.5564 -1.6903
 3355TIP3   OH234259   5.471   3.542  16.659 -0.1816 -0.0996  0.2483
 3355TIP3    H134260   5.387   3.559  16.702  0.4301  1.8483  0.7488
 3355TIP3    H234261   5.452   3.546  16.566 -0.5140  1.1653  0.3573
 3356TIP3   OH234262   7.479   1.525  16.396  0.4805  0.4419 -0.1295
 3356TIP3    H134263   7.456   1.608  16.356 -1.7633 -0.5105 -1.0090
 3356TIP3    H234264   7.395   1.489  16.426  1.4414 -1.2793  0.6384
 3357TIP3   OH234265   7.011   4.587  17.212 -0.4990 -0.1001  0.2293
 3357TIP3    H134266   6.961   4.666  17.192  1.0529  0.7018 -0.6836
 3357TIP3    H234267   6.985   4.525  17.144  0.7072  0.7847 -1.1056
 3358TIP3   OH234268   7.287   6.249  18.120 -0.6150  0.0985  0.0608
 3358TIP3    H134269   7.278   6.245  18.215 -0.4794 -2.1854  0.0269
 3358TIP3    H234270   7.358   6.312  18.105 -1.5527  1.5633  1.3514
 3359TIP3   OH234271   6.010   5.728  16.908  0.3690  0.5779 -0.0037
 3359TIP3    H134272   6.009   5.696  16.999  0.1689 -1.0238 -0.5270
 3359TIP3    H234273   6.094   5.774  16.900  1.3484 -1.0181  0.4648
 3360TIP3   OH234274   5.667   0.163  17.796 -0.0975 -0.2152  0.1562
 3360TIP3    H134275   5.730   0.092  17.778  0.0890 -0.0460  0.1378
 3360TIP3    H234276   5.582   0.119  17.798  0.1561 -0.7077  1.6648
 3361TIP3   OH234277   1.233   5.984  18.356 -0.7501  0.1672  0.3842
 3361TIP3    H134278   1.274   5.914  18.406  1.4211  0.5001 -0.8145
 3361TIP3    H234279   1.148   5.948  18.330 -0.7496 -1.0334  1.9137
 3362TIP3   OH234280   6.113   3.014  16.737 -0.1961  0.3239 -0.4429
 3362TIP3    H134281   6.162   2.978  16.811 -0.1652 -1.3759 -1.2420
 3362TIP3    H234282   6.021   3.006  16.763 -0.1378  1.4533  0.1499
 3363TIP3   OH234283   4.443   0.041  18.071  0.0311 -0.0406 -0.6719
 3363TIP3    H134284   4.423   0.132  18.049 -0.5860 -0.4578 -1.9988
 3363TIP3    H234285   4.415  -0.008  17.994  0.4198 -1.3523 -0.0064
 3364TIP3   OH234286   0.467   5.533  16.640  0.0088  0.1330 -0.3179
 3364TIP3    H134287   0.405   5.522  16.568  0.1101  2.9731 -0.9540
 3364TIP3    H234288   0.553   5.537  16.598  0.3788 -0.9851  0.2841
 3365TIP3   OH234289   7.206   5.268  18.175  0.2639 -0.3425 -0.5363
 3365TIP3    H134290   7.184   5.252  18.083 -0.0223 -1.4562 -0.2850
 3365TIP3    H234291   7.133   5.319  18.209 -0.2843 -1.0950 -0.5812
 3366TIP3   OH234292   2.954   6.715  18.590  0.0407 -0.1200  0.2017
 3366TIP3    H134293   2.907   6.771  18.527 -0.7854 -1.4525 -0.3989
 3366TIP3    H234294   2.891   6.701  18.661  0.0970 -0.6236  0.1523
 3367TIP3   OH234295   5.163   0.546  17.238 -0.0379  0.2239 -0.4741
 3367TIP3    H134296   5.088   0.506  17.282  0.5847 -0.8521 -0.3660
 3367TIP3    H234297   5.225   0.565  17.309  1.0408 -1.6725 -0.8501
 3368TIP3   OH234298   4.083   1.652  18.239 -0.4723 -0.3151  0.6662
 3368TIP3    H134299   4.163   1.689  18.276 -0.2789 -1.2020  1.1523
 3368TIP3    H234300   4.015   1.717  18.258  0.0547  0.2578  0.5943
 3369TIP3   OH234301   1.919   3.307  17.149 -0.4499 -0.2671 -0.2399
 3369TIP3    H134302   1.844   3.274  17.199 -0.7928  1.1288  0.2378
 3369TIP3    H234303   1.882   3.331  17.064 -0.2423 -0.9127 -0.5166
 3370TIP3   OH234304   3.615   4.319  18.132  0.3043 -0.5291 -0.0093
 3370TIP3    H134305   3.674   4.317  18.056 -0.1073  1.2427 -0.4220
 3370TIP3    H234306   3.551   4.387  18.110 -0.9102 -1.2543  1.1576
 3371TIP3   OH234307   3.727   7.081  17.397  0.1541  0.1860 -0.1170
 3371TIP3    H134308   3.746   7.037  17.314 -0.1459 -0.3358  0.0837
 3371TIP3    H234309   3.781   7.160  17.395  0.0953  0.2172 -0.8404
 3372TIP3   OH234310   3.850   5.661  16.619  0.7982 -0.0158 -0.0613
 3372TIP3    H134311   3.860   5.755  16.635 -0.0278  0.5808 -2.5683
 3372TIP3    H234312   3.801   5.656  16.537  1.2797 -2.6591 -0.2705
 3373TIP3   OH234313   7.280   4.811  18.252 -0.1620 -0.2678 -0.2596
 3373TIP3    H134314   7.304   4.719  18.258 -1.3714 -0.6843 -1.1974
 3373TIP3    H234315   7.342   4.849  18.190  0.9347 -0.2010  0.8407
 3374TIP3   OH234316   1.593   2.088  18.275  0.1642  0.6898  0.0204
 3374TIP3    H134317   1.684   2.102  18.301  0.3363  2.8154 -1.4131
 3374TIP3    H234318   1.599   2.033  18.197  0.2807  1.2442 -0.3694
 3375TIP3   OH234319   2.521   1.561  18.571 -0.0066 -0.6300  0.1032
 3375TIP3    H134320   2.452   1.560  18.638 -0.0630  0.5833  0.0866
 3375TIP3    H234321   2.492   1.628  18.509  1.2299 -0.0587  0.1282
 3376TIP3   OH234322   4.026   7.605  17.018  0.0244 -0.4850  0.4053
 3376TIP3    H134323   4.096   7.664  17.046 -1.2169  1.0550  0.4159
 3376TIP3    H234324   3.985   7.649  16.944 -1.1048 -1.2087  0.5651
 3377TIP3   OH234325   6.559   6.924  18.443  0.2141 -0.5501  0.1304
 3377TIP3    H134326   6.617   6.877  18.383 -0.6371 -0.3453 -0.8800
 3377TIP3    H234327   6.471   6.904  18.412 -0.2572 -0.4692  1.3465
 3378TIP3   OH234328   4.351   5.471  17.915 -0.0201 -0.1888 -0.2778
 3378TIP3    H134329   4.428   5.458  17.970 -0.6585 -0.4031  0.5815
 3378TIP3    H234330   4.286   5.511  17.973 -1.1953 -1.7293 -0.4588
 3379TIP3   OH234331   3.823   5.424  17.864 -0.0572 -0.1961 -0.0265
 3379TIP3    H134332   3.883   5.443  17.792 -1.2312  0.2986 -0.9074
 3379TIP3    H234333   3.770   5.503  17.873 -1.3273 -1.0193 -0.0401
 3380TIP3   OH234334   5.210   1.530  17.350 -0.0341 -0.0069 -0.2714
 3380TIP3    H134335   5.276   1.463  17.337 -1.3160 -1.1503 -1.1492
 3380TIP3    H234336   5.162   1.501  17.428 -0.0412  0.3718 -0.1317
 3381TIP3   OH234337   0.113   2.686  16.148  0.4400  0.7115  0.4473
 3381TIP3    H134338   0.074   2.601  16.169  0.7793  0.4810  0.1596
 3381TIP3    H234339   0.143   2.720  16.231  1.0525  0.1697  0.4619
 3382TIP3   OH234340   7.654   4.650  18.116  0.1018  0.0144  0.2127
 3382TIP3    H134341   7.741   4.655  18.155  0.5042  1.0095 -0.7439
 3382TIP3    H234342   7.659   4.576  18.055  0.6384  0.6993 -0.6096
 3383TIP3   OH234343   3.293   7.134  17.974 -0.1294  0.0138  0.2490
 3383TIP3    H134344   3.292   7.040  17.953 -0.4147  0.0529  0.0829
 3383TIP3    H234345   3.327   7.176  17.895  2.3600 -0.1357  1.1363
 3384TIP3   OH234346   5.530   2.677  17.296 -0.3844 -0.2415  1.1558
 3384TIP3    H134347   5.621   2.691  17.323 -0.1853  1.4255 -0.2518
 3384TIP3    H234348   5.520   2.582  17.294  1.6340 -0.4789  0.3886
 3385TIP3   OH234349   6.445   3.452  18.296 -0.3663  0.2988 -0.1953
 3385TIP3    H134350   6.453   3.537  18.252  1.5312 -0.5678 -1.7080
 3385TIP3    H234351   6.513   3.453  18.363  0.5624 -0.4451 -1.0801
 3386TIP3   OH234352   4.206   7.173  18.961 -0.4461  0.4559 -0.3185
 3386TIP3    H134353   4.202   7.153  18.867  0.8654 -0.9914 -0.1108
 3386TIP3    H234354   4.150   7.250  18.971 -0.0099  1.1333 -2.4215
 3387TIP3   OH234355   3.000   7.679  18.379 -0.5274  0.4547  0.2347
 3387TIP3    H134356   2.955   7.688  18.295  1.0445  0.3093 -0.6396
 3387TIP3    H234357   3.071   7.743  18.375  1.5164 -1.7257  0.1367
 3388TIP3   OH234358   5.050   4.243  17.222 -0.3073  0.1226 -0.0103
 3388TIP3    H134359   5.037   4.161  17.175  1.5827 -0.3572  0.2103
 3388TIP3    H234360   5.019   4.311  17.161 -2.0556 -0.7232 -0.1237
 3389TIP3   OH234361   6.454   7.410  18.831  0.2608 -0.2613  0.7125
 3389TIP3    H134362   6.378   7.409  18.890 -1.2532 -1.1537 -1.1616
 3389TIP3    H234363   6.528   7.390  18.888 -1.1526 -1.2908  2.2970
 3390TIP3   OH234364   6.563   2.759  17.224  0.3151  1.0022  0.1917
 3390TIP3    H134365   6.475   2.738  17.254  1.0503 -1.5176  0.7747
 3390TIP3    H234366   6.550   2.821  17.152 -1.9409  0.2110 -0.1517
 3391TIP3   OH234367   5.887   6.670  16.800 -0.4610 -0.2887  0.2236
 3391TIP3    H134368   5.943   6.744  16.823 -1.1147 -0.1325  1.3723
 3391TIP3    H234369   5.872   6.624  16.883  1.2054 -2.6403 -0.6831
 3392TIP3   OH234370   1.138   7.290  18.135  0.7242  0.3721 -0.1907
 3392TIP3    H134371   1.151   7.225  18.067 -0.9906  0.1859 -0.3680
 3392TIP3    H234372   1.217   7.344  18.132  1.4199 -0.6703 -1.1600
 3393TIP3   OH234373   1.904   6.592  18.689 -0.1036  0.2022  0.2724
 3393TIP3    H134374   1.999   6.594  18.677  0.0258  1.0819  1.3192
 3393TIP3    H234375   1.872   6.664  18.635 -0.0844  0.4249  0.5515
 3394TIP3   OH234376   6.728   6.224  17.377  0.5400  0.4301 -0.1378
 3394TIP3    H134377   6.706   6.236  17.469 -0.5517 -1.2140 -0.1321
 3394TIP3    H234378   6.717   6.310  17.337  0.8183  1.1134  1.2064
 3395TIP3   OH234379   1.002   5.661  18.864  0.2883  0.0831 -0.0872
 3395TIP3    H134380   1.045   5.746  18.869  0.1210  0.1933 -0.4442
 3395TIP3    H234381   0.913   5.681  18.833 -0.8268  0.0970  2.7978
 3396TIP3   OH234382   2.401   4.861  16.747  0.3625  0.0777  0.3199
 3396TIP3    H134383   2.469   4.926  16.765 -0.6489  0.6864  2.2629
 3396TIP3    H234384   2.377   4.877  16.656  1.3983  1.2173  0.2127
 3397TIP3   OH234385   5.427   4.741  18.137  0.4985 -0.1935  0.1195
 3397TIP3    H134386   5.382   4.816  18.099  0.1593  0.1430  1.1624
 3397TIP3    H234387   5.392   4.733  18.225  1.2110 -1.0061  0.3519
 3398TIP3   OH234388   1.311   1.751  18.651 -0.0493  0.6688  0.4054
 3398TIP3    H134389   1.231   1.799  18.673 -0.0092  1.6922 -1.5161
 3398TIP3    H234390   1.339   1.787  18.567  1.2597 -1.1848 -0.0152
 3399TIP3   OH234391   6.650   0.901  17.254  0.3653 -0.4974 -0.3195
 3399TIP3    H134392   6.567   0.853  17.256 -0.6299  1.1190 -0.8908
 3399TIP3    H234393   6.697   0.870  17.331 -0.1935 -2.3777 -0.6656
 3400TIP3   OH234394   5.972   7.135  18.900  0.2353 -0.0958  0.1235
 3400TIP3    H134395   5.893   7.189  18.897 -0.7217 -1.4730 -0.9114
 3400TIP3    H234396   5.941   7.046  18.882  2.2398 -0.4367 -2.2217
 3401TIP3   OH234397   3.795   0.944  17.024 -0.8234 -0.1216  0.2665
 3401TIP3    H134398   3.778   0.988  17.108  0.5694 -0.6436  0.8503
 3401TIP3    H234399   3.889   0.925  17.026 -0.5786  0.6587 -1.8157
 3402TIP3   OH234400   7.214   7.535  17.677  0.4559 -0.0497  0.2851
 3402TIP3    H134401   7.141   7.587  17.643  0.4783 -1.9135 -2.9524
 3402TIP3    H234402   7.291   7.590  17.663  0.0965  0.4735  0.3291
 3403TIP3   OH234403   5.180   0.368  18.078  0.3812 -0.6082 -1.2957
 3403TIP3    H134404   5.236   0.408  18.012  0.0008  1.9697 -0.1600
 3403TIP3    H234405   5.233   0.367  18.157  0.1382 -1.7827 -1.1281
 3404TIP3   OH234406   3.280   6.202  15.912 -0.6311  0.1095 -0.1321
 3404TIP3    H134407   3.358   6.152  15.886 -0.2216  1.7147 -2.2948
 3404TIP3    H234408   3.214   6.136  15.932  1.0683 -1.2844  1.1307
 3405TIP3   OH234409   4.332   0.799  18.867 -0.1798 -0.3403 -0.4133
 3405TIP3    H134410   4.307   0.761  18.783 -1.9395  0.7013 -0.4195
 3405TIP3    H234411   4.316   0.729  18.931 -0.8657 -0.4651 -0.7148
 3406TIP3   OH234412   6.502   1.113  16.930  0.5823 -0.3847 -0.0513
 3406TIP3    H134413   6.543   1.028  16.914  2.8827  0.6878 -0.2069
 3406TIP3    H234414   6.408   1.096  16.920  0.8059 -3.2513  1.6162
 3407TIP3   OH234415   6.194   1.370  15.762 -0.3507 -0.0377 -0.3280
 3407TIP3    H134416   6.109   1.338  15.730 -0.9757  0.2969  0.9461
 3407TIP3    H234417   6.256   1.301  15.737 -1.0281 -0.3964 -1.0753
 3408TIP3   OH234418   3.575   1.292  18.196 -0.0616 -0.7251  0.1748
 3408TIP3    H134419   3.655   1.247  18.171 -1.4994 -2.0736 -2.4681
 3408TIP3    H234420   3.592   1.384  18.178  1.3405 -0.7994  1.0330
 3409TIP3   OH234421   6.882   3.550  18.765 -0.4481  0.0482 -0.4471
 3409TIP3    H134422   6.912   3.641  18.764  1.2413 -0.4632  0.5373
 3409TIP3    H234423   6.846   3.538  18.854 -2.6381  0.3056 -1.2230
 3410TIP3   OH234424   4.859   6.086  17.321  0.1071  0.0817  0.4988
 3410TIP3    H134425   4.917   6.137  17.378  0.2217  0.4195  0.0878
 3410TIP3    H234426   4.811   6.029  17.381  0.8948 -0.2333  0.8327
 3411TIP3   OH234427   1.712   1.488  18.475 -0.2848 -0.3922  0.3800
 3411TIP3    H134428   1.748   1.400  18.485  2.4494  0.8288  2.6406
 3411TIP3    H234429   1.643   1.493  18.542 -0.8701 -0.9617 -0.1652
 3412TIP3   OH234430   4.479   5.989  17.876  0.1880  0.2799  0.4235
 3412TIP3    H134431   4.569   6.017  17.893  0.0094  0.3735  1.2377
 3412TIP3    H234432   4.457   5.932  17.949 -0.8929  1.3773  1.0055
 3413TIP3   OH234433   7.233   1.622  18.411 -0.4611 -0.2742 -0.2615
 3413TIP3    H134434   7.253   1.539  18.369  1.2560  0.1077 -0.2924
 3413TIP3    H234435   7.317   1.650  18.448 -0.8875  1.6621 -0.6606
 3414TIP3   OH234436   5.991   5.239  16.716  0.4194  0.3121  0.1733
 3414TIP3    H134437   6.055   5.170  16.737  0.9217  0.3620 -1.1170
 3414TIP3    H234438   5.971   5.226  16.624 -0.1838  1.3319  0.1482
 3415TIP3   OH234439   2.199   5.189  18.790  0.0796 -0.0132  0.4668
 3415TIP3    H134440   2.235   5.184  18.701  0.2383 -1.3149  0.5921
 3415TIP3    H234441   2.130   5.255  18.783 -2.0941 -2.2944 -1.4303
 3416TIP3   OH234442   2.248   6.079  18.782  0.7429 -0.6015  0.6530
 3416TIP3    H134443   2.298   6.142  18.731  1.4340 -2.6370 -1.3052
 3416TIP3    H234444   2.190   6.133  18.836 -0.2098  1.7229 -2.4407
 3417TIP3   OH234445   3.146   0.777  18.050  0.4304  0.0423 -0.2548
 3417TIP3    H134446   3.208   0.794  18.121 -0.7132 -2.4116  1.4874
 3417TIP3    H234447   3.075   0.839  18.064 -0.4656 -1.3367  1.7352
 3418TIP3   OH234448   1.827   7.639  18.863 -0.5784 -0.0905 -0.0425
 3418TIP3    H134449   1.862   7.705  18.804 -0.9115  0.7478  0.6727
 3418TIP3    H234450   1.733   7.636  18.843 -0.3784 -1.2821 -0.9459
 3419TIP3   OH234451   4.860   1.169  16.401  0.0912  0.1556 -0.3675
 3419TIP3    H134452   4.837   1.192  16.491  0.0246  1.8574 -0.7706
 3419TIP3    H234453   4.778   1.176  16.353  0.1491 -0.6245 -0.5882
 3420TIP3   OH234454   5.645   3.034  18.124 -0.3914  0.1059  0.1616
 3420TIP3    H134455   5.573   3.059  18.066  0.9660  0.8649 -1.2680
 3420TIP3    H234456   5.620   3.068  18.210 -2.6514 -1.4057  0.1789
 3421TIP3   OH234457   2.695   0.527  18.093  0.2131  0.4100  0.0213
 3421TIP3    H134458   2.721   0.531  18.000 -0.5894  0.9036 -0.1901
 3421TIP3    H234459   2.637   0.601  18.105  0.3799  0.4030  0.9578
 3422TIP3   OH234460   3.725   6.380  16.769  0.3200 -0.0862  0.2306
 3422TIP3    H134461   3.719   6.328  16.849  0.5913 -0.6350 -0.0999
 3422TIP3    H234462   3.773   6.458  16.794  0.6557 -0.3911  0.5382
 3423TIP3   OH234463   4.021   6.233  18.373  0.5283 -0.2200 -0.1888
 3423TIP3    H134464   3.928   6.216  18.360  0.5752 -1.3544  0.8387
 3423TIP3    H234465   4.062   6.147  18.374  1.1048 -0.0086  2.8237
 3424TIP3   OH234466   3.765   1.914  16.162  0.5033  0.1944  0.1488
 3424TIP3    H134467   3.734   2.003  16.143 -0.4235 -0.3909 -1.3331
 3424TIP3    H234468   3.685   1.861  16.165  1.0902 -0.7110  0.2427
 3425TIP3   OH234469   7.573   6.581  18.385  0.1075 -0.1497  0.4055
 3425TIP3    H134470   7.589   6.500  18.433 -0.0686 -0.1942  0.3901
 3425TIP3    H234471   7.653   6.595  18.334  0.1936 -0.2370  0.5170
 3426TIP3   OH234472   5.014   6.639  16.775 -0.5651  0.0107 -0.4091
 3426TIP3    H134473   4.970   6.604  16.852 -0.3030 -0.5255 -0.4938
 3426TIP3    H234474   4.953   6.623  16.703  0.0837 -1.5140 -0.6714
 3427TIP3   OH234475   4.125   3.686  17.739  0.1022  0.4834 -0.3759
 3427TIP3    H134476   4.032   3.680  17.760  0.0377  0.8055 -0.5605
 3427TIP3    H234477   4.167   3.710  17.821 -0.1381  1.6735 -0.5848
 3428TIP3   OH234478   4.398   7.178  18.169 -0.2825  0.6707  0.3461
 3428TIP3    H134479   4.368   7.173  18.079  0.0518  1.5633  0.1752
 3428TIP3    H234480   4.415   7.087  18.194  0.8996  0.5116 -0.9383
 3429TIP3   OH234481   5.647   4.185  18.706 -0.5799  0.6058  0.0985
 3429TIP3    H134482   5.586   4.177  18.633  1.0860 -0.5343 -1.2416
 3429TIP3    H234483   5.635   4.275  18.737  0.1922  1.9285 -3.0319
 3430TIP3   OH234484   7.363   3.193  17.230  0.1115 -0.4414  0.4568
 3430TIP3    H134485   7.433   3.233  17.282  0.1057  0.6204 -0.3075
 3430TIP3    H234486   7.307   3.150  17.295  1.7689 -1.8335  1.0218
 3431TIP3   OH234487   3.350   2.456  18.615  0.0813  0.0812 -0.3432
 3431TIP3    H134488   3.285   2.484  18.550 -1.0286 -1.6185 -0.0287
 3431TIP3    H234489   3.351   2.360  18.608  1.4200 -0.0135  0.7672
 3432TIP3   OH234490   1.374   4.759  17.446 -1.4638 -0.0812 -0.0217
 3432TIP3    H134491   1.296   4.742  17.394 -1.6431 -0.4813  0.3705
 3432TIP3    H234492   1.344   4.755  17.537 -1.1104  0.3802  0.1222
 3433TIP3   OH234493   0.793   2.404  16.266  0.5045 -0.4042  0.4116
 3433TIP3    H134494   0.845   2.327  16.289 -0.1074 -0.6626  0.9615
 3433TIP3    H234495   0.800   2.410  16.171 -0.9525 -2.2609  0.1204
 3434TIP3   OH234496   6.247   3.970  18.076 -0.3046 -0.3854 -0.3250
 3434TIP3    H134497   6.270   3.949  18.167 -2.0116 -0.0345  0.2175
 3434TIP3    H234498   6.318   4.027  18.046  1.0058 -1.6351  0.3133
 3435TIP3   OH234499   2.993   3.691  16.478  0.6330  0.0464 -0.1714
 3435TIP3    H134500   2.958   3.718  16.393 -0.8779 -2.2661 -0.3676
 3435TIP3    H234501   3.057   3.623  16.456  1.9473  1.0280  0.4655
 3436TIP3   OH234502   7.060   2.238  16.632 -0.1882 -0.0602 -0.0060
 3436TIP3    H134503   7.155   2.237  16.624 -0.0303 -2.2807  1.3710
 3436TIP3    H234504   7.043   2.280  16.716 -0.4332  0.2643 -0.2131
 3437TIP3   OH234505   4.473   3.244  18.669 -0.0543 -0.2984 -0.4202
 3437TIP3    H134506   4.543   3.310  18.670  1.5481 -1.9180 -0.9128
 3437TIP3    H234507   4.501   3.180  18.604 -2.8991 -0.1229 -2.0098
 3438TIP3   OH234508   0.244   0.714  18.498  0.8910 -0.5389 -0.2232
 3438TIP3    H134509   0.223   0.804  18.521  0.7382 -0.7197  0.3644
 3438TIP3    H234510   0.291   0.720  18.415 -0.8569 -0.0749 -1.2221
 3439TIP3   OH234511   0.531   2.430  17.497  0.5818  0.2585  0.8288
 3439TIP3    H134512   0.486   2.394  17.574  0.1783 -2.2295 -0.4580
 3439TIP3    H234513   0.470   2.414  17.425  2.0065  0.2169 -0.4023
 3440TIP3   OH234514   7.029   1.110  17.636  0.1176  0.8732 -0.3524
 3440TIP3    H134515   7.012   1.026  17.680 -1.7952  1.2683 -0.2496
 3440TIP3    H234516   7.059   1.168  17.706  1.3214  0.3324 -0.3981
 3441TIP3   OH234517   1.722   4.527  18.455  0.1357 -0.9805  0.2562
 3441TIP3    H134518   1.650   4.482  18.412  0.4040 -1.2998  0.1293
 3441TIP3    H234519   1.772   4.456  18.497 -0.6772 -0.5984  1.9662
 3442TIP3   OH234520   1.223   7.201  17.284 -0.1983 -0.3331 -0.0233
 3442TIP3    H134521   1.166   7.275  17.307  0.4786  0.2085 -0.0537
 3442TIP3    H234522   1.311   7.234  17.298  0.1885 -0.5580 -1.6604
 3443TIP3   OH234523   6.287   2.833  16.070 -0.3760  0.9273  0.1059
 3443TIP3    H134524   6.336   2.879  16.139 -0.9998  0.9651  0.5239
 3443TIP3    H234525   6.237   2.766  16.116  0.0675  0.2103 -0.4383
 3444TIP3   OH234526   6.269   1.339  16.729  0.1310 -0.4003  0.0841
 3444TIP3    H134527   6.316   1.353  16.647 -0.9638 -0.7132 -0.6044
 3444TIP3    H234528   6.272   1.425  16.772  0.5306 -0.1833 -0.3598
 3445TIP3   OH234529   2.536   0.237  17.307  0.3618 -0.3083  0.3207
 3445TIP3    H134530   2.495   0.217  17.392  1.3882  0.0377  0.9139
 3445TIP3    H234531   2.600   0.167  17.294  0.6029 -0.0475  0.1057
 3446TIP3   OH234532   1.402   5.556  16.779  0.0023 -0.4004  0.2526
 3446TIP3    H134533   1.446   5.483  16.824  0.1370 -1.1532 -1.0478
 3446TIP3    H234534   1.420   5.632  16.834  3.6589 -0.4946 -0.5742
 3447TIP3   OH234535   5.926   0.865  16.915  0.1600 -0.1804  0.0058
 3447TIP3    H134536   5.879   0.845  16.834  0.4830 -1.3790  0.0877
 3447TIP3    H234537   5.859   0.896  16.975 -0.3808 -0.9532 -0.1840
 3448TIP3   OH234538   6.804   5.286  18.361 -0.7836 -0.0379  0.2355
 3448TIP3    H134539   6.738   5.217  18.349  0.4102 -1.2888  0.5302
 3448TIP3    H234540   6.850   5.261  18.441  0.6749  0.2419 -0.4762
 3449TIP3   OH234541   6.790   4.392  18.778 -0.3959 -0.1331  0.4113
 3449TIP3    H134542   6.829   4.441  18.705  1.7135 -0.5122  1.1905
 3449TIP3    H234543   6.696   4.395  18.762 -0.1009  1.2263 -1.4022
 3450TIP3   OH234544   3.828   2.862  18.535  0.3070 -0.0899  0.3351
 3450TIP3    H134545   3.826   2.771  18.566 -1.5122 -0.5638 -0.9827
 3450TIP3    H234546   3.884   2.860  18.458 -0.4233 -0.2845 -0.1959
 3451TIP3   OH234547   1.701   2.888  16.516 -0.0715 -0.0309 -0.1887
 3451TIP3    H134548   1.632   2.853  16.573  0.7715  0.0624  0.9205
 3451TIP3    H234549   1.678   2.980  16.505 -0.9267 -0.3326 -1.0608
 3452TIP3   OH234550   0.735   0.080  17.928  0.0729 -0.2441  0.9987
 3452TIP3    H134551   0.795   0.114  17.994  1.6261  0.3400 -0.6441
 3452TIP3    H234552   0.778   0.002  17.894 -0.7610 -0.6002  0.7235
 3453TIP3   OH234553   7.632   7.254  18.600 -0.2879 -0.4983  0.4194
 3453TIP3    H134554   7.579   7.174  18.601 -1.8232  0.4777  1.3053
 3453TIP3    H234555   7.604   7.300  18.521  0.1090 -0.5050  0.2709
 3454TIP3   OH234556   4.452   6.099  18.723  0.3095  0.3102  0.0565
 3454TIP3    H134557   4.413   6.044  18.654 -0.0847  0.7602 -0.0835
 3454TIP3    H234558   4.464   6.039  18.797 -3.5670  0.7230  1.2437
 3455TIP3   OH234559   5.823   2.534  18.718 -0.5078 -0.0918 -0.0009
 3455TIP3    H134560   5.900   2.569  18.673  0.0144 -0.8133  0.3034
 3455TIP3    H234561   5.847   2.444  18.740 -0.9411  0.0808  1.2690
 3456TIP3   OH234562   2.410   1.809  18.445 -0.6207 -0.1569 -0.2376
 3456TIP3    H134563   2.447   1.826  18.358  0.2341 -1.4907 -0.1657
 3456TIP3    H234564   2.420   1.892  18.492 -0.6676  0.4422 -1.2661
 3457TIP3   OH234565   5.218   3.675  16.258 -0.2436  0.2720  0.3811
 3457TIP3    H134566   5.150   3.633  16.310  0.4564 -1.8251 -0.2958
 3457TIP3    H234567   5.184   3.675  16.169  0.1295  0.3573  0.2362
 3458TIP3   OH234568   3.904   6.369  18.777 -0.3489  0.0074  0.5141
 3458TIP3    H134569   3.969   6.420  18.826 -0.5030  0.7550 -0.0411
 3458TIP3    H234570   3.826   6.369  18.832 -1.3352  2.8946 -0.6950
 3459TIP3   OH234571   0.957   5.553  16.393 -0.6279  0.3806 -0.2602
 3459TIP3    H134572   1.009   5.588  16.465 -1.0661  0.3870  0.0587
 3459TIP3    H234573   1.000   5.585  16.314  0.7276 -0.8254 -0.0504
 3460TIP3   OH234574   0.020   1.412  17.819 -0.3782 -0.2573  0.0844
 3460TIP3    H134575   0.062   1.462  17.889  0.1174 -0.5511  0.0019
 3460TIP3    H234576   0.087   1.407  17.750 -0.4476 -0.9710  0.0642
 3461TIP3   OH234577   0.607   1.329  17.897 -0.1006  0.1213 -0.1007
 3461TIP3    H134578   0.653   1.378  17.965  0.5933 -0.3225 -0.2417
 3461TIP3    H234579   0.654   1.246  17.891 -0.2861  0.0668 -0.9606
 3462TIP3   OH234580   0.491   1.218  18.160  0.1663  0.1942  0.2021
 3462TIP3    H134581   0.397   1.234  18.151 -0.0947 -1.1366  0.3645
 3462TIP3    H234582   0.531   1.269  18.090 -0.8060 -0.4359 -0.8377
 3463TIP3   OH234583   3.532   0.019  17.370 -0.0131 -0.1229 -0.0315
 3463TIP3    H134584   3.527  -0.074  17.391  1.5841 -0.1045  0.5884
 3463TIP3    H234585   3.443   0.044  17.347 -0.6394 -1.5960  0.6959
 3464TIP3   OH234586   1.549   1.502  18.253 -0.5699 -0.3664 -0.2486
 3464TIP3    H134587   1.608   1.461  18.189 -1.0565  0.4237 -1.2354
 3464TIP3    H234588   1.598   1.502  18.335  1.0061  0.6602 -1.1386
 3465TIP3   OH234589   0.642   5.047  18.452  0.1952 -0.8287  0.0987
 3465TIP3    H134590   0.716   5.001  18.412 -0.2439  0.3533 -2.2333
 3465TIP3    H234591   0.642   5.133  18.410 -1.5307 -0.2062  1.2710
 3466TIP3   OH234592   4.379   6.873  18.835  0.2413 -0.6368  0.0824
 3466TIP3    H134593   4.294   6.866  18.879 -0.5350  0.6149 -1.1140
 3466TIP3    H234594   4.425   6.942  18.883 -0.1381 -0.0959 -0.3091
 3467TIP3   OH234595   2.189   2.770  17.946 -0.1564 -0.1458 -0.2116
 3467TIP3    H134596   2.273   2.725  17.947 -0.1607 -0.1604 -0.4607
 3467TIP3    H234597   2.138   2.723  17.880 -0.2912 -0.0127 -0.2027
 3468TIP3   OH234598   4.573   6.327  18.799  0.2349  0.1228  0.1344
 3468TIP3    H134599   4.515   6.256  18.771  1.2736 -0.6341 -0.1451
 3468TIP3    H234600   4.636   6.337  18.728  1.1508  0.1378  0.9294
 3469TIP3   OH234601   1.403   1.741  18.204 -0.1275  0.4671  0.3399
 3469TIP3    H134602   1.435   1.807  18.267  0.3793 -0.5391  1.1654
 3469TIP3    H234603   1.452   1.662  18.225  0.2261  0.1529 -1.5129
 3470TIP3   OH234604   1.077   7.385  16.573  0.8913 -0.1368  0.1019
 3470TIP3    H134605   1.075   7.407  16.479 -0.9140 -0.0640  0.1149
 3470TIP3    H234606   1.066   7.290  16.575 -2.2055  0.1178  0.2314
 3471TIP3   OH234607   3.362   3.039  16.134 -0.2989 -0.1687  0.1653
 3471TIP3    H134608   3.322   3.062  16.218  0.3492 -0.8096  0.6551
 3471TIP3    H234609   3.443   2.994  16.157 -0.5470 -1.1411 -0.8039
 3472TIP3   OH234610   1.064   5.979  17.420 -0.3617 -0.3905 -0.3463
 3472TIP3    H134611   1.097   5.965  17.331  1.2543 -0.7257  0.2664
 3472TIP3    H234612   1.063   6.074  17.430  1.7774 -0.3580  0.0399
 3473TIP3   OH234613   1.798   6.423  18.512  0.3975  0.1934  0.4809
 3473TIP3    H134614   1.877   6.438  18.460 -0.1195  0.6842 -0.2014
 3473TIP3    H234615   1.812   6.473  18.592  0.5463  0.7468  0.1163
 3474TIP3   OH234616   0.637   4.363  18.646 -0.8051  0.0453 -0.1834
 3474TIP3    H134617   0.554   4.318  18.628 -0.1049 -2.3869  2.1257
 3474TIP3    H234618   0.611   4.444  18.690 -1.9683  0.0353 -0.7843
 3475TIP3   OH234619   3.294   6.275  17.407 -0.5196 -0.3941 -0.0956
 3475TIP3    H134620   3.387   6.277  17.381 -0.8884  1.8933 -1.5009
 3475TIP3    H234621   3.281   6.187  17.441  1.7852 -1.3074 -1.3316
 3476TIP3   OH234622   0.529   4.106  18.343 -0.2461 -0.4990  0.3707
 3476TIP3    H134623   0.553   4.109  18.250  0.8596  0.3297  0.6515
 3476TIP3    H234624   0.504   4.016  18.359 -1.7283 -0.3796 -1.0292
 3477TIP3   OH234625   1.918   4.116  16.179  0.3287  0.0076 -0.3783
 3477TIP3    H134626   2.008   4.139  16.156  0.0895  0.4002 -0.9661
 3477TIP3    H234627   1.923   4.027  16.212  1.3791  1.0297  2.5511
 3478TIP3   OH234628   2.045   2.155  17.877 -0.1764  0.1085  0.1202
 3478TIP3    H134629   2.089   2.211  17.941  0.1994  1.8939 -1.5981
 3478TIP3    H234630   2.050   2.204  17.795  0.1047 -2.4404 -1.4987
 3479TIP3   OH234631   5.832   6.301  17.582 -0.0252  0.1083  0.5540
 3479TIP3    H134632   5.793   6.334  17.663 -0.0588  0.8789  0.2266
 3479TIP3    H234633   5.904   6.244  17.611 -0.2147  0.1610  1.1283
 3480TIP3   OH234634   1.958   7.341  16.582 -0.1641 -0.2081  0.0063
 3480TIP3    H134635   1.996   7.258  16.611 -1.7259 -0.8409  0.3463
 3480TIP3    H234636   1.887   7.316  16.523 -1.2201  0.8376  0.7761
 3481TIP3   OH234637   4.828   6.543  16.968  0.5785  0.1063 -0.2247
 3481TIP3    H134638   4.799   6.473  16.910 -0.8269  0.8626 -0.4671
 3481TIP3    H234639   4.812   6.510  17.056 -0.1808  0.1439 -0.3416
 3482TIP3   OH234640   6.688   3.188  18.835 -0.2447  0.1136 -0.2094
 3482TIP3    H134641   6.669   3.243  18.911  0.2572 -0.4166  0.3009
 3482TIP3    H234642   6.774   3.218  18.805 -0.7139  0.7625 -0.9751
 3483TIP3   OH234643   0.014   4.722  16.564  0.3961 -0.0070 -0.1409
 3483TIP3    H134644  -0.045   4.711  16.490  1.4228  1.0307 -1.1398
 3483TIP3    H234645   0.092   4.763  16.528  2.0336 -1.8804  1.0292
 3484TIP3   OH234646   6.875   3.726  17.742  0.4425 -0.4891 -0.0366
 3484TIP3    H134647   6.781   3.722  17.759  0.6581 -0.2655  1.4198
 3484TIP3    H234648   6.904   3.635  17.744  0.6254 -0.4571  2.2288
 3485TIP3   OH234649   1.320   2.048  16.997 -0.1119  0.2084 -0.0531
 3485TIP3    H134650   1.349   2.126  16.949  1.0984 -0.4710 -0.4759
 3485TIP3    H234651   1.280   1.993  16.930  0.0260 -0.0034  0.0386
 3486TIP3   OH234652   4.624   1.732  16.252 -0.4762 -0.0073  0.1870
 3486TIP3    H134653   4.670   1.789  16.191  0.6960 -1.0824  0.0224
 3486TIP3    H234654   4.564   1.680  16.198  1.9655 -2.3756 -0.4490
 3487TIP3   OH234655   1.434   0.066  16.184 -0.0728  0.0916 -0.0078
 3487TIP3    H134656   1.437  -0.011  16.127 -1.1107 -0.7353  1.0151
 3487TIP3    H234657   1.525   0.077  16.213 -0.0544 -1.3336  0.5656
 3488TIP3   OH234658   1.267   4.420  16.620  0.6834  0.1980 -0.6584
 3488TIP3    H134659   1.340   4.365  16.650  1.0937  0.3634 -1.3345
 3488TIP3    H234660   1.272   4.499  16.674  1.3228  0.4283 -1.0503
 3489TIP3   OH234661   0.665   4.921  17.800  0.2696  0.1381 -0.0629
 3489TIP3    H134662   0.591   4.867  17.771 -0.6747  0.5258  1.4952
 3489TIP3    H234663   0.624   4.995  17.844  1.5927  0.6131  0.3883
 3490TIP3   OH234664   2.094   2.464  18.427  0.1026 -0.2613 -0.4139
 3490TIP3    H134665   2.086   2.482  18.520 -1.7076 -0.3073 -0.5161
 3490TIP3    H234666   2.041   2.386  18.413  1.5404 -1.1367 -1.2710
 3491TIP3   OH234667   1.937   5.892  15.903 -0.5165 -0.9240 -0.2044
 3491TIP3    H134668   1.964   5.806  15.935  0.6563 -0.4545  0.1557
 3491TIP3    H234669   1.990   5.954  15.955 -1.6432  0.0282 -0.1598
 3492TIP3   OH234670   1.153   3.105  17.734  0.1532 -0.4173 -0.8720
 3492TIP3    H134671   1.083   3.111  17.800  0.3125  2.2478 -0.8497
 3492TIP3    H234672   1.233   3.098  17.786  0.2758  1.6415 -0.7247
 3493TIP3   OH234673   2.681   3.270  17.423  0.5295  0.3002  0.5263
 3493TIP3    H134674   2.652   3.243  17.510  0.1964 -0.0353  0.3137
 3493TIP3    H234675   2.766   3.311  17.438  1.3311 -1.3790  0.7975
 3494TIP3   OH234676   3.323   5.236  18.487  0.2663  0.3009 -0.1926
 3494TIP3    H134677   3.354   5.155  18.447 -1.4492  0.9504 -3.1271
 3494TIP3    H234678   3.400   5.293  18.488  1.0248 -0.6948  0.1209
 3495TIP3   OH234679   4.080   4.533  17.631 -0.1807  0.3270 -0.4108
 3495TIP3    H134680   4.143   4.522  17.702 -2.0257  0.5756  1.3542
 3495TIP3    H234681   4.132   4.566  17.558  1.5387  1.7742  1.3538
 3496TIP3   OH234682   5.191   5.845  17.352  0.4506  0.0379 -0.5055
 3496TIP3    H134683   5.146   5.833  17.269 -0.2032 -2.3298  0.1258
 3496TIP3    H234684   5.145   5.788  17.413  2.7629 -0.5801  0.7700
 3497TIP3   OH234685   0.961   7.375  17.326  0.5201  0.0568  0.2210
 3497TIP3    H134686   0.951   7.467  17.301 -0.8202 -0.3601 -0.8790
 3497TIP3    H234687   0.909   7.367  17.406 -0.1613  0.0479 -0.2173
 3498TIP3   OH234688   6.569   3.965  18.183 -0.4963 -0.1310 -0.3559
 3498TIP3    H134689   6.615   3.974  18.100 -1.7362  0.4300 -1.0100
 3498TIP3    H234690   6.636   3.933  18.244  0.3961 -0.7173 -1.5910
 3499TIP3   OH234691   5.120   2.530  16.202 -0.1954 -0.5950  0.1466
 3499TIP3    H134692   5.186   2.461  16.209  0.6667  0.2164  0.2091
 3499TIP3    H234693   5.044   2.488  16.161  0.8360 -1.2288 -1.1586
 3500TIP3   OH234694   5.723   3.265  17.833  0.3556  0.1543  0.4625
 3500TIP3    H134695   5.647   3.224  17.794  1.1374 -1.3106  0.4143
 3500TIP3    H234696   5.693   3.296  17.919 -0.0242 -1.3925  0.9059
 3501TIP3   OH234697   2.437   1.516  18.162  0.4738 -0.3276  0.1319
 3501TIP3    H134698   2.438   1.597  18.111 -1.7314 -0.4777 -0.2852
 3501TIP3    H234699   2.449   1.447  18.097 -1.3935 -0.4685 -0.1366
 3502TIP3   OH234700   2.346   0.019  18.079 -0.0646 -0.6938  0.2601
 3502TIP3    H134701   2.432   0.002  18.040  0.8895 -1.6357  2.5920
 3502TIP3    H234702   2.341  -0.041  18.153 -2.2116  0.2678  0.9656
 3503TIP3   OH234703   5.831   6.876  17.406  0.1135  0.2754 -0.0770
 3503TIP3    H134704   5.872   6.814  17.346 -0.7721  1.7562 -2.3270
 3503TIP3    H234705   5.748   6.835  17.429 -0.3092  0.4365 -1.2699
 3504TIP3   OH234706   7.341   5.516  17.129 -0.4689 -0.9039 -0.0951
 3504TIP3    H134707   7.254   5.547  17.153  0.1450  0.0428  1.0136
 3504TIP3    H234708   7.325   5.445  17.067 -2.0563 -1.4468  0.8863
 3505TIP3   OH234709   3.449   0.129  18.014 -0.1873 -0.3103  0.5015
 3505TIP3    H134710   3.511   0.058  17.997 -0.9173 -1.2200  1.5197
 3505TIP3    H234711   3.504   0.204  18.036  0.5967 -0.5245 -0.6180
 3506TIP3   OH234712   6.268   6.471  17.734 -0.2366  0.5233  0.6258
 3506TIP3    H134713   6.197   6.511  17.785 -0.9734 -0.7395  0.6419
 3506TIP3    H234714   6.346   6.484  17.787 -0.2797  2.6663  0.2305
 3507TIP3   OH234715   4.295   0.424  16.146  0.4566  0.8077  0.4502
 3507TIP3    H134716   4.209   0.459  16.124  0.4423  1.0089  0.8283
 3507TIP3    H234717   4.346   0.501  16.173  1.0497  0.8460 -0.6910
 3508TIP3   OH234718   2.093   4.754  17.883  0.8403  0.1936  0.1802
 3508TIP3    H134719   2.179   4.784  17.854  0.3950  0.4357 -0.9450
 3508TIP3    H234720   2.107   4.662  17.907  1.1232 -0.1962 -1.3888
 3509TIP3   OH234721   2.320   2.767  18.318  0.5197 -0.0410 -0.1210
 3509TIP3    H134722   2.326   2.752  18.412  1.7801  0.1877 -0.1490
 3509TIP3    H234723   2.342   2.683  18.279 -0.3820 -0.2418 -0.2250
 3510TIP3   OH234724   0.059   7.531  17.155 -0.4625 -0.1413 -0.4490
 3510TIP3    H134725  -0.032   7.512  17.177  0.2569 -0.8383  2.3254
 3510TIP3    H234726   0.101   7.445  17.148  0.2596  0.1817 -0.2463
 3511TIP3   OH234727   2.285   3.193  17.825  0.4710 -0.6181 -0.5419
 3511TIP3    H134728   2.286   3.262  17.892  0.8375 -2.0821  1.0424
 3511TIP3    H234729   2.205   3.144  17.842  0.3222 -0.7371 -1.5122
 3512TIP3   OH234730   4.833   5.561  17.342 -0.5099 -0.3363 -0.6045
 3512TIP3    H134731   4.746   5.586  17.373 -0.8436 -1.8817 -0.2096
 3512TIP3    H234732   4.834   5.588  17.250 -0.8305  1.0387 -0.2320
 3513TIP3   OH234733   2.590   3.262  18.612  0.3585  0.0274 -0.0383
 3513TIP3    H134734   2.662   3.215  18.652 -0.8510  0.1359  2.4960
 3513TIP3    H234735   2.584   3.344  18.662  0.6882  1.6884 -2.5384
 3514TIP3   OH234736   7.058   2.214  16.354 -0.3498  0.3450  0.2974
 3514TIP3    H134737   7.059   2.223  16.449 -0.5143 -0.1878  0.3551
 3514TIP3    H234738   7.001   2.284  16.323 -0.5270  0.3418  0.6155
 3515TIP3   OH234739   4.361   2.343  18.613  0.3813  0.4864 -0.2896
 3515TIP3    H134740   4.355   2.409  18.543  0.5856  0.1615 -0.6124
 3515TIP3    H234741   4.321   2.386  18.688 -3.4739 -0.4720 -1.5475
 3516TIP3   OH234742   2.439   1.706  16.636  0.2307 -0.1246  0.3192
 3516TIP3    H134743   2.527   1.728  16.604  0.7550 -0.3697  1.5390
 3516TIP3    H234744   2.384   1.777  16.603  0.5506 -0.8016 -1.8316
 3517TIP3   OH234745   1.756   4.743  16.795  0.3163 -0.1097 -0.1295
 3517TIP3    H134746   1.749   4.647  16.802 -0.5867 -0.0355  0.1783
 3517TIP3    H234747   1.843   4.758  16.760  0.9996 -1.0017  1.0792
 3518TIP3   OH234748   0.345   4.452  18.006 -0.5038 -0.0212  0.2349
 3518TIP3    H134749   0.300   4.535  17.989 -0.6007  0.1840  1.3668
 3518TIP3    H234750   0.395   4.469  18.086  0.9877 -0.4819 -0.5523
 3519TIP3   OH234751   4.016   2.455  16.455  0.0705 -0.1777 -0.2269
 3519TIP3    H134752   3.994   2.507  16.378  0.0638 -0.3117 -0.3179
 3519TIP3    H234753   4.102   2.485  16.481 -2.2294  4.4711  3.5437
 3520TIP3   OH234754   1.491   0.693  16.739 -0.5047 -0.1147 -0.2613
 3520TIP3    H134755   1.482   0.776  16.786 -0.2988  1.2627 -2.4900
 3520TIP3    H234756   1.443   0.707  16.657  1.8060 -1.1979 -1.8989
 3521TIP3   OH234757   0.048   2.647  18.336  0.1440 -0.3549  0.3197
 3521TIP3    H134758   0.084   2.654  18.424  0.1844 -0.5275  0.3186
 3521TIP3    H234759  -0.028   2.705  18.336 -0.2647 -0.8833  0.6764
 3522TIP3   OH234760   2.536   3.711  18.520  0.4150 -0.2175 -0.3990
 3522TIP3    H134761   2.536   3.628  18.570 -0.1858  0.3414  0.5637
 3522TIP3    H234762   2.537   3.683  18.429 -0.2472 -1.3167 -0.1035
 3523TIP3   OH234763   6.314   2.735  17.355  0.1535 -0.2654 -0.2548
 3523TIP3    H134764   6.263   2.654  17.351  1.9240 -1.5673  1.6146
 3523TIP3    H234765   6.248   2.804  17.363 -1.3805 -1.7472  0.7887
 3524TIP3   OH234766   4.305   2.500  16.524 -0.6239 -0.2665 -0.2068
 3524TIP3    H134767   4.318   2.595  16.520 -3.1230  0.1133 -1.1585
 3524TIP3    H234768   4.385   2.463  16.486  0.7989  1.3621  1.0036
 3525TIP3   OH234769   2.571   0.433  17.121  0.2785  0.0153 -0.0988
 3525TIP3    H134770   2.557   0.368  17.189 -1.7115  0.2984 -0.1656
 3525TIP3    H234771   2.605   0.383  17.046  0.7160 -0.5892  0.4965
 3526TIP3   OH234772   5.798   3.473  18.014 -0.1628 -0.1135 -0.2458
 3526TIP3    H134773   5.857   3.412  18.059 -0.7528 -0.1417  0.5050
 3526TIP3    H234774   5.805   3.554  18.064 -0.2761  0.0787 -0.5399
 3527TIP3   OH234775   3.982   0.591  18.159 -0.0783 -0.0597 -0.3149
 3527TIP3    H134776   3.924   0.587  18.235  1.2915  0.6594  0.8224
 3527TIP3    H234777   4.071   0.593  18.196  0.6058  1.2607 -1.8714
 3528TIP3   OH234778   1.504   7.154  16.309  0.4986  0.2650 -0.0757
 3528TIP3    H134779   1.477   7.089  16.244  3.4165 -0.3802 -0.7594
 3528TIP3    H234780   1.424   7.205  16.325 -1.3121 -1.9956 -1.2164
 3529TIP3   OH234781   2.078   5.696  17.823  0.2236  0.4055  0.2403
 3529TIP3    H134782   2.010   5.629  17.810 -0.0508  0.7816 -0.2708
 3529TIP3    H234783   2.074   5.750  17.744 -1.4697  2.7430  1.8131
 3530TIP3   OH234784   1.396   5.056  17.163 -0.3146 -0.3298  0.0528
 3530TIP3    H134785   1.350   5.022  17.240 -1.6849  0.5687 -0.3311
 3530TIP3    H234786   1.350   5.137  17.141  1.8041  0.9295 -0.0504
 3531TIP3   OH234787   2.110   1.008  17.134  0.2061 -0.0075  0.2811
 3531TIP3    H134788   2.175   1.073  17.162  1.3680 -1.1395  0.3378
 3531TIP3    H234789   2.159   0.925  17.131 -1.4840 -1.1322  1.3803
 3532TIP3   OH234790   3.003   1.779  18.579  0.0545  0.1387 -0.3183
 3532TIP3    H134791   2.975   1.748  18.493 -1.8789 -0.1392  0.3519
 3532TIP3    H234792   3.033   1.700  18.624  1.2773  0.3180 -0.7813
 3533TIP3   OH234793   6.850   4.037  17.650  0.6434  0.1159 -0.2958
 3533TIP3    H134794   6.881   3.951  17.679 -0.1264 -0.4983 -1.2432
 3533TIP3    H234795   6.871   4.041  17.557  0.4295  0.8391 -0.3223
 3534TIP3   OH234796   0.829   3.442  18.255  0.7731 -0.4207  0.0925
 3534TIP3    H134797   0.892   3.496  18.303  0.2779 -0.5110  0.8697
 3534TIP3    H234798   0.809   3.370  18.315 -0.2493 -0.2629 -0.0451
 3535TIP3   OH234799   4.211   3.479  15.986  0.2345  0.0858 -0.3258
 3535TIP3    H134800   4.118   3.503  15.985  0.6336  1.7324 -0.4544
 3535TIP3    H234801   4.211   3.384  15.991 -1.4626  0.1000  0.5493
 3536TIP3   OH234802   0.893   5.615  18.537 -0.5281 -0.0331  1.1470
 3536TIP3    H134803   0.824   5.609  18.471  1.0269  0.0072 -0.5517
 3536TIP3    H234804   0.848   5.649  18.615 -2.3986  0.0605  0.0928
 3537TIP3   OH234805   6.372   6.636  18.176 -0.2289 -0.0884  0.4593
 3537TIP3    H134806   6.394   6.554  18.220  0.4111  0.0384  0.3954
 3537TIP3    H234807   6.456   6.666  18.140 -0.8860 -0.7533 -1.8215
 3538TIP3   OH234808   0.818   2.693  17.225  0.0724  0.2403  0.0363
 3538TIP3    H134809   0.875   2.720  17.297 -0.3965  1.2612  0.0426
 3538TIP3    H234810   0.800   2.774  17.176 -0.7244 -0.1983 -0.4283
 3539TIP3   OH234811   5.548   1.606  17.610  0.1284  0.2484 -0.0259
 3539TIP3    H134812   5.592   1.586  17.527 -0.8876  1.2624 -0.8357
 3539TIP3    H234813   5.475   1.545  17.614  0.9969 -0.7770  0.8512
 3540TIP3   OH234814   5.424   4.048  17.978  0.0344  0.0230 -0.1378
 3540TIP3    H134815   5.510   4.010  17.961  0.3048  0.3258  0.5356
 3540TIP3    H234816   5.441   4.142  17.986 -0.1934 -0.0305  1.0582
 3541TIP3   OH234817   0.614   7.068  16.893  0.3798  0.0615 -0.0386
 3541TIP3    H134818   0.702   7.041  16.921 -0.4794 -0.6794  2.1438
 3541TIP3    H234819   0.557   6.997  16.923 -0.9541  0.3404 -1.7663
 3542TIP3   OH234820   4.805   0.716  17.198 -0.1073 -0.3714 -0.0413
 3542TIP3    H134821   4.885   0.714  17.250 -1.1679 -2.4396  1.6438
 3542TIP3    H234822   4.759   0.636  17.222 -3.5541  1.5820  0.4273
 3543TIP3   OH234823   6.882   7.511  16.751 -0.0866 -0.0837  0.3458
 3543TIP3    H134824   6.940   7.583  16.771  0.3030 -0.7930  1.8924
 3543TIP3    H234825   6.925   7.434  16.789 -0.3805 -1.1819 -1.4363
 3544TIP3   OH234826   7.177   6.390  18.387  0.3601  0.0024  0.3207
 3544TIP3    H134827   7.125   6.461  18.350  0.0761 -0.4535 -0.1736
 3544TIP3    H234828   7.116   6.317  18.395  1.2438 -1.0883 -1.8362
 3545TIP3   OH234829   0.010   5.073  17.321 -0.0348  0.3019 -0.2041
 3545TIP3    H134830  -0.007   5.112  17.407 -1.7767  0.1145 -0.4222
 3545TIP3    H234831  -0.021   4.983  17.330  2.6783 -0.7220 -0.1185
 3546TIP3   OH234832   3.602   2.450  18.504 -0.7013 -0.1474 -0.3437
 3546TIP3    H134833   3.607   2.360  18.535 -1.9385 -0.5021 -1.1083
 3546TIP3    H234834   3.517   2.482  18.534 -0.0383  0.9730  0.4193
 3547TIP3   OH234835   2.589   0.267  17.851  0.9371 -0.1824  0.1804
 3547TIP3    H134836   2.629   0.352  17.838 -1.6815  1.0119 -0.8081
 3547TIP3    H234837   2.526   0.281  17.922 -0.9540 -0.6855 -1.3200
 3548TIP3   OH234838   7.061   4.827  18.457 -0.5924  0.7392  0.1242
 3548TIP3    H134839   7.026   4.743  18.426 -0.1640 -0.4032  2.5502
 3548TIP3    H234840   7.147   4.833  18.416 -0.6741  0.0464 -0.1727
 3549TIP3   OH234841   1.488   4.167  16.650 -0.3245  0.1631  0.0752
 3549TIP3    H134842   1.486   4.199  16.740  2.8656 -0.2876  0.4159
 3549TIP3    H234843   1.531   4.237  16.601  1.9922 -1.3178 -0.1568
 3550TIP3   OH234844   3.270   5.990  17.458  0.3747 -0.0285 -0.1459
 3550TIP3    H134845   3.268   5.903  17.499 -0.0459 -0.1658 -0.4414
 3550TIP3    H234846   3.362   6.009  17.444  0.5628  0.2210  1.2815
 3551TIP3   OH234847   2.899   3.405  16.992 -0.6073  0.5622 -0.1984
 3551TIP3    H134848   2.867   3.487  17.029 -0.5957  0.1659  0.7159
 3551TIP3    H234849   2.970   3.432  16.932  0.8196  1.1052  1.6531
 3552TIP3   OH234850   1.258   1.305  18.663 -0.4414 -0.2417  0.1025
 3552TIP3    H134851   1.303   1.225  18.639 -1.2085 -0.4963 -0.5109
 3552TIP3    H234852   1.174   1.301  18.618 -0.9231  0.4132  0.8963
 3553TIP3   OH234853   6.612   5.284  19.190 -0.1048  0.2777  0.4472
 3553TIP3    H134854   6.666   5.362  19.187 -0.4725  0.5568 -2.7847
 3553TIP3    H234855   6.522   5.317  19.182 -0.2619 -0.4066 -0.9615
 3554TIP3   OH234856   4.667   5.613  17.912 -0.0098 -0.1077  0.2224
 3554TIP3    H134857   4.705   5.617  18.000 -0.5206 -1.0302  0.5016
 3554TIP3    H234858   4.573   5.625  17.925  0.0155  0.7773 -0.3206
 3555TIP3   OH234859   3.679   4.741  17.545  0.6379 -0.5869  0.1051
 3555TIP3    H134860   3.602   4.756  17.600  0.1929 -1.2296 -0.3394
 3555TIP3    H234861   3.685   4.818  17.490 -0.2861 -0.9732 -0.5584
 3556TIP3   OH234862   2.765   3.245  17.714  0.2119 -0.4590 -0.4071
 3556TIP3    H134863   2.843   3.255  17.660  0.9421  1.2657  0.8558
 3556TIP3    H234864   2.778   3.163  17.761  0.6556 -0.8065 -1.1287
 3557TIP3   OH234865   3.791   0.425  16.153 -0.3311  0.2335 -0.1707
 3557TIP3    H134866   3.718   0.447  16.212 -1.0029 -1.4742 -0.3109
 3557TIP3    H234867   3.840   0.507  16.144 -0.7939  0.8061  1.9290
 3558TIP3   OH234868   3.388   6.669  17.702  0.4589 -0.4070 -0.1135
 3558TIP3    H134869   3.315   6.624  17.658 -1.4369  0.8839  1.5418
 3558TIP3    H234870   3.432   6.600  17.752  0.2368 -1.1637 -0.9278
 3559TIP3   OH234871   4.418   7.675  18.995 -0.2588 -0.3982  0.4414
 3559TIP3    H134872   4.378   7.615  18.931 -1.6025 -0.1213  0.9975
 3559TIP3    H234873   4.513   7.666  18.979 -0.5534  0.5823 -2.4164
 3560TIP3   OH234874   5.112   2.961  18.118 -0.1466  0.1110  0.1769
 3560TIP3    H134875   5.030   3.002  18.091 -0.6235  2.2423  4.1942
 3560TIP3    H234876   5.096   2.867  18.107 -2.9501  0.4794  0.3772
 3561TIP3   OH234877   6.788   5.826  17.980 -0.3413 -0.3084 -0.2781
 3561TIP3    H134878   6.829   5.872  17.907 -2.0050  0.0264 -1.0639
 3561TIP3    H234879   6.737   5.756  17.938 -0.1425 -1.0460  0.6866
 3562TIP3   OH234880   4.770   6.821  18.321  0.1604  0.4130 -0.3018
 3562TIP3    H134881   4.838   6.875  18.280  1.9001 -1.5405 -0.1362
 3562TIP3    H234882   4.770   6.848  18.413  0.6639  0.4669 -0.3152
 3563TIP3   OH234883   1.377   6.633  17.163  0.0944 -0.1634 -0.3393
 3563TIP3    H134884   1.401   6.681  17.243  0.9566 -1.0290 -0.0512
 3563TIP3    H234885   1.457   6.632  17.111  0.3996 -2.0317  0.0696
 3564TIP3   OH234886   3.094   4.808  18.258 -0.0924  0.0305 -0.2460
 3564TIP3    H134887   3.009   4.840  18.287 -0.0671  0.8429 -1.0154
 3564TIP3    H234888   3.074   4.752  18.182  0.0814  0.5527 -0.6825
 3565TIP3   OH234889   5.383   2.762  17.791 -0.0010  0.2993  0.1634
 3565TIP3    H134890   5.341   2.766  17.876  1.8642 -2.6220  1.3921
 3565TIP3    H234891   5.327   2.704  17.739  0.4658 -0.4921  0.5189
 3566TIP3   OH234892   3.481   2.702  17.610 -0.0106  0.0529  0.2606
 3566TIP3    H134893   3.406   2.749  17.574 -1.4901 -2.2349  0.1073
 3566TIP3    H234894   3.488   2.623  17.555  3.4440  0.8099 -0.6467
 3567TIP3   OH234895   0.007   0.900  17.882 -0.2884 -0.3473 -0.2287
 3567TIP3    H134896  -0.029   0.914  17.795 -0.8632  1.9661  0.3029
 3567TIP3    H234897   0.046   0.985  17.905 -1.9141 -0.2547  2.5409
 3568TIP3   OH234898   0.828   4.911  18.835  0.4867 -0.6929  0.0886
 3568TIP3    H134899   0.741   4.905  18.874  0.5611 -0.0379  0.3677
 3568TIP3    H234900   0.856   5.001  18.853  1.6301 -1.1810  0.8954
 3569TIP3   OH234901   1.723   7.334  18.214  0.1457  0.5240 -0.3585
 3569TIP3    H134902   1.695   7.425  18.227  1.8520  0.6388  4.4038
 3569TIP3    H234903   1.814   7.342  18.183  0.1977  0.4337 -0.2285
 3570TIP3   OH234904   4.063   3.390  18.455  0.5254 -0.1116 -0.2798
 3570TIP3    H134905   3.994   3.445  18.493 -0.6854  0.0133 -2.4660
 3570TIP3    H234906   4.065   3.312  18.510  0.5566  1.0479  1.4227
 3571TIP3   OH234907   5.660   7.092  17.399 -0.1313  0.4623 -0.7292
 3571TIP3    H134908   5.707   7.170  17.371  0.2528 -0.4487 -2.7482
 3571TIP3    H234909   5.729   7.030  17.423 -0.3540 -0.0929 -1.5042
 3572TIP3   OH234910   3.387   5.324  17.791 -0.1059  0.3752 -0.5048
 3572TIP3    H134911   3.457   5.280  17.742  0.8045  0.1405  0.9468
 3572TIP3    H234912   3.406   5.417  17.782 -1.3485  0.4883 -2.5798
 3573TIP3   OH234913   5.676   5.976  18.672 -0.6600  0.0447  0.3796
 3573TIP3    H134914   5.745   5.972  18.606 -1.2423 -0.3784 -0.2153
 3573TIP3    H234915   5.690   6.060  18.716  0.0093  0.1263  0.0264
 3574TIP3   OH234916   0.948   0.461  18.756 -0.2811 -0.2415  0.0196
 3574TIP3    H134917   0.876   0.419  18.709 -1.9495  0.0014  2.1756
 3574TIP3    H234918   0.916   0.469  18.846  1.6585  1.7634  0.6190
 3575TIP3   OH234919   0.119   0.933  17.299 -0.0842  0.7685  0.0553
 3575TIP3    H134920   0.157   0.881  17.229 -1.7396  1.3257 -1.3350
 3575TIP3    H234921   0.194   0.970  17.345  1.1016  1.4563 -2.2693
 3576TIP3   OH234922   1.366   4.595  16.329  0.4320  0.0012 -0.0766
 3576TIP3    H134923   1.401   4.507  16.344  0.8581  0.1328 -0.2807
 3576TIP3    H234924   1.293   4.602  16.390 -0.2435 -0.8601 -0.7425
 3577TIP3   OH234925   0.216   7.202  18.546 -0.0963 -0.5589  0.4428
 3577TIP3    H134926   0.284   7.265  18.568 -1.0684 -0.1680  2.5847
 3577TIP3    H234927   0.137   7.235  18.590 -1.2120 -1.9868 -0.3954
 3578TIP3   OH234928   1.395   1.542  17.095 -0.2612  0.0060  0.3623
 3578TIP3    H134929   1.471   1.583  17.055 -0.2024 -0.8313 -0.3985
 3578TIP3    H234930   1.414   1.448  17.094 -0.6718 -0.1062  1.4912
 3579TIP3   OH234931   0.799   7.631  18.459 -0.0360 -0.9534  0.3290
 3579TIP3    H134932   0.839   7.647  18.374 -1.6456 -0.3551 -0.3500
 3579TIP3    H234933   0.721   7.580  18.440 -1.5274  0.8893  1.1892
 3580TIP3   OH234934   2.766   5.650  17.370 -0.0376 -0.1928 -0.5925
 3580TIP3    H134935   2.740   5.679  17.283 -0.6255 -0.0745 -0.3813
 3580TIP3    H234936   2.700   5.687  17.429 -0.3759 -1.3272 -0.2306
 3581TIP3   OH234937   6.389   1.561  16.858 -0.2912  0.0009  0.4083
 3581TIP3    H134938   6.466   1.573  16.913 -0.9100 -2.0155  1.8238
 3581TIP3    H234939   6.386   1.640  16.804  2.1433  0.6182  1.0352
 3582TIP3   OH234940   0.826   2.419  17.831 -0.1157 -0.1412  0.0971
 3582TIP3    H134941   0.875   2.461  17.761  2.7203  0.4446  2.2637
 3582TIP3    H234942   0.792   2.491  17.884 -0.1708 -0.5723  0.6639
 3583TIP3   OH234943   2.393   0.226  19.136 -0.3535 -0.1444  0.3688
 3583TIP3    H134944   2.433   0.311  19.122 -1.3506  0.0965 -1.3641
 3583TIP3    H234945   2.348   0.234  19.220  1.1972  0.3442  1.1903
 3584TIP3   OH234946   0.061   3.261  17.551 -0.2319 -0.3304  0.0211
 3584TIP3    H134947  -0.023   3.302  17.533  0.4580  1.0899 -0.1187
 3584TIP3    H234948   0.053   3.172  17.516 -1.8986 -0.4593  0.6521
 3585TIP3   OH234949   1.547   0.276  18.120 -0.0256 -0.2239 -0.6300
 3585TIP3    H134950   1.480   0.280  18.189  0.6420  1.4611 -0.0369
 3585TIP3    H234951   1.592   0.360  18.125  1.7776 -1.0844 -1.3989
 3586TIP3   OH234952   6.895   2.629  17.833 -0.1148  0.0278  0.6020
 3586TIP3    H134953   6.807   2.593  17.823  0.6622 -2.8525  2.7604
 3586TIP3    H234954   6.928   2.636  17.744 -0.9971 -3.2519 -0.1176
 3587TIP3   OH234955   0.736   6.815  18.281  0.2630 -0.9399 -0.3757
 3587TIP3    H134956   0.750   6.721  18.273  2.1447 -0.6277 -1.1724
 3587TIP3    H234957   0.758   6.850  18.195  2.0162  0.4726  0.5705
 3588TIP3   OH234958   2.059   6.400  18.137 -0.6922 -0.5661 -0.0723
 3588TIP3    H134959   2.001   6.345  18.084 -2.4617  0.8610  0.2955
 3588TIP3    H234960   2.107   6.453  18.074 -2.3188  0.6668 -0.3370
 3589TIP3   OH234961   1.779   5.313  16.890  0.0760 -0.0185 -0.1279
 3589TIP3    H134962   1.800   5.224  16.862  1.7750  1.1060 -2.7253
 3589TIP3    H234963   1.859   5.363  16.875 -0.3652  1.7298  2.6252
 3590TIP3   OH234964   5.138   2.449  16.719  0.5806 -0.1354 -0.1027
 3590TIP3    H134965   5.125   2.355  16.713 -0.8543  0.0736 -0.5180
 3590TIP3    H234966   5.212   2.466  16.660  0.0992 -0.8591 -0.9412
 3591TIP3   OH234967   6.716   3.085  17.137  0.2103 -0.0617  0.7350
 3591TIP3    H134968   6.743   3.176  17.131  1.4023 -0.2578  2.4707
 3591TIP3    H234969   6.766   3.050  17.211 -0.1526 -2.1410  0.0613
 3592TIP3   OH234970   6.088   6.674  16.619 -0.2669 -0.0461  0.1507
 3592TIP3    H134971   6.008   6.629  16.646 -1.3225  0.7251 -1.5288
 3592TIP3    H234972   6.067   6.712  16.533  2.0337 -0.1619 -0.5430
 3593TIP3   OH234973   7.158   6.527  16.477 -0.4601 -0.5957  0.1241
 3593TIP3    H134974   7.205   6.611  16.472  0.9891 -1.3999 -0.5288
 3593TIP3    H234975   7.169   6.499  16.568  0.7003 -0.9506 -0.1070
 3594TIP3   OH234976   2.080   1.663  16.886 -0.2746  0.0101  0.3492
 3594TIP3    H134977   2.039   1.734  16.934 -2.9682 -0.6453 -0.8195
 3594TIP3    H234978   2.069   1.686  16.794 -0.5047 -1.5346 -0.0435
 3595TIP3   OH234979   6.042   2.029  16.746  0.0303  0.2256  0.2861
 3595TIP3    H134980   5.972   2.077  16.701 -0.8315 -0.1462  1.1930
 3595TIP3    H234981   6.123   2.068  16.714 -0.5550  0.1048 -1.4415
 3596TIP3   OH234982   0.728   5.307  18.363 -1.0240  0.4113 -0.0499
 3596TIP3    H134983   0.819   5.320  18.388 -0.9828  1.1453 -0.5292
 3596TIP3    H234984   0.700   5.393  18.330 -1.4834 -0.1406 -1.1470
 3597TIP3   OH234985   0.461   5.254  16.954  0.2447  0.1480  0.6027
 3597TIP3    H134986   0.460   5.188  17.023 -1.8124 -0.7577 -0.2240
 3597TIP3    H234987   0.458   5.203  16.872 -1.1037  1.2305 -0.0555
 3598TIP3   OH234988   2.060   2.608  16.072 -0.2656 -0.2606  0.6372
 3598TIP3    H134989   2.056   2.517  16.045  0.3287 -0.7554  2.1372
 3598TIP3    H234990   2.147   2.618  16.110 -0.0370  1.1391 -0.1809
 3599TIP3   OH234991   4.953   2.331  16.160  0.1154  0.5861  0.5240
 3599TIP3    H134992   5.039   2.292  16.175  0.2918  0.5405 -0.5250
 3599TIP3    H234993   4.891   2.262  16.183  0.2459  1.3015  3.3606
 3600TIP3   OH234994   0.878   0.443  17.215 -0.2269  0.1611  0.1028
 3600TIP3    H134995   0.808   0.407  17.160 -0.4688  2.1762 -1.0003
 3600TIP3    H234996   0.832   0.485  17.288 -0.3509  2.5001 -1.2183
 3601TIP3   OH234997   6.143   5.392  16.423 -0.3214  0.1122 -0.4716
 3601TIP3    H134998   6.130   5.303  16.391 -0.8519  0.4380 -1.1903
 3601TIP3    H234999   6.238   5.402  16.428 -0.2318 -1.1631  1.5984
 3602TIP3   OH235000   0.624   2.120  18.678  0.6234  0.3282 -0.2169
 3602TIP3    H135001   0.554   2.054  18.677 -1.0559  2.0008 -0.5010
 3602TIP3    H235002   0.581   2.200  18.645  2.7197  1.4124 -0.4732
 3603TIP3   OH235003   0.920   4.868  17.798 -0.1312  0.1680  0.0488
 3603TIP3    H135004   0.941   4.793  17.853  0.7891  0.2785 -0.1442
 3603TIP3    H235005   0.825   4.878  17.806  0.0155  0.3495  1.8223
 3604TIP3   OH235006   2.918   4.878  16.777 -0.1964 -0.1821  0.0530
 3604TIP3    H135007   3.005   4.919  16.783 -0.1116 -0.3344 -0.1444
 3604TIP3    H235008   2.924   4.800  16.832 -0.5248  0.3487  0.8746
 3605TIP3   OH235009   0.331   5.737  18.731  0.4460 -0.5490  0.0236
 3605TIP3    H135010   0.389   5.669  18.698 -0.7502 -1.2868 -0.6298
 3605TIP3    H235011   0.273   5.757  18.658 -0.0653  0.2288  0.6257
 3606TIP3   OH235012   3.969   0.347  18.607  0.1509 -0.3339 -0.5691
 3606TIP3    H135013   3.882   0.319  18.578 -0.2921  0.8683 -0.4338
 3606TIP3    H235014   4.024   0.341  18.528 -0.5364  0.8297 -1.1612
 3607TIP3   OH235015   2.239   6.206  16.659  0.0404  0.0698 -0.3414
 3607TIP3    H135016   2.165   6.266  16.665  0.8490  1.0805 -0.2519
 3607TIP3    H235017   2.289   6.237  16.584  0.0505 -1.0045 -0.8000
 3608TIP3   OH235018   0.741   2.054  18.402 -0.0891 -0.6258  0.3530
 3608TIP3    H135019   0.720   1.963  18.419  0.8108 -0.6374  1.6436
 3608TIP3    H235020   0.722   2.099  18.485  2.6051 -0.2761  0.9040
 3609TIP3   OH235021   4.037   6.398  19.022 -0.2534  0.5240  0.2362
 3609TIP3    H135022   4.103   6.467  19.021  0.1349  0.1586 -0.0905
 3609TIP3    H235023   4.031   6.372  19.114 -1.0800  1.6103  0.5099
 3610TIP3   OH235024   5.536   4.896  17.063  0.2505 -0.1782  0.4077
 3610TIP3    H135025   5.503   4.986  17.075  0.2192 -0.2366  0.7690
 3610TIP3    H235026   5.629   4.907  17.043  0.5186 -0.1105  1.6078
 3611TIP3   OH235027   5.284   2.868  16.491 -0.4207  0.2965  0.2619
 3611TIP3    H135028   5.328   2.817  16.559  0.4861 -0.1727 -0.6466
 3611TIP3    H235029   5.301   2.820  16.410  0.4304  1.9937 -0.6293
 3612TIP3   OH235030   5.239   6.171  16.731 -0.2875  0.0371  0.1953
 3612TIP3    H135031   5.327   6.134  16.745 -0.3279  0.6184  2.4030
 3612TIP3    H235032   5.239   6.200  16.640  1.5581 -0.6337 -0.0619
 3613TIP3   OH235033   0.301   5.147  16.289  0.2578  0.1943 -0.1319
 3613TIP3    H135034   0.294   5.195  16.372 -0.5730 -0.4656  0.1840
 3613TIP3    H235035   0.217   5.104  16.278  0.8484 -0.8839 -0.6118
 3614TIP3   OH235036   7.097   4.341  18.642  0.2836  0.5444 -0.3434
 3614TIP3    H135037   7.147   4.358  18.562  0.8480  1.5760  0.1947
 3614TIP3    H235038   7.027   4.407  18.641  1.0162  1.3809  0.5724
 3615TIP3   OH235039   3.686   6.135  18.028 -0.2553 -0.1354  0.3527
 3615TIP3    H135040   3.623   6.064  18.031 -0.4245  0.0343  1.0870
 3615TIP3    H235041   3.633   6.215  18.029 -0.1813  0.0578 -2.7311
 3616TIP3   OH235042   7.661   5.820  16.580 -0.2643 -0.0813 -0.0920
 3616TIP3    H135043   7.691   5.731  16.600  2.7986  1.0749  0.9987
 3616TIP3    H235044   7.711   5.844  16.502 -1.6355  0.4719 -0.8323
 3617TIP3   OH235045   1.369   5.136  16.046  0.1412 -0.1724  0.3188
 3617TIP3    H135046   1.422   5.167  15.973 -0.8725 -0.3709 -0.5395
 3617TIP3    H235047   1.285   5.181  16.035 -0.6825 -1.6774  0.2048
 3618TIP3   OH235048   3.982   4.043  16.326 -0.5723  0.4907  0.0228
 3618TIP3    H135049   3.886   4.042  16.323 -0.7301  1.9292  2.2268
 3618TIP3    H235050   4.008   4.115  16.269 -0.8995  0.9388  0.4334
 3619TIP3   OH235051   5.787   5.634  19.010 -0.6530  0.2800  0.8763
 3619TIP3    H135052   5.770   5.684  18.930  1.5310  0.1635  0.2830
 3619TIP3    H235053   5.702   5.632  19.055 -1.5348  1.8196 -0.5885
 3620TIP3   OH235054   7.053   7.256  15.745 -0.0317 -0.0561 -0.1730
 3620TIP3    H135055   7.149   7.254  15.756 -0.0437  0.2306 -0.0205
 3620TIP3    H235056   7.024   7.173  15.784  0.3833 -1.4732 -2.6343
 3621TIP3   OH235057   4.546   3.749  18.790  0.5704 -0.3276 -0.0127
 3621TIP3    H135058   4.523   3.807  18.863  0.8560 -0.6370  0.3297
 3621TIP3    H235059   4.475   3.684  18.789  0.4705 -0.2179 -0.1293
 3622TIP3   OH235060   1.509   2.454  17.745 -0.3371 -0.1559 -0.1753
 3622TIP3    H135061   1.477   2.383  17.689 -1.1620 -0.2014  0.3454
 3622TIP3    H235062   1.475   2.433  17.832 -0.5585  0.8616 -0.0127
 3623TIP3   OH235063   3.348   1.523  18.757  0.6620 -0.1468 -0.2880
 3623TIP3    H135064   3.257   1.505  18.732  0.6759  1.6551 -1.8619
 3623TIP3    H235065   3.394   1.441  18.741 -0.6304 -1.0136  0.2863
 3624TIP3   OH235066   4.853   2.589  17.599  0.0737 -0.0912 -0.6465
 3624TIP3    H135067   4.919   2.634  17.547  0.9578  0.9987  1.3158
 3624TIP3    H235068   4.902   2.546  17.669 -1.1078 -0.9976 -0.3358
 3625TIP3   OH235069   2.495   6.567  17.104 -0.4396 -0.2355 -0.4916
 3625TIP3    H135070   2.419   6.606  17.147  0.0021 -1.3147  1.3681
 3625TIP3    H235071   2.550   6.642  17.080 -0.5086  0.4104  1.2610
 3626TIP3   OH235072   3.180   6.499  18.074 -0.0109  0.2757  0.6290
 3626TIP3    H135073   3.219   6.436  18.014 -1.0916 -2.2013  2.3695
 3626TIP3    H235074   3.199   6.584  18.035 -0.2634 -1.1489 -2.9236
 3627TIP3   OH235075   6.177   2.029  18.570 -0.0700 -0.1089 -0.2292
 3627TIP3    H135076   6.249   1.993  18.620 -0.7505  2.1279  2.6222
 3627TIP3    H235077   6.218   2.090  18.508  0.5725  0.6969  0.9573
 3628TIP3   OH235078   2.442   4.955  17.223  0.1269  0.7315  0.0332
 3628TIP3    H135079   2.494   4.959  17.142 -0.8142  0.7762 -0.5847
 3628TIP3    H235080   2.485   4.888  17.276  0.4013  0.2584 -0.7713
 3629TIP3   OH235081   0.706   6.821  16.767 -0.0194 -0.0093  0.1665
 3629TIP3    H135082   0.750   6.877  16.704  0.4097 -0.8321 -0.2804
 3629TIP3    H235083   0.653   6.762  16.713 -1.3055  0.6441  0.6687
 3630TIP3   OH235084   3.082   2.275  17.313  0.1349 -0.1243  0.1679
 3630TIP3    H135085   3.060   2.324  17.234  1.2066  0.2986  0.1167
 3630TIP3    H235086   3.120   2.340  17.372  0.8145 -0.7189  0.4098
 3631TIP3   OH235087   3.947   0.630  17.349 -0.0786  0.0704 -0.3511
 3631TIP3    H135088   4.009   0.632  17.423 -1.6544 -1.8858  1.1352
 3631TIP3    H235089   3.872   0.682  17.379 -0.4527 -0.1656 -0.8651
 3632TIP3   OH235090   1.058   2.912  15.913  0.1995  0.5254  0.3100
 3632TIP3    H135091   1.121   2.890  15.983  1.4107  0.1288 -0.8630
 3632TIP3    H235092   1.066   3.007  15.903  3.1682  0.1832 -2.0490
 3633TIP3   OH235093   4.282   3.146  18.462  0.2298 -0.1425 -0.3987
 3633TIP3    H135094   4.289   3.191  18.546  0.5039 -2.2240  0.7914
 3633TIP3    H235095   4.191   3.119  18.457  0.5829 -1.5792  0.1716
 3634TIP3   OH235096   2.219   2.072  18.485  0.2785 -0.4751  0.7842
 3634TIP3    H135097   2.223   2.168  18.490 -1.6475 -0.2467 -0.9256
 3634TIP3    H235098   2.306   2.043  18.514  2.2569  1.9325 -2.1766
 3635TIP3   OH235099   2.331   5.125  17.433  0.4234  0.1406 -0.3876
 3635TIP3    H135100   2.345   5.130  17.338  0.2520 -1.3762 -0.5135
 3635TIP3    H235101   2.328   5.031  17.452  0.4963  0.4218  1.1342
 3636TIP3   OH235102   6.278   7.662  18.435 -0.3460  0.0210 -0.0397
 3636TIP3    H135103   6.185   7.663  18.457  0.0313  0.3692  1.6396
 3636TIP3    H235104   6.296   7.570  18.415 -0.8734 -0.1833  0.3961
 3637TIP3   OH235105   5.756   2.035  16.840 -0.4189 -0.6495  0.6176
 3637TIP3    H135106   5.736   2.015  16.931  0.7692 -0.8285  0.8608
 3637TIP3    H235107   5.852   2.030  16.835 -0.3602  0.8341 -0.2945
 3638TIP3   OH235108   3.520   0.716  18.481 -0.2099  0.6555 -0.0898
 3638TIP3    H135109   3.554   0.715  18.570 -0.1579  0.1553 -0.1121
 3638TIP3    H235110   3.503   0.624  18.460  0.0748  0.7324 -0.7047
 3639TIP3   OH235111   6.044   2.107  18.229  0.1112 -0.1538 -0.1600
 3639TIP3    H135112   6.082   2.108  18.141  1.4961 -1.0562  0.3897
 3639TIP3    H235113   6.114   2.142  18.285 -0.0870 -1.2758  0.8116
 3640TIP3   OH235114   1.074   1.285  17.233  0.3269 -0.4621  0.0217
 3640TIP3    H135115   1.063   1.367  17.185  0.8478  0.2821  1.1165
 3640TIP3    H235116   1.150   1.243  17.193  0.6104  0.0331  0.0320
 3641TIP3   OH235117   4.061   3.833  17.509 -0.3483 -0.5892  0.5448
 3641TIP3    H135118   4.153   3.811  17.494  0.1508  1.3857  0.4313
 3641TIP3    H235119   4.053   3.839  17.604 -0.1347  0.1217  0.5175
 3642TIP3   OH235120   6.158   7.647  18.041 -0.1015 -0.0174  0.2742
 3642TIP3    H135121   6.070   7.666  18.009  0.2018 -1.7985 -1.8049
 3642TIP3    H235122   6.149   7.564  18.088  0.5900 -0.5898 -0.5902
 3643TIP3   OH235123   5.981   4.388  18.799 -0.2644 -0.4098  0.1439
 3643TIP3    H135124   5.984   4.421  18.889  3.1413  1.0537 -0.3351
 3643TIP3    H235125   5.988   4.293  18.807  0.7489 -0.2462  1.4528
 3644TIP3   OH235126   5.474   6.336  17.468  0.5549  0.1042 -0.3358
 3644TIP3    H135127   5.550   6.395  17.476  0.2775  0.6852 -1.5930
 3644TIP3    H235128   5.413   6.368  17.534  1.1472  0.0360  0.2608
 3645TIP3   OH235129   3.421   6.091  18.929 -0.4828  0.3606 -0.2100
 3645TIP3    H135130   3.388   6.177  18.955 -0.1177  0.4205  0.0580
 3645TIP3    H235131   3.510   6.087  18.965 -0.5296 -0.1613 -0.1422
 3646TIP3   OH235132   3.842   6.484  16.456  0.5279  0.1542  0.2256
 3646TIP3    H135133   3.896   6.440  16.391  1.9300  1.0503  0.7423
 3646TIP3    H235134   3.848   6.577  16.433  2.4135  0.6797  2.5511
 3647TIP3   OH235135   0.224   3.007  18.492 -0.3298 -0.4386 -0.2156
 3647TIP3    H135136   0.134   3.001  18.524  0.5803  2.2352  3.4302
 3647TIP3    H235137   0.231   3.096  18.457  1.2849  0.0420  1.2068
 3648TIP3   OH235138   4.416   6.511  19.046  0.1518  0.2656  0.5381
 3648TIP3    H135139   4.360   6.464  18.983  1.8070  0.1347 -0.9085
 3648TIP3    H235140   4.449   6.586  18.997  1.0208  0.4880  1.4508
 3649TIP3   OH235141   0.160   3.296  18.408 -0.3656  0.3092 -0.2676
 3649TIP3    H135142   0.116   3.334  18.484 -1.2394 -2.6977  0.8381
 3649TIP3    H235143   0.092   3.292  18.341 -0.3461  0.3929 -0.2932
 3650TIP3   OH235144   2.635   5.003  16.792  0.6896  0.2743  0.6273
 3650TIP3    H135145   2.729   4.995  16.808  0.5021 -1.1170  1.2117
 3650TIP3    H235146   2.627   5.009  16.697  1.3820  0.5787  0.5862
 3651TIP3   OH235147   7.340   1.290  17.289 -0.4058 -0.0563  0.0237
 3651TIP3    H135148   7.257   1.244  17.277 -1.0426  0.8909  0.6200
 3651TIP3    H235149   7.327   1.342  17.368  0.2828  1.1237 -0.6081
 3652TIP3   OH235150   6.529   1.436  17.468 -0.2115  0.1022  0.1253
 3652TIP3    H135151   6.580   1.370  17.422  1.6682  0.5284  1.4987
 3652TIP3    H235152   6.526   1.510  17.407 -0.3621 -0.3919 -0.4893
 3653TIP3   OH235153   0.422   4.388  16.247 -0.2828 -0.2166 -0.1530
 3653TIP3    H135154   0.495   4.331  16.269  0.0219  0.1556 -0.1826
 3653TIP3    H235155   0.344   4.332  16.253 -0.1615 -0.2568  1.3717
 3654TIP3   OH235156   5.183   7.268  17.762  0.2955 -0.1816 -0.2474
 3654TIP3    H135157   5.209   7.201  17.698 -2.4315 -0.1980 -1.4511
 3654TIP3    H235158   5.099   7.237  17.796  0.8207  0.7434  2.0907
 3655TIP3   OH235159   6.562   4.275  18.593  0.4870  0.7392  0.0473
 3655TIP3    H135160   6.517   4.236  18.518  1.8883  0.4206 -0.6750
 3655TIP3    H235161   6.493   4.320  18.642 -0.8577 -0.9441 -0.1777
 3656TIP3   OH235162   3.284   3.806  16.389  0.5306 -0.5037  0.3831
 3656TIP3    H135163   3.290   3.714  16.362  1.4221  0.0072 -1.3053
 3656TIP3    H235164   3.371   3.841  16.373  0.1377  0.7078  0.8000
 3657TIP3   OH235165   4.714   4.538  17.475  0.2481  0.1285 -0.0787
 3657TIP3    H135166   4.752   4.614  17.519  3.0972  0.3631 -2.5695
 3657TIP3    H235167   4.776   4.466  17.492 -0.6753 -0.7726 -0.4230
 3658TIP3   OH235168   1.637   3.690  18.811 -0.8516  0.6693 -0.0695
 3658TIP3    H135169   1.640   3.636  18.890  2.2481  0.4856 -0.2111
 3658TIP3    H235170   1.594   3.635  18.746 -2.3851  0.3792  1.1215
 3659TIP3   OH235171   2.549   5.290  17.772 -0.3406 -0.0811 -0.5486
 3659TIP3    H135172   2.597   5.357  17.724  0.7621  0.3011  1.0085
 3659TIP3    H235173   2.552   5.319  17.864 -3.5965 -0.0115 -0.3506
 3660TIP3   OH235174   5.500   4.170  17.168 -0.0515  0.0688 -0.5754
 3660TIP3    H135175   5.439   4.135  17.233  1.5482  1.8655  2.1469
 3660TIP3    H235176   5.575   4.111  17.172  0.6346  0.9690  0.3478
 3661TIP3   OH235177   2.461   4.972  18.192 -0.4953 -0.1836 -0.5891
 3661TIP3    H135178   2.543   4.951  18.237  1.2869  1.8714 -2.5867
 3661TIP3    H235179   2.423   4.887  18.170 -0.2701 -1.2237  2.5738
 3662TIP3   OH235180   1.597   0.169  18.507  0.0639 -0.2528 -0.0903
 3662TIP3    H135181   1.567   0.253  18.473 -0.0425 -0.1572  0.2382
 3662TIP3    H235182   1.693   0.175  18.504  0.1137  0.6388  1.7204
 3663TIP3   OH235183   3.284   4.940  18.431 -0.2206  0.1017 -0.0453
 3663TIP3    H135184   3.215   4.905  18.374 -0.7383  0.3283  0.4314
 3663TIP3    H235185   3.365   4.901  18.397 -0.4686  0.5019 -1.1521
 3664TIP3   OH235186   3.023   0.004  18.662  0.2891 -0.3561  0.2194
 3664TIP3    H135187   2.996   0.096  18.667  2.1118  0.3091 -0.9161
 3664TIP3    H235188   3.024  -0.016  18.569 -0.7558 -1.7772  0.4890
 3665TIP3   OH235189   5.147   2.101  17.104  0.0387  0.1500 -0.1809
 3665TIP3    H135190   5.168   2.118  17.196 -1.0151  1.6946 -0.1758
 3665TIP3    H235191   5.193   2.170  17.056  0.2051 -0.3620 -0.7584
 3666TIP3   OH235192   6.794   6.511  15.830  0.3498 -0.1631 -0.7804
 3666TIP3    H135193   6.733   6.512  15.756  0.3174  1.4381 -0.7805
 3666TIP3    H235194   6.778   6.428  15.874 -2.1485  0.3625 -0.5394
 3667TIP3   OH235195   3.407   1.184  17.164 -0.1951 -0.2204 -0.7765
 3667TIP3    H135196   3.499   1.206  17.155  0.0382 -1.5085 -1.6937
 3667TIP3    H235197   3.362   1.245  17.105 -0.2274  1.9970  1.3569
 3668TIP3   OH235198   1.530   0.954  17.040  0.3038 -0.5637 -0.2907
 3668TIP3    H135199   1.604   0.897  17.016 -0.0399 -1.2444  0.2401
 3668TIP3    H235200   1.563   1.006  17.114 -0.6173 -2.9065  1.9089
 3669TIP3   OH235201   2.333   7.649  18.650 -0.6626 -0.1368  0.1486
 3669TIP3    H135202   2.395   7.722  18.643  0.2424 -0.6811  1.7845
 3669TIP3    H235203   2.296   7.658  18.738 -0.7645 -1.4552  0.2561
 3670TIP3   OH235204   2.220   5.865  16.121 -0.0300  0.0162  0.1557
 3670TIP3    H135205   2.235   5.952  16.086  1.4803 -0.6528 -1.0003
 3670TIP3    H235206   2.184   5.879  16.208 -1.2920  1.7595 -0.6049
 3671TIP3   OH235207   0.034   6.990  17.908  0.5810  0.5277  0.1492
 3671TIP3    H135208  -0.034   6.946  17.858  2.0226 -1.3304 -0.3013
 3671TIP3    H235209   0.047   7.073  17.862 -0.9879  0.6983 -0.0476
 3672TIP3   OH235210   7.447   1.187  16.952  0.0521 -0.3786  0.6150
 3672TIP3    H135211   7.387   1.140  17.010 -0.0838 -0.3401  0.5052
 3672TIP3    H235212   7.423   1.158  16.864 -1.8574  1.9131  0.3001
 3673TIP3   OH235213   2.983   2.980  18.150  0.4124  0.7334 -0.2362
 3673TIP3    H135214   3.065   2.959  18.194 -1.1963 -0.1110  2.6097
 3673TIP3    H235215   2.984   3.076  18.143  0.7947  0.9029  1.6348
 3674TIP3   OH235216   5.448   1.142  17.930 -0.0460  0.4003  0.2387
 3674TIP3    H135217   5.410   1.076  17.988 -1.4278  0.0140 -1.0515
 3674TIP3    H235218   5.535   1.108  17.910  0.5925  0.7073  2.3059
 3675TIP3   OH235219   0.263   4.057  17.049 -0.0075  0.7246 -0.1508
 3675TIP3    H135220   0.209   4.038  16.972 -0.0789  1.4046 -0.2700
 3675TIP3    H235221   0.204   4.098  17.111 -0.5113 -1.8241  1.1934
 3676TIP3   OH235222   6.931   7.512  17.866 -0.4526 -0.4258 -0.8761
 3676TIP3    H135223   7.002   7.495  17.929  0.1012 -1.1201 -1.6720
 3676TIP3    H235224   6.851   7.502  17.917 -0.0258 -1.2821 -0.3464
 3677TIP3   OH235225   1.197   5.294  17.919 -0.0994 -0.2915  0.3827
 3677TIP3    H135226   1.164   5.205  17.913 -1.3637  0.1753  0.1445
 3677TIP3    H235227   1.182   5.320  18.010  1.4980 -0.7623  0.8086
 3678TIP3   OH235228   2.185   1.467  16.676 -0.0458  0.3398  0.1257
 3678TIP3    H135229   2.257   1.516  16.716 -1.1606  1.9849  0.1928
 3678TIP3    H235230   2.125   1.449  16.748 -0.8463  1.1018 -0.3373
 3679TIP3   OH235231   1.473   1.514  18.616  0.6154 -0.4562 -1.0266
 3679TIP3    H135232   1.431   1.590  18.656  1.0526 -0.2012 -1.0402
 3679TIP3    H235233   1.406   1.445  18.618  0.9132 -0.7608  1.0571
 3680TIP3   OH235234   4.632   7.653  16.907  0.3406  0.3193 -0.5618
 3680TIP3    H135235   4.669   7.739  16.927  1.3553  0.2471 -1.9765
 3680TIP3    H235236   4.708   7.598  16.886 -0.4172 -0.3250 -1.7958
 3681TIP3   OH235237   5.790   6.088  16.449 -0.0514 -0.3570  0.0559
 3681TIP3    H135238   5.815   6.170  16.407  0.2159 -0.1680  0.5806
 3681TIP3    H235239   5.696   6.081  16.432  0.1595 -0.5970 -1.1039
 3682TIP3   OH235240   1.641   7.276  16.745 -0.2596 -0.0978 -1.0485
 3682TIP3    H135241   1.650   7.180  16.747 -2.2182 -0.3318 -1.0474
 3682TIP3    H235242   1.578   7.292  16.675  0.3570  1.2367 -1.3114
 3683TIP3   OH235243   3.259   0.991  17.900 -0.1362  0.2916 -0.5200
 3683TIP3    H135244   3.243   1.017  17.810 -1.1371 -0.1845 -0.4942
 3683TIP3    H235245   3.237   0.897  17.902 -1.4273  0.5834  0.5025
 3684TIP3   OH235246   4.091   5.781  18.721  0.1424  0.1100 -0.1020
 3684TIP3    H135247   4.183   5.797  18.739  0.1939  0.1977 -0.4312
 3684TIP3    H235248   4.052   5.869  18.716  0.4936  0.2039 -2.2807
 3685TIP3   OH235249   5.137   3.905  16.437 -0.5542  0.3482  0.3968
 3685TIP3    H135250   5.098   3.928  16.353  0.3708 -0.0683 -0.1696
 3685TIP3    H235251   5.180   3.821  16.421  1.4737  1.2731  0.6523
 3686TIP3   OH235252   7.217   1.417  16.468 -0.2781  1.2288 -0.0320
 3686TIP3    H135253   7.261   1.380  16.544  3.4902 -0.5082 -2.7332
 3686TIP3    H235254   7.183   1.501  16.499 -0.0013  0.1110  3.7855
 3687TIP3   OH235255   7.364   2.755  17.291 -1.2820 -0.0243  0.7734
 3687TIP3    H135256   7.349   2.670  17.330 -0.2766 -0.4537  0.2759
 3687TIP3    H235257   7.421   2.801  17.353 -1.5390  0.1603  0.8773
 3688TIP3   OH235258   3.008   1.174  18.239  0.3887 -0.1826 -0.5096
 3688TIP3    H135259   3.090   1.161  18.192  0.7033 -1.8162  0.3954
 3688TIP3    H235260   2.950   1.215  18.175  1.0618 -1.5276 -2.0738
 3689TIP3   OH235261   4.495   4.703  17.899 -0.3444 -0.0230  0.8817
 3689TIP3    H135262   4.518   4.793  17.924  2.3139 -0.5697  0.7058
 3689TIP3    H235263   4.550   4.685  17.823 -2.2431 -1.1991 -0.2780
 3690TIP3   OH235264   2.125   2.531  17.230  0.2599 -0.3231 -0.3999
 3690TIP3    H135265   2.075   2.611  17.213  1.2795  0.2803 -0.7099
 3690TIP3    H235266   2.205   2.542  17.178 -1.0091 -3.1062 -3.2928
 3691TIP3   OH235267   1.576   6.674  16.965  0.0151  0.3962  0.0047
 3691TIP3    H135268   1.574   6.703  16.874 -0.5453  0.6737  0.1015
 3691TIP3    H235269   1.661   6.631  16.975 -0.5966 -1.1490 -1.1066
 3692TIP3   OH235270   0.678   1.801  18.453  0.1917  0.8193  0.0612
 3692TIP3    H135271   0.672   1.756  18.369 -0.3931 -0.6167  0.8336
 3692TIP3    H235272   0.597   1.779  18.498  0.9869  0.6216  1.4513
 3693TIP3   OH235273   2.160   0.546  16.651  0.3004 -0.3479 -0.4949
 3693TIP3    H135274   2.227   0.485  16.681  1.5677  1.4524  0.5083
 3693TIP3    H235275   2.084   0.490  16.632  1.3912 -2.2205  0.3219
 3694TIP3   OH235276   4.432   4.719  17.274 -0.1496  0.0858 -0.1112
 3694TIP3    H135277   4.508   4.687  17.323 -0.0827 -1.1359 -0.9694
 3694TIP3    H235278   4.446   4.814  17.267  1.6373 -0.1921 -0.8010
 3695TIP3   OH235279   7.497   4.718  17.406 -0.2179 -0.4742  0.6074
 3695TIP3    H135280   7.431   4.725  17.337  0.4779  0.9900  0.0539
 3695TIP3    H235281   7.548   4.640  17.382 -1.1577 -1.0987  0.5533
 3696TIP3   OH235282   0.296   1.043  17.490  0.2032  0.8194  0.1039
 3696TIP3    H135283   0.379   1.088  17.503  0.8558  0.1635 -1.5870
 3696TIP3    H235284   0.280   0.999  17.573  2.0128  0.2262  0.1852
 3697TIP3   OH235285   0.739   4.075  17.787 -0.3244  0.2744 -0.1980
 3697TIP3    H135286   0.806   4.067  17.855  0.1804  1.5577 -0.4995
 3697TIP3    H235287   0.719   3.985  17.762  1.0988 -0.1588  0.1046
 3698TIP3   OH235288   3.484   2.473  16.057  0.2849 -0.9232  0.0317
 3698TIP3    H135289   3.454   2.387  16.087 -1.4503 -0.0583  0.9232
 3698TIP3    H235290   3.403   2.525  16.048  1.3235  0.7662  0.0167
 3699TIP3   OH235291   3.616   3.113  17.654 -0.6581 -0.3541 -0.1148
 3699TIP3    H135292   3.704   3.087  17.628 -0.6450 -0.0488 -0.3888
 3699TIP3    H235293   3.563   3.034  17.645 -0.6900 -0.2118 -1.2566
 3700TIP3   OH235294   5.910   5.425  16.214 -0.3039 -0.0124  0.4279
 3700TIP3    H135295   5.981   5.489  16.221 -0.5419  0.2918  0.1122
 3700TIP3    H235296   5.953   5.340  16.216  0.0925  0.1784 -0.0654
 3701TIP3   OH235297   2.884   5.965  18.959 -0.1139 -0.0208 -0.4069
 3701TIP3    H135298   2.827   6.041  18.945 -0.2233 -0.2321 -1.1375
 3701TIP3    H235299   2.938   5.990  19.034 -1.9143 -0.2619  1.0614
 3702TIP3   OH235300   4.948   0.916  16.460 -0.0320 -0.1586  0.6938
 3702TIP3    H135301   4.934   1.004  16.425 -0.6232 -0.9064 -1.0637
 3702TIP3    H235302   4.859   0.879  16.468  0.2661 -0.9995  0.2660
 3703TIP3   OH235303   6.240   3.916  16.608 -0.0603 -0.3017 -0.1069
 3703TIP3    H135304   6.150   3.944  16.624  0.1578 -0.4886  1.6137
 3703TIP3    H235305   6.292   3.963  16.673  1.1643  0.1012 -1.3182
 3704TIP3   OH235306   6.386   7.546  15.830  0.5078 -0.0273  0.2819
 3704TIP3    H135307   6.432   7.462  15.840  0.2293 -0.1625  0.4341
 3704TIP3    H235308   6.453   7.612  15.848  0.9185 -0.1946 -0.5725
 3705TIP3   OH235309   5.423   4.525  18.536 -0.1597  0.2257 -0.2495
 3705TIP3    H135310   5.476   4.472  18.478 -0.6526  0.4634 -0.9311
 3705TIP3    H235311   5.486   4.565  18.596  0.4078  0.3378 -0.9087
 3706TIP3   OH235312   4.478   5.006  17.262  0.1653 -0.4897 -0.3329
 3706TIP3    H135313   4.568   4.983  17.286 -0.5514 -1.7141  1.4118
 3706TIP3    H235314   4.471   5.099  17.281  1.2201 -0.2134 -1.1368
 3707TIP3   OH235315   5.860   4.970  16.603  0.0994  0.1048 -0.4627
 3707TIP3    H135316   5.792   4.909  16.574  0.0760 -0.6821  1.1774
 3707TIP3    H235317   5.828   5.056  16.573 -1.1034 -0.3751 -0.6200
 3708TIP3   OH235318   4.878   3.459  17.525  0.3702  0.1643  0.2698
 3708TIP3    H135319   4.868   3.411  17.607  0.7437  1.9984  1.4678
 3708TIP3    H235320   4.913   3.395  17.463 -1.5919 -1.7456  0.9845
 3709TIP3   OH235321   6.690   5.734  16.833 -0.0924  0.1106 -0.0881
 3709TIP3    H135322   6.619   5.675  16.809 -0.0926 -1.2576  2.8643
 3709TIP3    H235323   6.648   5.804  16.883  0.3970  0.4460 -0.1320
 3710TIP3   OH235324   1.227   4.853  18.142 -0.2496  0.2575 -0.0633
 3710TIP3    H135325   1.221   4.767  18.183 -2.1292  1.2196  1.9212
 3710TIP3    H235326   1.231   4.914  18.216 -0.5697  1.9332 -1.3762
 3711TIP3   OH235327   0.415   3.072  16.123  0.6550  0.4959 -0.1457
 3711TIP3    H135328   0.404   3.120  16.205  1.8293  0.0205  0.3155
 3711TIP3    H235329   0.508   3.051  16.120  0.2968 -1.2146 -0.6123
 3712TIP3   OH235330   4.858   1.177  17.081  0.8911 -0.4373 -0.7531
 3712TIP3    H135331   4.813   1.159  16.999 -0.7150 -1.2490  0.2437
 3712TIP3    H235332   4.859   1.093  17.127  1.7020  0.0087  0.0958
 3713TIP3   OH235333   3.508   0.240  16.592 -0.6401 -0.0632  0.2484
 3713TIP3    H135334   3.505   0.331  16.624  0.2019  0.4170 -0.9466
 3713TIP3    H235335   3.422   0.226  16.552 -0.1686  0.8765 -1.1896
 3714TIP3   OH235336   1.578   0.433  18.439  0.9916  0.7876 -0.0569
 3714TIP3    H135337   1.484   0.442  18.422  0.6851 -0.6993  0.6698
 3714TIP3    H235338   1.620   0.477  18.365 -0.2873 -0.8188 -1.8496
 3715TIP3   OH235339   3.469   3.206  18.577  0.5915  0.0467  0.2419
 3715TIP3    H135340   3.547   3.256  18.552  1.7580 -2.0075 -0.5078
 3715TIP3    H235341   3.504   3.122  18.607 -1.2908 -0.4317  1.1938
 3716TIP3   OH235342   4.720   1.376  18.236 -0.2743  0.1422 -0.0424
 3716TIP3    H135343   4.793   1.424  18.275  0.0765 -0.8051  0.5088
 3716TIP3    H235344   4.642   1.421  18.266  0.0095 -0.2650  1.3657
 3717TIP3   OH235345   3.026   1.484  18.138  0.1887 -0.2522 -0.1867
 3717TIP3    H135346   3.041   1.504  18.046 -0.7909  0.1305 -0.2721
 3717TIP3    H235347   2.935   1.454  18.142  1.0319 -3.0463  0.2044
 3718TIP3   OH235348   2.041   4.916  18.641 -0.6839  0.7716  0.5523
 3718TIP3    H135349   1.974   4.856  18.606 -2.1778  2.3358  0.6026
 3718TIP3    H235350   1.991   4.985  18.683  0.8336  3.3954 -1.6195
 3719TIP3   OH235351   0.606   6.187  16.462 -0.3192  0.3057 -0.1585
 3719TIP3    H135352   0.673   6.242  16.421 -1.5373  1.7715 -0.2383
 3719TIP3    H235353   0.545   6.167  16.391 -0.0852 -0.8833 -0.0441
 3720TIP3   OH235354   2.018   1.181  18.335 -0.2905 -0.2831  0.4436
 3720TIP3    H135355   2.084   1.140  18.391 -0.6561 -0.1090  1.0148
 3720TIP3    H235356   2.052   1.269  18.318  1.2654 -1.2876 -2.0925
 3721TIP3   OH235357   5.300   4.180  19.268  0.2168 -0.1690  0.2160
 3721TIP3    H135358   5.205   4.168  19.266  0.2392 -0.3333 -0.0066
 3721TIP3    H235359   5.334   4.101  19.225  0.4487 -0.0730  0.2263
 3722TIP3   OH235360   5.250   7.478  16.277 -0.1505 -0.2427  0.2634
 3722TIP3    H135361   5.310   7.532  16.328  0.1402  0.4499 -0.7730
 3722TIP3    H235362   5.163   7.499  16.311  0.1737 -1.4541  1.9675
 3723TIP3   OH235363   5.981   2.475  17.910 -0.1164  0.2140  0.2463
 3723TIP3    H135364   6.061   2.435  17.945  0.8189  0.1644 -1.8221
 3723TIP3    H235365   5.924   2.485  17.986  1.6534 -0.2265  1.6934
 3724TIP3   OH235366   3.354   0.654  16.651  0.2562  0.5011  0.7813
 3724TIP3    H135367   3.314   0.597  16.586 -0.6207  0.8913  0.9699
 3724TIP3    H235368   3.284   0.713  16.678  0.0870 -0.7086  3.3034
 3725TIP3   OH235369   4.804   6.937  17.959 -0.2021 -0.2725 -0.1599
 3725TIP3    H135370   4.722   6.984  17.953  0.2137  0.3398 -1.3929
 3725TIP3    H235371   4.801   6.874  17.887 -0.9761 -2.5798  1.7542
 3726TIP3   OH235372   2.652   1.071  18.068  0.3207 -0.2773  0.3318
 3726TIP3    H135373   2.572   1.020  18.073  0.6597 -0.7288  1.2479
 3726TIP3    H235374   2.625   1.160  18.090 -0.2384 -0.0552 -1.1049
 3727TIP3   OH235375   5.811   4.838  17.849 -0.1669 -0.2810 -0.2903
 3727TIP3    H135376   5.880   4.792  17.801  1.8437  0.9660  1.2228
 3727TIP3    H235377   5.797   4.785  17.928 -1.3838 -0.8101 -0.8335
 3728TIP3   OH235378   6.931   2.949  17.348 -0.4810  0.0706  0.3448
 3728TIP3    H135379   6.946   2.855  17.357  1.6573  0.4557  1.3761
 3728TIP3    H235380   6.863   2.969  17.412 -0.2125 -0.6227  0.8584
 3729TIP3   OH235381   4.847   5.787  17.725 -0.0553 -0.1812 -0.2577
 3729TIP3    H135382   4.822   5.721  17.791  2.0970 -0.5036  0.3084
 3729TIP3    H235383   4.844   5.870  17.773  1.2068 -0.3793  0.1943
 3730TIP3   OH235384   2.480   5.442  16.767  0.0740 -0.1480  0.4456
 3730TIP3    H135385   2.415   5.372  16.764 -0.6931  0.5434  0.8194
 3730TIP3    H235386   2.519   5.435  16.854 -0.8140  0.6074  0.9148
 3731TIP3   OH235387   7.662   0.148  16.105 -0.2741  0.4216 -0.0340
 3731TIP3    H135388   7.694   0.236  16.086  0.2662  0.0946 -0.6694
 3731TIP3    H235389   7.668   0.101  16.022 -1.9583  0.1929 -0.0682
 3732TIP3   OH235390   0.260   1.613  17.548 -0.3134 -0.6009  0.0825
 3732TIP3    H135391   0.234   1.526  17.576  2.6672 -1.7044 -0.1566
 3732TIP3    H235392   0.222   1.623  17.461 -1.9598 -0.9962  0.7354
 3733TIP3   OH235393   7.434   5.719  18.366 -0.7318  0.4549 -0.1497
 3733TIP3    H135394   7.462   5.810  18.373  0.5211  0.0597  0.4501
 3733TIP3    H235395   7.513   5.669  18.386 -0.1235 -0.8635 -4.7612
 3734TIP3   OH235396   5.659   7.222  16.194 -0.0895  0.3847 -0.3305
 3734TIP3    H135397   5.583   7.267  16.156 -1.0095 -1.4490 -0.7798
 3734TIP3    H235398   5.680   7.272  16.273 -1.7953  0.8874 -0.1659
 3735TIP3   OH235399   0.462   0.358  17.933  0.1279 -0.1323  0.4972
 3735TIP3    H135400   0.413   0.418  17.989  0.6886  1.1567 -0.3718
 3735TIP3    H235401   0.473   0.405  17.851 -1.0154 -2.1299 -0.8857
 3736TIP3   OH235402   3.366   6.623  16.611  0.0516  0.2388 -0.1173
 3736TIP3    H135403   3.328   6.537  16.623  2.4977 -0.8897  0.1386
 3736TIP3    H235404   3.354   6.642  16.518 -0.1006 -0.5925 -0.2716
 3737TIP3   OH235405   6.507   3.360  18.685 -0.6875 -0.4013 -0.1369
 3737TIP3    H135406   6.460   3.423  18.740  0.7967  0.2990  0.3689
 3737TIP3    H235407   6.560   3.309  18.747 -0.4503 -0.9051 -0.7453
 3738TIP3   OH235408   2.431   2.326  15.941  0.1858  0.1937  1.2360
 3738TIP3    H135409   2.506   2.270  15.924  0.2330 -0.1379  2.4731
 3738TIP3    H235410   2.357   2.266  15.950 -0.3737  0.5484 -0.5414
 3739TIP3   OH235411   5.794   3.993  18.517 -0.2644  0.1869  0.2467
 3739TIP3    H135412   5.722   3.944  18.556 -0.2568  0.4538  0.5981
 3739TIP3    H235413   5.787   4.081  18.553 -0.0488  0.3470 -0.0887
 3740TIP3   OH235414   3.915   1.385  16.235  0.1566 -0.3529 -0.7020
 3740TIP3    H135415   3.965   1.338  16.302 -0.8666 -1.6300 -0.7855
 3740TIP3    H235416   3.980   1.435  16.187  1.2939 -1.5651 -0.4959
 3741TIP3   OH235417   1.131   0.115  18.909  0.2594  0.1379  0.2229
 3741TIP3    H135418   1.141   0.054  18.982  1.9393 -0.0538 -0.1436
 3741TIP3    H235419   1.063   0.075  18.854  0.4816 -0.7822  0.6010
 3742TIP3   OH235420   7.239   2.453  16.804 -0.6676 -0.3928 -0.0945
 3742TIP3    H135421   7.150   2.424  16.827 -0.6788 -1.2960 -1.1885
 3742TIP3    H235422   7.291   2.432  16.881 -1.6186  1.3608  1.0866
 3743TIP3   OH235423   6.544   5.012  17.546 -0.1221  0.3358  0.1784
 3743TIP3    H135424   6.515   4.922  17.533 -0.2016  0.3822  0.0310
 3743TIP3    H235425   6.486   5.065  17.490  1.0062  0.3135 -1.0640
 3744TIP3   OH235426   7.278   2.590  17.881  0.1550  0.1640  0.1054
 3744TIP3    H135427   7.229   2.531  17.823  1.3705  0.0809 -0.8982
 3744TIP3    H235428   7.211   2.639  17.928 -0.9194 -2.3259  1.3508
 3745TIP3   OH235429   6.096   1.490  17.997  0.3149  0.2711  0.0001
 3745TIP3    H135430   6.067   1.512  18.086 -0.7396  0.1732 -0.3138
 3745TIP3    H235431   6.050   1.552  17.941 -0.7224 -1.0611 -0.6677
 3746TIP3   OH235432   6.872   7.671  17.157 -0.3457 -0.3232 -0.2476
 3746TIP3    H135433   6.824   7.745  17.195 -0.8221 -0.2463 -0.9630
 3746TIP3    H235434   6.813   7.637  17.090  0.0407 -1.1060 -0.1969
 3747TIP3   OH235435   2.881   6.190  18.704  0.0923  0.5237  0.1683
 3747TIP3    H135436   2.813   6.242  18.663  0.0588  1.7843  1.7280
 3747TIP3    H235437   2.862   6.100  18.678 -1.3151  1.0154 -0.5707
 3748TIP3   OH235438   1.264   3.900  17.855  0.3705 -0.3626 -0.0126
 3748TIP3    H135439   1.191   3.866  17.803  0.7197  0.1691 -0.8672
 3748TIP3    H235440   1.303   3.822  17.895 -1.7193 -0.4981  1.8950
 3749TIP3   OH235441   3.916   7.089  17.662 -0.2925  0.4709  0.9854
 3749TIP3    H135442   3.854   7.049  17.601  1.1734  1.8016 -1.5143
 3749TIP3    H235443   3.888   7.058  17.748 -1.4943 -2.8140 -0.4402
 3750TIP3   OH235444   1.952   6.559  17.563 -0.0716  0.2167  0.2635
 3750TIP3    H135445   1.952   6.486  17.625 -0.0659 -1.3243 -1.4729
 3750TIP3    H235446   2.030   6.545  17.509 -1.1311  0.3542 -1.3786
 3751TIP3   OH235447   7.536   4.218  16.989  0.2284  0.1560  0.3594
 3751TIP3    H135448   7.542   4.283  16.919  0.4291  1.1073  1.2451
 3751TIP3    H235449   7.450   4.234  17.029  0.2569 -0.1674  0.5485
 3752TIP3   OH235450   4.913   5.296  17.756  0.2533 -0.0071 -0.3354
 3752TIP3    H135451   4.939   5.325  17.669  0.8000 -0.3821 -0.2999
 3752TIP3    H235452   4.990   5.253  17.791 -0.5393 -1.5218 -0.3809
 3753TIP3   OH235453   2.931   1.320  18.612 -0.5885 -0.3422 -0.1375
 3753TIP3    H135454   2.988   1.316  18.535  1.8058  1.6297  1.3910
 3753TIP3    H235455   2.956   1.244  18.665  0.7430  0.5443  0.5518
 3754TIP3   OH235456   5.479   7.199  18.673 -0.4070 -0.3609  0.0071
 3754TIP3    H135457   5.440   7.116  18.703  0.1938 -0.2142  1.2305
 3754TIP3    H235458   5.471   7.195  18.577 -0.7814 -1.6363  0.0648
 3755TIP3   OH235459   6.230   0.369  17.981  0.5148  0.0513  0.6035
 3755TIP3    H135460   6.231   0.312  17.904 -1.2143  0.6359  0.1067
 3755TIP3    H235461   6.305   0.427  17.968 -0.3016  0.7932 -1.1819
 3756TIP3   OH235462   2.402   3.588  16.960 -0.0924 -0.3063  0.2342
 3756TIP3    H135463   2.341   3.651  16.922 -0.7997 -0.2584  1.4032
 3756TIP3    H235464   2.484   3.601  16.911  0.2447  2.5388  1.3418
 3757TIP3   OH235465   4.115   6.056  18.724 -0.2629  0.4342 -0.2913
 3757TIP3    H135466   4.051   6.127  18.735 -0.0456  0.7433 -0.9850
 3757TIP3    H235467   4.197   6.100  18.704  0.1427  0.0289  0.4486
 3758TIP3   OH235468   7.596   1.286  16.324  0.3161  1.2567 -0.4600
 3758TIP3    H135469   7.545   1.361  16.355  0.2169  0.4411  1.5165
 3758TIP3    H235470   7.655   1.323  16.259  0.6952  3.2055  0.8740
 3759TIP3   OH235471   1.836   2.454  17.891  0.4104  0.1476 -0.1221
 3759TIP3    H135472   1.845   2.468  17.986  1.2385 -0.5061 -0.0834
 3759TIP3    H235473   1.909   2.502  17.853 -0.2011  0.8055 -0.4785
 3760TIP3   OH235474   2.494   7.033  17.707  0.6189 -0.0482  0.0999
 3760TIP3    H135475   2.517   7.093  17.777  3.1979 -1.5923  0.7122
 3760TIP3    H235476   2.489   7.088  17.629 -0.1105  1.3607  1.0854
 3761TIP3   OH235477   5.746   0.611  17.402  0.1206  0.7992  0.2434
 3761TIP3    H135478   5.670   0.668  17.412 -0.3955 -0.0580  1.3928
 3761TIP3    H235479   5.729   0.537  17.460  1.6368  0.3804  0.2016
 3762TIP3   OH235480   2.710   6.333  19.209  0.2304  0.0938 -0.9863
 3762TIP3    H135481   2.777   6.320  19.142 -0.3678 -0.9442 -1.4091
 3762TIP3    H235482   2.693   6.246  19.244  1.0920  0.7025  1.1134
 3763TIP3   OH235483   4.658   6.627  18.651 -0.1736 -0.5146  0.2091
 3763TIP3    H135484   4.636   6.614  18.559 -2.6219 -1.0367  0.7985
 3763TIP3    H235485   4.575   6.651  18.693  0.8582 -0.3362  2.2958
 3764TIP3   OH235486   0.440   0.563  17.725 -0.0805  0.1380  0.0689
 3764TIP3    H135487   0.367   0.605  17.770  0.0252 -0.1000  0.4622
 3764TIP3    H235488   0.516   0.579  17.781 -0.0421 -0.6003  0.2439
 3765TIP3   OH235489   5.029   3.573  16.429  0.8570 -0.5691 -0.5236
 3765TIP3    H135490   5.029   3.615  16.514  1.6440 -0.2967 -0.6546
 3765TIP3    H235491   4.959   3.508  16.435  0.1311  0.2310 -0.0676
 3766TIP3   OH235492   7.349   4.648  16.960 -0.8267 -0.3115 -0.2229
 3766TIP3    H135493   7.442   4.663  16.945 -0.3334 -2.0188  0.7868
 3766TIP3    H235494   7.304   4.697  16.891  0.6443  2.7930  0.8464
 3767TIP3   OH235495   5.657   5.433  17.823 -0.2539  0.2644 -0.4698
 3767TIP3    H135496   5.646   5.374  17.897 -0.1995  0.2054 -0.5095
 3767TIP3    H235497   5.652   5.377  17.746  0.9253  0.1376 -0.4716
 3768TIP3   OH235498   1.641   2.250  17.957 -0.4856 -0.4946 -0.4750
 3768TIP3    H135499   1.683   2.320  17.907  1.5449 -0.7096  0.7930
 3768TIP3    H235500   1.547   2.264  17.945 -0.1130  0.2820 -3.1371
 3769TIP3   OH235501   7.145   6.678  18.597  0.3724 -0.4681 -0.4931
 3769TIP3    H135502   7.056   6.644  18.588  0.3637 -0.2208 -1.4604
 3769TIP3    H235503   7.201   6.600  18.599  0.5006 -0.6761 -4.2643
 3770TIP3   OH235504   5.100   3.327  16.875 -0.0866  0.9197 -0.1189
 3770TIP3    H135505   5.156   3.252  16.858 -0.0331  1.0983 -0.7827
 3770TIP3    H235506   5.012   3.290  16.886 -0.3295  0.8566 -1.9245
 3771TIP3   OH235507   1.411   3.428  18.408  0.2054 -0.5749  0.7872
 3771TIP3    H135508   1.470   3.477  18.466 -0.0552  1.1778 -0.3399
 3771TIP3    H235509   1.376   3.358  18.463  1.7827 -0.4305  2.0444
 3772TIP3   OH235510   2.832   0.458  16.453  0.4404  0.5020 -0.2310
 3772TIP3    H135511   2.880   0.398  16.396  2.3667  0.2303  1.5576
 3772TIP3    H235512   2.827   0.539  16.403  2.0785  0.2917 -0.7989
 3773TIP3   OH235513   6.271   7.599  16.563 -0.4847  0.1247  0.1365
 3773TIP3    H135514   6.308   7.604  16.475 -1.8558  0.3677 -0.4572
 3773TIP3    H235515   6.271   7.506  16.584  1.5488  0.1921  0.6811
 3774TIP3   OH235516   4.456   6.237  16.907 -0.2528  0.0045  0.2719
 3774TIP3    H135517   4.414   6.237  16.822  0.2068 -1.3225  0.0178
 3774TIP3    H235518   4.385   6.253  16.969 -0.3966  2.2827 -0.4047
 3775TIP3   OH235519   4.499   2.219  17.566 -0.4096 -0.1516 -0.5865
 3775TIP3    H135520   4.429   2.155  17.578  0.5386 -1.1871 -0.4060
 3775TIP3    H235521   4.560   2.177  17.505 -0.2940  1.0382 -1.3358
 3776TIP3   OH235522   2.429   3.550  18.009  0.2084 -0.2722  0.0814
 3776TIP3    H135523   2.349   3.523  17.964  0.0501 -0.6643  0.5900
 3776TIP3    H235524   2.498   3.500  17.966  0.1726 -0.0229 -0.2783
 3777TIP3   OH235525   4.913   0.987  16.169  0.1950  0.1356  0.4901
 3777TIP3    H135526   4.999   1.027  16.186 -0.3607  1.3166  0.5955
 3777TIP3    H235527   4.855   1.060  16.152 -0.7431 -0.6723  0.1133
 3778TIP3   OH235528   3.363   7.428  18.785  0.5616 -0.1748  0.4177
 3778TIP3    H135529   3.417   7.370  18.731  0.7045  0.5007 -0.1815
 3778TIP3    H235530   3.273   7.412  18.757  0.7330  1.1165 -0.9901
 3779TIP3   OH235531   6.279   3.725  16.408  0.0835  0.0271 -0.1603
 3779TIP3    H135532   6.246   3.765  16.488  1.6517 -0.3642  0.7194
 3779TIP3    H235533   6.311   3.639  16.435  1.0067  0.0444 -1.1233
 3780TIP3   OH235534   1.842   5.532  18.414 -0.8768  0.0492 -0.0696
 3780TIP3    H135535   1.897   5.513  18.338 -0.5519 -0.8552  0.3759
 3780TIP3    H235536   1.899   5.579  18.474 -0.2869 -1.6675  0.7684
 3781TIP3   OH235537   6.433   0.636  17.709  0.1683  0.1536  0.2522
 3781TIP3    H135538   6.492   0.580  17.658  0.2242 -0.5969  1.1207
 3781TIP3    H235539   6.348   0.629  17.665  0.2243 -0.4599  0.2404
 3782TIP3   OH235540   1.944   7.414  17.846 -0.3239 -0.0350 -0.1983
 3782TIP3    H135541   1.944   7.350  17.775 -1.3182  0.7943 -0.9690
 3782TIP3    H235542   1.975   7.364  17.922  0.6919 -0.9552 -1.1664
 3783TIP3   OH235543   1.464   2.143  17.211  0.7555  0.4415 -0.2374
 3783TIP3    H135544   1.479   2.098  17.295  1.3793  1.0784 -0.0026
 3783TIP3    H235545   1.428   2.075  17.154 -1.3962  0.3846  1.0463
 3784TIP3   OH235546   6.164   5.539  16.725  0.0355 -0.2901 -0.3725
 3784TIP3    H135547   6.229   5.609  16.729 -0.4209  0.0943  0.9822
 3784TIP3    H235548   6.116   5.554  16.644  1.7286 -0.6805 -1.4958
 3785TIP3   OH235549   4.985   5.222  16.101  0.0721 -0.7388 -0.4098
 3785TIP3    H135550   4.992   5.204  16.195  1.7314  1.0089 -0.1496
 3785TIP3    H235551   4.988   5.135  16.060  2.7712 -1.4073  0.9841
 3786TIP3   OH235552   5.429   4.905  18.630 -0.9367 -0.2404 -0.4491
 3786TIP3    H135553   5.393   4.905  18.718 -0.3193  0.6121 -0.1784
 3786TIP3    H235554   5.385   4.979  18.587  0.5006  0.8770 -0.0857
 3787TIP3   OH235555   3.868   3.024  17.590 -0.1792 -0.2178  0.0910
 3787TIP3    H135556   3.931   3.096  17.582 -0.4882 -0.0338 -0.8448
 3787TIP3    H235557   3.873   2.980  17.505 -0.5746 -0.8160  0.3795
 3788TIP3   OH235558   4.374   0.788  18.357  0.1897 -0.2411  0.0344
 3788TIP3    H135559   4.414   0.848  18.419  0.2805  3.0680 -2.9435
 3788TIP3    H235560   4.440   0.773  18.290 -0.9696 -0.9793 -1.0052
 3789TIP3   OH235561   4.827   3.662  18.096  1.2783 -0.1715 -0.2908
 3789TIP3    H135562   4.836   3.605  18.020 -1.6977  1.3687 -1.9812
 3789TIP3    H235563   4.753   3.627  18.145  2.2734 -0.3057  1.2113
 3790TIP3   OH235564   2.840   4.243  17.070 -0.1604  0.1258 -0.2117
 3790TIP3    H135565   2.748   4.235  17.044  0.4190  0.2524 -2.5998
 3790TIP3    H235566   2.889   4.215  16.992  1.8430  3.2271 -0.2222
 3791TIP3   OH235567   3.635   7.384  18.845  0.5483 -0.0947 -0.8322
 3791TIP3    H135568   3.657   7.439  18.771 -0.2228  0.0478 -0.9683
 3791TIP3    H235569   3.542   7.401  18.861  0.1060 -1.8467 -1.3128
 3792TIP3   OH235570   0.303   6.252  17.228  0.1190  0.5440  0.2075
 3792TIP3    H135571   0.261   6.216  17.306 -0.9038 -0.2244 -0.6767
 3792TIP3    H235572   0.339   6.336  17.258 -0.0151  0.1526  1.5630
 3793TIP3   OH235573   4.744   1.448  17.950  0.1852 -0.5202 -0.1618
 3793TIP3    H135574   4.698   1.531  17.942 -1.6498 -1.4251  0.2811
 3793TIP3    H235575   4.725   1.419  18.040  2.3881 -0.5494  0.3485
 3794TIP3   OH235576   6.227   0.298  17.718  0.1701 -0.3340 -0.3107
 3794TIP3    H135577   6.135   0.323  17.723  0.0791 -0.8269  0.6165
 3794TIP3    H235578   6.236   0.260  17.630 -0.7986 -1.3649  0.0042
 3795TIP3   OH235579   3.393   2.641  16.997 -0.0454 -0.0488 -0.3367
 3795TIP3    H135580   3.374   2.548  17.001  0.3425 -0.2444 -2.2147
 3795TIP3    H235581   3.324   2.678  16.942  0.1937  0.6612 -0.1796
 3796TIP3   OH235582   2.811   5.183  18.252  0.0182  0.2650 -0.3352
 3796TIP3    H135583   2.792   5.265  18.298  0.9672  0.6133 -0.5389
 3796TIP3    H235584   2.870   5.136  18.311 -1.6217 -0.9205  0.4209
 3797TIP3   OH235585   0.873   0.802  18.453 -0.5868 -0.0092 -0.0508
 3797TIP3    H135586   0.891   0.782  18.361  0.4299 -1.4364  0.4414
 3797TIP3    H235587   0.951   0.774  18.500 -1.1887  0.4921  1.2975
 3798TIP3   OH235588   2.948   0.943  17.073  0.2036  0.1244  0.3120
 3798TIP3    H135589   2.963   0.859  17.030 -0.3938  0.9334 -1.6023
 3798TIP3    H235590   2.856   0.941  17.098 -0.0782  0.5676 -0.6424
 3799TIP3   OH235591   3.686   0.810  18.190 -0.2352  0.4535  0.3391
 3799TIP3    H135592   3.633   0.793  18.112 -0.3749  0.3599  0.4526
 3799TIP3    H235593   3.775   0.820  18.157  0.0049 -1.3311  0.3446
 3800TIP3   OH235594   6.127   2.322  16.789 -0.3570  0.1473  0.0853
 3800TIP3    H135595   6.186   2.276  16.730  0.1399  0.8398  0.0310
 3800TIP3    H235596   6.184   2.378  16.841 -0.8926  0.2642  0.5553
 3801TIP3   OH235597   6.610   4.699  18.939  0.2669 -0.2868  0.2475
 3801TIP3    H135598   6.700   4.730  18.934  0.0760  0.4435  0.9687
 3801TIP3    H235599   6.596   4.682  19.032 -0.4725  0.0681  0.2157
 3802TIP3   OH235600   1.317   2.783  16.904  0.2891  0.4757  0.1725
 3802TIP3    H135601   1.325   2.715  16.970  1.3449  1.6583  1.3101
 3802TIP3    H235602   1.227   2.776  16.873 -0.1166 -0.3434  1.4660
 3803TIP3   OH235603   1.628   6.289  16.695  0.5602  0.1078 -0.0130
 3803TIP3    H135604   1.547   6.240  16.680 -1.7624  2.9324  2.0507
 3803TIP3    H235605   1.630   6.354  16.624  0.9746  0.0987 -0.0125
 3804TIP3   OH235606   2.502   2.270  18.381 -0.0352  0.0952 -0.1836
 3804TIP3    H135607   2.571   2.238  18.439  0.5974  0.1942 -0.8603
 3804TIP3    H235608   2.511   2.216  18.302 -1.2127 -0.3877 -0.0088
 3805TIP3   OH235609   3.917   3.676  17.163 -0.3910  0.5335 -0.2204
 3805TIP3    H135610   3.985   3.741  17.146  1.0531 -0.5320  1.1382
 3805TIP3    H235611   3.965   3.597  17.188 -2.0557  0.3982  3.2673
 3806TIP3   OH235612   3.067   5.976  17.225 -0.2388  0.3562  0.0883
 3806TIP3    H135613   2.995   5.972  17.287 -1.0214 -0.3522 -0.8250
 3806TIP3    H235614   3.144   5.997  17.278 -0.5150 -2.0740  1.6344
 3807TIP3   OH235615   5.917   1.862  18.284 -0.4244  0.1333 -0.5092
 3807TIP3    H135616   5.824   1.867  18.304 -0.5121  1.1996 -1.1116
 3807TIP3    H235617   5.940   1.949  18.252  0.9089  0.0500  0.1467
 3808TIP3   OH235618   1.647   7.515  17.692 -0.1551  0.5426 -0.1801
 3808TIP3    H135619   1.624   7.482  17.780 -1.8082 -1.3085 -1.2034
 3808TIP3    H235620   1.742   7.519  17.692 -0.1461  2.3705  2.2713
 3809TIP3   OH235621   5.216   6.370  18.515 -0.1239 -0.2169  0.0251
 3809TIP3    H135622   5.279   6.434  18.480  0.8039 -1.4358 -0.6091
 3809TIP3    H235623   5.134   6.420  18.523  0.5852  1.0707 -0.3612
 3810TIP3   OH235624   6.399   2.647  15.863  0.5886  0.3066 -0.0644
 3810TIP3    H135625   6.312   2.672  15.895  0.2514  0.5154 -1.1040
 3810TIP3    H235626   6.430   2.724  15.814  2.0237  0.8171  1.5337
 3811TIP3   OH235627   3.139   2.025  17.484 -0.0216  0.1190 -0.3494
 3811TIP3    H135628   3.167   2.103  17.436 -0.6718  0.8328  0.3852
 3811TIP3    H235629   3.050   2.046  17.513 -0.0793 -0.7620  0.1520
 3812TIP3   OH235630   0.151   6.959  18.445  0.2272 -0.1300 -0.4637
 3812TIP3    H135631   0.179   7.041  18.485 -2.5355  0.4407  0.4859
 3812TIP3    H235632   0.117   6.985  18.359  1.3541 -0.6396 -1.0911
 3813TIP3   OH235633   6.515   6.880  16.290 -0.2036 -0.2495 -0.2486
 3813TIP3    H135634   6.535   6.817  16.221 -4.2743  0.0130 -1.9978
 3813TIP3    H235635   6.526   6.831  16.371  0.6801 -1.9258 -1.3228
 3814TIP3   OH235636   5.991   7.222  17.628  0.1722  0.4200  0.3179
 3814TIP3    H135637   6.056   7.292  17.625  0.4957  0.1204  0.3173
 3814TIP3    H235638   5.966   7.216  17.721 -0.0605  0.7181  0.2793
 3815TIP3   OH235639   3.821   6.092  18.693 -0.1223  0.5052  0.2648
 3815TIP3    H135640   3.807   6.098  18.787 -2.4851  2.4338 -0.1213
 3815TIP3    H235641   3.839   6.181  18.665  0.5236 -0.0349 -1.1485
 3816TIP3   OH235642   6.514   5.769  18.273  0.3355  0.2381  0.3740
 3816TIP3    H135643   6.449   5.749  18.341  0.1037 -0.3653 -0.0222
 3816TIP3    H235644   6.545   5.683  18.244  0.6063  0.5043 -0.1247
 3817TIP3   OH235645   2.283   2.839  16.598 -0.2842 -0.1015  0.4717
 3817TIP3    H135646   2.293   2.745  16.587 -0.1994 -0.3624  2.5487
 3817TIP3    H235647   2.372   2.874  16.589  0.0587 -0.5140  2.0103
 3818TIP3   OH235648   0.791   7.502  16.598  0.7663  0.5045 -0.0372
 3818TIP3    H135649   0.833   7.536  16.677 -1.2598  0.7126  0.9944
 3818TIP3    H235650   0.763   7.414  16.622 -2.5582  1.6082  0.6034
 3819TIP3   OH235651   1.672   2.156  17.051 -0.4650  0.3241  0.0622
 3819TIP3    H135652   1.599   2.171  17.111  0.7599  1.6022  1.3162
 3819TIP3    H235653   1.727   2.233  17.061  1.1015 -0.6351 -0.7717
 3820TIP3   OH235654   5.707   4.457  18.209 -0.3283 -0.4082  0.1920
 3820TIP3    H135655   5.645   4.450  18.281 -1.1409  0.5458 -0.3861
 3820TIP3    H235656   5.740   4.368  18.197  1.1877 -0.3057  2.8637
 3821TIP3   OH235657   4.236   0.579  18.261  0.2579 -0.2601 -0.0849
 3821TIP3    H135658   4.294   0.648  18.293 -1.2454  1.2153 -0.4116
 3821TIP3    H235659   4.247   0.507  18.323 -0.1119  1.2827  1.8331
 3822TIP3   OH235660   5.321   3.470  18.250  0.5696 -0.4591  0.1051
 3822TIP3    H135661   5.357   3.504  18.332 -0.3795  0.5887  0.1176
 3822TIP3    H235662   5.270   3.393  18.276 -3.0361  2.0204  1.2171
 3823TIP3   OH235663   2.036   1.746  16.620 -0.3299 -0.2624 -0.1172
 3823TIP3    H135664   1.986   1.786  16.548 -2.3275 -1.1897  0.6801
 3823TIP3    H235665   2.038   1.653  16.599  0.8160 -0.2877  0.0492
 3824TIP3   OH235666   1.212   2.576  17.414 -0.0552  0.6726 -0.0296
 3824TIP3    H135667   1.145   2.642  17.394 -0.6431 -0.4701 -2.2056
 3824TIP3    H235668   1.162   2.497  17.436  0.5845  0.1683 -0.3429
 3825TIP3   OH235669   6.176   6.593  18.877 -0.3208 -0.0843  0.4528
 3825TIP3    H135670   6.087   6.628  18.888  0.0490  1.3832 -0.9212
 3825TIP3    H235671   6.209   6.634  18.797  0.6610 -2.6252 -0.5547
 3826TIP3   OH235672   6.369   3.147  18.505  0.3691 -0.3298  0.0102
 3826TIP3    H135673   6.411   3.079  18.559  0.7802  0.1217  0.2598
 3826TIP3    H235674   6.412   3.228  18.530 -0.5400  0.1215  0.1542
 3827TIP3   OH235675   6.462   4.133  18.365  0.6663 -0.1695  0.1822
 3827TIP3    H135676   6.385   4.181  18.334  0.0734 -0.6242  0.9270
 3827TIP3    H235677   6.511   4.113  18.285  1.0529  1.8496 -0.1427
 3828TIP3   OH235678   7.601   7.671  18.157 -0.0139  0.1259 -0.4536
 3828TIP3    H135679   7.536   7.700  18.221  0.3711 -1.1408  0.5635
 3828TIP3    H235680   7.672   7.634  18.210  1.0378  0.4799 -1.5691
 3829TIP3   OH235681   1.637   7.557  16.420 -0.0129  0.0214  0.4600
 3829TIP3    H135682   1.683   7.619  16.364  0.0618 -0.5588 -0.1246
 3829TIP3    H235683   1.544   7.576  16.406 -0.0714  2.6678  3.2552
 3830TIP3   OH235684   2.487   3.374  16.649 -0.2392 -0.1839 -0.1950
 3830TIP3    H135685   2.429   3.378  16.573 -1.2689  0.0888  0.5827
 3830TIP3    H235686   2.542   3.297  16.632 -0.1590  0.1200 -1.4102
 3831TIP3   OH235687   5.026   7.379  18.265 -0.1614 -0.0486  0.5431
 3831TIP3    H135688   4.960   7.311  18.252  1.1574 -1.2391 -0.2055
 3831TIP3    H235689   5.078   7.347  18.338  2.1361 -1.2902 -1.4905
 3832TIP3   OH235690   0.914   1.076  17.405 -0.0250  0.0479 -0.2271
 3832TIP3    H135691   0.875   1.151  17.362  0.3801  1.2235  1.3577
 3832TIP3    H235692   0.992   1.055  17.354 -1.5198 -1.0162 -2.2082
 3833TIP3   OH235693   7.435   6.149  18.950  0.2890 -0.4176  0.2166
 3833TIP3    H135694   7.357   6.199  18.928 -0.9025 -1.3091  2.1530
 3833TIP3    H235695   7.402   6.063  18.976  1.6943 -0.2862  2.7726
 3834TIP3   OH235696   6.975   6.534  18.222 -0.5176  0.3739  0.5395
 3834TIP3    H135697   6.898   6.509  18.171  0.1192 -0.0863 -0.2275
 3834TIP3    H235698   7.039   6.560  18.156 -0.0806  0.9633  1.1783
 3835TIP3   OH235699   3.726   5.748  17.140 -0.0386 -0.4887  0.3998
 3835TIP3    H135700   3.769   5.833  17.142  0.0823 -0.5608  1.0824
 3835TIP3    H235701   3.657   5.758  17.074  1.1567 -0.4521 -0.8845
 3836TIP3   OH235702   6.589   3.417  16.358 -0.4744 -0.1761  0.1549
 3836TIP3    H135703   6.574   3.328  16.326 -0.5160 -0.5657  1.2332
 3836TIP3    H235704   6.506   3.442  16.399 -0.3375  0.2158  0.1907
 3837TIP3   OH235705   4.097   1.262  18.585 -0.1523  0.2407 -0.2606
 3837TIP3    H135706   4.152   1.293  18.657 -0.3554 -2.1356  1.0276
 3837TIP3    H235707   4.008   1.266  18.620 -0.0479 -4.5786  1.3985
 3838TIP3   OH235708   5.749   6.458  16.512  0.0002  0.1433 -0.3133
 3838TIP3    H135709   5.824   6.425  16.463  0.8589  2.3710 -0.6036
 3838TIP3    H235710   5.674   6.408  16.478  1.4103 -2.8927  0.7355
 3839TIP3   OH235711   4.006   4.443  18.490  0.2084  0.0246 -0.3502
 3839TIP3    H135712   4.094   4.470  18.463  0.0873 -0.3325 -1.1237
 3839TIP3    H235713   3.962   4.419  18.408 -1.1495  1.7154 -0.1762
 3840TIP3   OH235714   6.993   4.581  18.359 -0.2453 -0.4342 -0.5138
 3840TIP3    H135715   6.940   4.564  18.281  0.2555 -1.7061 -0.6125
 3840TIP3    H235716   6.958   4.522  18.426  1.8701 -2.4300 -1.0010
 3841TIP3   OH235717   4.233   6.000  16.824 -0.4730 -0.5061  0.6494
 3841TIP3    H135718   4.243   6.010  16.729  0.7373  0.0325  0.8227
 3841TIP3    H235719   4.150   5.953  16.834 -0.7672 -0.3073 -0.6603
 3842TIP3   OH235720   3.338   7.103  18.343  0.1498 -0.0854  0.1862
 3842TIP3    H135721   3.334   7.163  18.269  1.1945  0.1927  0.3274
 3842TIP3    H235722   3.252   7.063  18.347 -0.1150  0.3621 -0.7881
 3843TIP3   OH235723   2.434   5.332  18.880 -0.0482  0.5953 -0.1681
 3843TIP3    H135724   2.352   5.286  18.901 -0.5110 -0.8953 -4.3355
 3843TIP3    H235725   2.501   5.283  18.928 -1.1429 -1.2127 -0.3545
 3844TIP3   OH235726   7.055   1.368  18.121 -0.4738  0.0783  0.0839
 3844TIP3    H135727   6.975   1.340  18.166  0.5256  0.3637  2.2030
 3844TIP3    H235728   7.104   1.415  18.189  1.7686 -0.6209 -0.9705
 3845TIP3   OH235729   4.427   5.537  18.587  0.2894  0.1599 -0.2852
 3845TIP3    H135730   4.496   5.579  18.536  1.4524 -0.7716  0.4411
 3845TIP3    H235731   4.465   5.452  18.612 -0.9120 -0.1352  0.6157
 3846TIP3   OH235732   1.935   0.112  16.915  0.0671  0.6660 -0.7540
 3846TIP3    H135733   1.980   0.032  16.944 -0.4702 -0.0009 -1.7196
 3846TIP3    H235734   1.916   0.159  16.996  1.0546  0.1781 -0.2210
 3847TIP3   OH235735   2.606   4.703  17.032  0.2633 -0.7365  0.3720
 3847TIP3    H135736   2.669   4.656  16.979  1.2970 -0.1130  1.0048
 3847TIP3    H235737   2.644   4.791  17.043 -0.1412 -0.6979  1.7055
 3848TIP3   OH235738   0.622   7.544  18.923 -0.0377  0.0237 -0.1527
 3848TIP3    H135739   0.548   7.602  18.906  0.0737  0.3091  0.3157
 3848TIP3    H235740   0.604   7.465  18.873 -2.3673 -1.3388  2.5630
 3849TIP3   OH235741   2.236   2.355  16.913  0.0474 -0.4161  0.7520
 3849TIP3    H135742   2.169   2.325  16.975  0.3531 -2.5837  0.1170
 3849TIP3    H235743   2.207   2.322  16.828  0.4510  1.1622 -0.0401
 3850TIP3   OH235744   6.363   7.156  16.995 -0.3892  0.2336  0.0174
 3850TIP3    H135745   6.294   7.155  16.928  0.0299 -0.8589 -0.4288
 3850TIP3    H235746   6.442   7.181  16.949  0.0982 -1.4499 -0.1457
 3851TIP3   OH235747   6.402   7.675  18.702 -0.1863 -0.0907  0.0062
 3851TIP3    H135748   6.426   7.583  18.713 -2.0020 -0.5748  0.2659
 3851TIP3    H235749   6.353   7.678  18.619  0.1047  0.6976 -0.1472
 3852TIP3   OH235750   2.802   1.935  18.688  0.5442  0.2235 -0.5798
 3852TIP3    H135751   2.802   1.991  18.611 -1.3905 -1.1872 -1.7194
 3852TIP3    H235752   2.856   1.860  18.662 -0.7764 -0.6390 -0.9302
 3853TIP3   OH235753   6.530   2.892  16.987 -0.5113 -0.5182  0.2333
 3853TIP3    H135754   6.596   2.852  16.929  1.4360  0.7198  1.4671
 3853TIP3    H235755   6.577   2.963  17.031 -2.9196  0.9564  0.6204
 3854TIP3   OH235756   4.206   0.103  16.030 -0.1682  0.4014 -0.1839
 3854TIP3    H135757   4.118   0.076  16.002 -0.1816  0.0453  0.1998
 3854TIP3    H235758   4.246   0.138  15.950 -0.1882 -0.6587 -0.6867
 3855TIP3   OH235759   1.631   2.701  17.725  0.6732 -0.3762 -0.1721
 3855TIP3    H135760   1.653   2.713  17.633  1.7542  0.0976  0.1332
 3855TIP3    H235761   1.585   2.617  17.728  0.1548 -0.1427 -1.2096
 3856TIP3   OH235762   0.536   2.590  17.132  0.1170 -0.5165 -0.0938
 3856TIP3    H135763   0.596   2.609  17.059 -0.7210  1.5459 -0.3274
 3856TIP3    H235764   0.522   2.675  17.173 -3.0206 -0.8117 -0.3609
 3857TIP3   OH235765   5.384   6.516  18.774 -0.5733  0.1432  0.5249
 3857TIP3    H135766   5.331   6.563  18.710 -0.6991 -0.8358 -0.1064
 3857TIP3    H235767   5.330   6.514  18.853 -0.2578  1.7023  0.8233
 3858TIP3   OH235768   4.271   5.063  17.925 -0.0230 -0.1803  0.8903
 3858TIP3    H135769   4.247   5.015  17.846 -0.5287  0.2793  0.7566
 3858TIP3    H235770   4.352   5.022  17.954 -0.2866 -0.9213  0.6164
 3859TIP3   OH235771   0.148   6.848  16.403 -0.0699 -0.1412  0.3032
 3859TIP3    H135772   0.146   6.756  16.377  1.6791  0.4225 -2.0853
 3859TIP3    H235773   0.218   6.887  16.351 -1.7877  2.9077  0.0451
 3860TIP3   OH235774   0.242   6.073  18.654 -1.0652 -0.0500  0.0685
 3860TIP3    H135775   0.171   6.009  18.656 -2.3608  1.3162 -0.3761
 3860TIP3    H235776   0.266   6.079  18.561 -0.1682 -0.6752  0.2410
 3861TIP3   OH235777   6.953   5.050  16.473 -0.5599  0.3633  0.3624
 3861TIP3    H135778   7.035   5.097  16.482 -1.0153  1.4592 -0.8503
 3861TIP3    H235779   6.887   5.119  16.463 -1.5400 -0.5033  0.6543
 3862TIP3   OH235780   0.614   3.382  16.893  0.2159 -0.4044  0.4242
 3862TIP3    H135781   0.708   3.371  16.878  0.1932 -1.6178  1.0775
 3862TIP3    H235782   0.581   3.421  16.812  1.2528 -0.0601  0.1483
 3863TIP3   OH235783   5.928   3.063  17.510  0.0534 -0.2266  0.5070
 3863TIP3    H135784   5.993   3.042  17.577  0.0219 -3.1505 -0.2612
 3863TIP3    H235785   5.846   3.028  17.546 -0.1027 -1.1198 -0.6609
 3864TIP3   OH235786   4.721   2.460  18.185 -0.4196  0.5799  0.3892
 3864TIP3    H135787   4.797   2.487  18.238 -0.4033  1.6307 -0.1391
 3864TIP3    H235788   4.743   2.487  18.096 -0.9348 -0.1486  0.0330
 3865TIP3   OH235789   3.500   1.782  17.282  0.3423  0.4881 -0.2543
 3865TIP3    H135790   3.432   1.751  17.342  4.0837 -0.7358  3.8396
 3865TIP3    H235791   3.523   1.706  17.230  0.1547  0.2557 -0.0010
 3866TIP3   OH235792   6.869   4.842  17.143 -0.3598 -0.1433  0.7878
 3866TIP3    H135793   6.816   4.892  17.205  0.1310  1.0338  0.2880
 3866TIP3    H235794   6.880   4.901  17.068  0.1338 -1.0532  0.1303
 3867TIP3   OH235795   3.571   7.305  17.773  0.2400 -0.2189  0.1226
 3867TIP3    H135796   3.573   7.219  17.730  0.9320  0.8362 -2.0803
 3867TIP3    H235797   3.661   7.320  17.801 -0.0627 -0.5772  1.3304
 3868TIP3   OH235798   4.079   5.511  17.258 -0.3563 -0.3241 -0.0424
 3868TIP3    H135799   4.124   5.443  17.308  0.3099  1.7085  2.3728
 3868TIP3    H235800   4.012   5.544  17.318 -0.8420  0.9464 -1.2347
 3869TIP3   OH235801   6.514   4.545  18.740 -0.0883  0.1200  0.1809
 3869TIP3    H135802   6.470   4.603  18.678 -1.8507 -0.9778  0.3225
 3869TIP3    H235803   6.556   4.603  18.803 -0.4687  1.2399 -0.5770
 3870TIP3   OH235804   1.958   2.815  18.516 -0.3219  0.6858  0.5695
 3870TIP3    H135805   1.874   2.770  18.528 -0.1761  0.4029  0.5467
 3870TIP3    H235806   2.014   2.780  18.585  0.0360  0.2333  0.0687
 3871TIP3   OH235807   3.019   0.154  17.153  0.3492  0.3765 -0.0391
 3871TIP3    H135808   2.950   0.185  17.094  0.0757  2.1410  1.1539
 3871TIP3    H235809   3.012   0.209  17.230  2.3696 -0.1684  0.5961
 3872TIP3   OH235810   2.795   1.685  18.085 -0.5195 -0.2949  0.5460
 3872TIP3    H135811   2.742   1.647  18.015 -0.2808  0.6995 -0.1893
 3872TIP3    H235812   2.803   1.777  18.063  3.3104 -0.7157 -0.5885
 3873TIP3   OH235813   3.406   7.258  16.657 -0.4502  0.5363  1.0401
 3873TIP3    H135814   3.490   7.303  16.662  0.3379 -0.9638  1.8539
 3873TIP3    H235815   3.365   7.292  16.577  2.1483 -0.6895 -0.9457
 3874TIP3   OH235816   1.139   3.318  16.328  0.5846 -0.6204  0.0745
 3874TIP3    H135817   1.143   3.276  16.242  2.7350 -0.2143 -0.0866
 3874TIP3    H235818   1.219   3.370  16.333 -0.9140  1.7596  1.1493
 3875TIP3   OH235819   0.650   5.156  18.719 -0.1761  0.3853  0.4629
 3875TIP3    H135820   0.638   5.249  18.700  2.1220  0.5200 -0.7861
 3875TIP3    H235821   0.643   5.114  18.633  0.7461 -0.3161  0.7223
 3876TIP3   OH235822   0.194   1.348  17.600  0.2438  0.0923  0.5159
 3876TIP3    H135823   0.259   1.302  17.655 -0.1237 -0.8362  0.1959
 3876TIP3    H235824   0.223   1.332  17.511 -0.3988 -0.3063  0.3709
 3877TIP3   OH235825   7.224   3.963  16.925  0.5403  0.1919 -0.0684
 3877TIP3    H135826   7.254   4.041  16.879 -2.1175  1.8237  0.7446
 3877TIP3    H235827   7.156   3.926  16.868 -1.0208  0.8195  1.2871
 3878TIP3   OH235828   2.643   2.731  18.713  0.3431 -0.1478 -0.9467
 3878TIP3    H135829   2.713   2.695  18.660  0.5852 -0.2718 -0.5415
 3878TIP3    H235830   2.686   2.761  18.793  0.3835  2.1866 -1.7497
 3879TIP3   OH235831   0.730   3.160  15.831 -0.0276 -0.5390  0.0547
 3879TIP3    H135832   0.770   3.226  15.774  2.4328  1.0211  3.1920
 3879TIP3    H235833   0.639   3.188  15.840  0.2158  0.7075 -0.9929
 3880TIP3   OH235834   2.084   6.962  18.490 -0.1749 -0.2199 -0.5864
 3880TIP3    H135835   2.039   6.974  18.574 -1.7874 -0.6048 -1.3538
 3880TIP3    H235836   2.169   6.926  18.514 -0.8041 -0.8460  0.8791
 3881TIP3   OH235837   7.503   6.863  17.783 -0.4968  0.1125 -0.1297
 3881TIP3    H135838   7.523   6.771  17.766  3.2078  1.1398 -2.7975
 3881TIP3    H235839   7.481   6.899  17.697 -2.1184  1.7328  0.8901
 3882TIP3   OH235840   1.518   2.929  17.013 -0.0810 -0.3177  0.2824
 3882TIP3    H135841   1.435   2.892  16.983 -0.1818 -1.9506  2.2893
 3882TIP3    H235842   1.502   2.953  17.104  1.1560  1.0881  0.1738
 3883TIP3   OH235843   3.730   5.665  17.925  0.4788 -0.0612 -0.2403
 3883TIP3    H135844   3.689   5.749  17.903 -0.5808  0.3766  2.9608
 3883TIP3    H235845   3.780   5.682  18.005 -1.1106 -2.7666  1.4965
 3884TIP3   OH235846   1.749   6.824  18.807  0.2959 -0.0037  0.0399
 3884TIP3    H135847   1.804   6.770  18.749 -1.2968 -0.0225 -1.5374
 3884TIP3    H235848   1.663   6.782  18.804 -0.9121  2.3558 -0.9505
 3885TIP3   OH235849   7.496   5.687  17.317 -0.0017  0.3725 -0.3843
 3885TIP3    H135850   7.577   5.665  17.362  0.1676 -0.6407 -1.1385
 3885TIP3    H235851   7.479   5.611  17.261 -1.5232  0.5180 -0.1582
 3886TIP3   OH235852   0.694   3.330  18.493 -0.1334  0.0260  0.0848
 3886TIP3    H135853   0.608   3.289  18.496 -0.1419  0.1103  1.6826
 3886TIP3    H235854   0.678   3.422  18.515  0.2687  0.2320 -0.4486
 3887TIP3   OH235855   2.929   5.954  18.112 -0.1207 -0.1060  0.2995
 3887TIP3    H135856   2.852   5.925  18.161  0.6404 -0.3109  1.4404
 3887TIP3    H235857   3.000   5.950  18.176  0.5893  1.4068 -0.3423
 3888TIP3   OH235858   4.526   6.234  17.432  0.8037  0.0625 -0.2953
 3888TIP3    H135859   4.466   6.274  17.495  1.5865  1.3298 -0.2987
 3888TIP3    H235860   4.544   6.304  17.369  2.4109 -0.2017 -0.1761
 3889TIP3   OH235861   5.952   4.301  17.644 -0.0684 -0.2579  0.0344
 3889TIP3    H135862   6.035   4.331  17.607  0.0721  1.6057  1.6826
 3889TIP3    H235863   5.976   4.260  17.727 -0.5476 -2.7242 -0.9597
 3890TIP3   OH235864   5.073   2.492  18.070 -0.0818 -0.1889 -0.2839
 3890TIP3    H135865   5.088   2.527  18.158  1.8058 -0.6011 -0.4005
 3890TIP3    H235866   5.052   2.400  18.084 -1.6011  0.1425 -0.1907
 3891TIP3   OH235867   0.776   0.324  18.575 -0.2145  0.4791  0.2008
 3891TIP3    H135868   0.683   0.319  18.551 -0.3026  0.5555  0.5185
 3891TIP3    H235869   0.812   0.240  18.549 -0.1371  0.8301 -0.8984
 3892TIP3   OH235870   2.226   4.519  17.890 -0.0283 -0.8756 -0.2029
 3892TIP3    H135871   2.301   4.551  17.840 -1.2517  2.1765 -0.2705
 3892TIP3    H235872   2.184   4.456  17.832  0.6552 -0.1758 -1.5099
 3893TIP3   OH235873   4.976   1.652  16.469  0.0953 -0.4273 -0.5389
 3893TIP3    H135874   4.990   1.738  16.428 -1.2198 -0.7915 -1.8530
 3893TIP3    H235875   4.984   1.590  16.397  3.0692 -1.6913  0.7185
 3894TIP3   OH235876   0.438   2.705  16.294  0.0714 -0.0353 -0.1704
 3894TIP3    H135877   0.430   2.791  16.336 -0.8192  0.0454 -0.4837
 3894TIP3    H235878   0.413   2.721  16.203 -0.4531 -0.6956 -0.1461
 3895TIP3   OH235879   4.174   4.647  17.411 -0.1704  0.0639  0.1887
 3895TIP3    H135880   4.123   4.719  17.373  0.1136  0.6268  0.8659
 3895TIP3    H235881   4.259   4.651  17.366 -0.0813  0.2771  0.3807
 3896TIP3   OH235882   2.821   3.345  18.121  0.3742  0.2005 -0.1426
 3896TIP3    H135883   2.815   3.384  18.208  1.8087  1.1755 -0.4389
 3896TIP3    H235884   2.790   3.255  18.133 -1.5828  0.9585  0.8738
 3897TIP3   OH235885   1.878   2.110  19.081 -0.3545 -0.1199  0.2717
 3897TIP3    H135886   1.828   2.092  19.001 -0.9973 -0.0119  0.6381
 3897TIP3    H235887   1.945   2.041  19.083 -1.0363 -0.8057  0.2122
 3898TIP3   OH235888   7.199   6.632  18.038 -0.1525 -0.3040  0.4253
 3898TIP3    H135889   7.201   6.688  17.961  2.5088 -1.5495 -0.5420
 3898TIP3    H235890   7.219   6.690  18.111  3.8519  0.0408 -0.6992
 3899TIP3   OH235891   2.066   0.256  17.541  0.2909  0.4635  0.2729
 3899TIP3    H135892   2.112   0.330  17.581  0.1362  0.9705 -0.4642
 3899TIP3    H235893   2.126   0.224  17.474  1.0226 -1.0782  1.5661
 3900TIP3   OH235894   0.959   1.054  17.692 -0.1516  0.1279  0.0365
 3900TIP3    H135895   1.036   1.102  17.723  0.1280 -1.1877  1.4952
 3900TIP3    H235896   0.919   1.113  17.627  1.3362  1.3953  0.1984
 3901TIP3   OH235897   1.530   0.171  17.873  0.1157  0.1216 -0.0147
 3901TIP3    H135898   1.546   0.199  17.963  0.3363  0.3476 -0.1232
 3901TIP3    H235899   1.439   0.194  17.857 -0.4214 -1.3857  0.6836
 3902TIP3   OH235900   1.275   6.777  16.116 -0.3104 -0.2375 -0.5260
 3902TIP3    H135901   1.254   6.724  16.039 -0.1564 -0.9130 -0.1108
 3902TIP3    H235902   1.352   6.828  16.090  0.6477 -1.5518 -0.3341
 3903TIP3   OH235903   0.185   3.892  17.899  0.7134 -0.0418  0.0192
 3903TIP3    H135904   0.222   3.831  17.962  2.3287  1.2175  0.3492
 3903TIP3    H235905   0.103   3.921  17.939  1.8622  0.9727  1.7407
 3904TIP3   OH235906   5.383   3.054  18.012 -0.3812 -0.2262 -0.2149
 3904TIP3    H135907   5.331   3.070  17.933  0.5531  0.1534 -0.7633
 3904TIP3    H235908   5.349   2.972  18.047 -0.8432 -0.3668 -0.9807
 3905TIP3   OH235909   7.411   7.359  17.541 -0.0560 -0.4018 -0.0097
 3905TIP3    H135910   7.317   7.364  17.527 -0.1941 -1.8420  0.1873
 3905TIP3    H235911   7.435   7.444  17.577 -0.8598  0.8693 -2.2804
 3906TIP3   OH235912   4.249   4.065  16.436  0.5853  0.3908  0.1450
 3906TIP3    H135913   4.295   3.996  16.388  2.2684  3.8608 -3.8286
 3906TIP3    H235914   4.157   4.051  16.413  0.6886 -1.3041  0.6203
 3907TIP3   OH235915   5.141   6.509  18.911 -0.0143  0.0642  0.0276
 3907TIP3    H135916   5.120   6.428  18.865  0.3633 -0.2871  0.4701
 3907TIP3    H235917   5.057   6.538  18.948 -0.1114 -0.2392  0.0476
 3908TIP3   OH235918   5.495   3.201  17.678 -0.0891  0.0476 -0.1655
 3908TIP3    H135919   5.458   3.204  17.590 -0.8506  0.5839  0.1632
 3908TIP3    H235920   5.420   3.210  17.736  0.3018 -1.1550  0.5626
 3909TIP3   OH235921   5.569   4.673  17.785 -0.1736  0.1030  0.1235
 3909TIP3    H135922   5.635   4.740  17.796  1.1532 -1.0072 -0.7469
 3909TIP3    H235923   5.614   4.601  17.740 -1.7421 -1.0376  0.2629
 3910TIP3   OH235924   1.594   7.616  18.642 -0.0125  0.0154  0.0307
 3910TIP3    H135925   1.512   7.645  18.683  0.3543 -1.8221  2.2969
 3910TIP3    H235926   1.625   7.692  18.593 -2.7015  0.9774 -0.3349
 3911TIP3   OH235927   1.921   3.200  18.218  0.3471 -0.4226 -0.5098
 3911TIP3    H135928   1.930   3.194  18.313  0.4249  0.8665 -0.4168
 3911TIP3    H235929   1.977   3.273  18.193 -0.6050  0.0268 -1.3969
 3912TIP3   OH235930   5.570   6.237  16.748  0.2121  0.3389 -0.4412
 3912TIP3    H135931   5.580   6.179  16.673 -2.8058 -1.2078  0.1935
 3912TIP3    H235932   5.659   6.264  16.770  1.3368 -0.6045 -3.4009
 3913TIP3   OH235933   2.719   3.690  17.868  0.2047 -0.1879  0.2750
 3913TIP3    H135934   2.662   3.616  17.887  0.1800 -0.2000  0.1568
 3913TIP3    H235935   2.777   3.659  17.798  1.6333 -0.8108  1.6797
 3914TIP3   OH235936   4.606   5.069  18.468  0.2600  0.3022  0.1454
 3914TIP3    H135937   4.613   4.982  18.428 -3.1436 -1.4823  2.8326
 3914TIP3    H235938   4.655   5.061  18.550 -0.1580  0.8694  0.4543
 3915TIP3   OH235939   2.774   2.038  16.939  0.1211 -0.4120  0.2810
 3915TIP3    H135940   2.732   2.016  17.023 -1.6515  1.5177 -0.0273
 3915TIP3    H235941   2.846   2.096  16.962  0.3963 -0.8497  0.5405
 3916TIP3   OH235942   3.226   2.359  16.950  0.7666 -1.0478 -0.0904
 3916TIP3    H135943   3.280   2.320  17.019  1.3813  1.7425  1.1594
 3916TIP3    H235944   3.160   2.411  16.997  0.1774 -0.3425 -1.6132
 3917TIP3   OH235945   5.660   6.912  16.668 -0.0928 -0.6087 -0.0203
 3917TIP3    H135946   5.684   6.924  16.760  1.0268 -1.5211 -0.1740
 3917TIP3    H235947   5.729   6.956  16.619 -0.7973  0.0555 -0.4332
 3918TIP3   OH235948   5.147   7.568  18.874  0.4478  0.1925 -0.2086
 3918TIP3    H135949   5.221   7.510  18.857  0.1202 -0.3127  0.0637
 3918TIP3    H235950   5.115   7.541  18.961 -0.4410 -0.0223 -0.5884
 3919TIP3   OH235951   3.862   7.556  17.614  0.6749  0.1660  0.4111
 3919TIP3    H135952   3.908   7.612  17.676 -0.4524 -0.0378  1.4655
 3919TIP3    H235953   3.827   7.484  17.666  1.0226 -0.8555 -0.7228
 3920TIP3   OH235954   3.210   3.601  17.138  0.4820 -0.1288  0.0170
 3920TIP3    H135955   3.260   3.551  17.073 -0.3230  1.3301 -1.8319
 3920TIP3    H235956   3.275   3.656  17.181  0.7948  0.2441 -0.9008
 3921TIP3   OH235957   5.288   4.587  18.915  0.3524  0.4877  0.5034
 3921TIP3    H135958   5.322   4.500  18.936  0.1796  0.5588  1.0960
 3921TIP3    H235959   5.201   4.570  18.879  0.2674  0.4190  0.7376
 3922TIP3   OH235960   3.363   1.760  18.464 -0.3316 -0.4762  0.2492
 3922TIP3    H135961   3.339   1.677  18.422  0.1656  0.3968 -1.8865
 3922TIP3    H235962   3.297   1.822  18.434  1.0707  0.5815 -0.7820
 3923TIP3   OH235963   6.891   2.160  18.532 -0.2598  0.0164  0.7113
 3923TIP3    H135964   6.945   2.228  18.572  1.4083 -0.3295 -0.8225
 3923TIP3    H235965   6.903   2.083  18.588 -1.5561  0.7136  2.0217
 3924TIP3   OH235966   4.960   1.176  17.412  0.1055  0.1801  0.4531
 3924TIP3    H135967   4.924   1.262  17.392 -0.3375 -0.3261 -1.0246
 3924TIP3    H235968   4.909   1.115  17.358  1.4930 -0.8247  0.2238
 3925TIP3   OH235969   5.418   0.180  16.350 -0.1318  0.7162 -0.4528
 3925TIP3    H135970   5.496   0.229  16.325 -0.6524  1.5780 -0.4293
 3925TIP3    H235971   5.351   0.206  16.287  0.2449 -2.0034 -2.1357
 3926TIP3   OH235972   6.023   3.311  18.144  0.0531 -0.3247 -0.0544
 3926TIP3    H135973   5.991   3.233  18.098  0.1250 -0.2603 -0.2145
 3926TIP3    H235974   6.113   3.290  18.167  0.6514  0.3469 -1.6041
 3927TIP3   OH235975   6.363   4.107  16.799 -0.2870 -0.3858 -0.0636
 3927TIP3    H135976   6.397   4.165  16.731 -0.3660 -0.0484  0.1827
 3927TIP3    H235977   6.440   4.083  16.851 -0.6035  1.8401  1.6217
 3928TIP3   OH235978   6.227   4.329  17.158  0.0489 -0.2174 -0.2059
 3928TIP3    H135979   6.186   4.283  17.231  1.9521  0.6855  1.5287
 3928TIP3    H235980   6.153   4.361  17.106 -1.5188  0.9875  2.5332
 3929TIP3   OH235981   5.505   1.135  17.097  0.0969  0.0844  0.2382
 3929TIP3    H135982   5.437   1.168  17.038  0.4425 -0.0811 -0.2555
 3929TIP3    H235983   5.457   1.085  17.163 -0.1873 -1.0461 -0.7835
 3930TIP3   OH235984   1.551   4.953  18.186  0.2831 -0.0567 -0.2024
 3930TIP3    H135985   1.579   5.001  18.264  1.4746  1.5232 -1.5502
 3930TIP3    H235986   1.582   4.864  18.200  2.1491  0.6419  0.3182
 3931TIP3   OH235987   6.029   5.773  17.732  0.8743  0.2654 -0.1469
 3931TIP3    H135988   6.098   5.710  17.753 -0.1044 -1.4671 -1.8344
 3931TIP3    H235989   5.949   5.732  17.763  0.4241  1.7525  0.7733
 3932TIP3   OH235990   5.169   6.884  18.476 -0.3089  0.3502  0.2046
 3932TIP3    H135991   5.181   6.830  18.554  0.0985  2.0151  1.3500
 3932TIP3    H235992   5.186   6.824  18.403  1.4383 -0.7680  1.4290
 3933TIP3   OH235993   0.135   3.218  17.850  0.5777  0.7690 -0.0952
 3933TIP3    H135994   0.084   3.167  17.787 -2.1950 -1.2746  3.4404
 3933TIP3    H235995   0.083   3.298  17.862  0.7935  0.8939 -0.0046
 3934TIP3   OH235996   3.586   4.300  18.883 -0.3920 -0.3647 -0.6841
 3934TIP3    H135997   3.673   4.288  18.844 -0.1824 -1.4406  0.0702
 3934TIP3    H235998   3.600   4.286  18.976 -1.4540 -1.0586 -0.6086
 3935TIP3   OH235999   5.116   0.580  16.816  0.0085  0.0986  0.5452
 3935TIP3    H136000   5.125   0.490  16.787  1.5453  0.5491 -0.5193
 3935TIP3    H236001   5.023   0.599  16.808  0.1027 -0.1650 -3.2652
 3936TIP3   OH236002   0.924   3.206  16.027 -0.4116 -0.2144  0.2327
 3936TIP3    H136003   0.860   3.183  15.959  0.6235  0.3710 -0.9966
 3936TIP3    H236004   0.897   3.292  16.057 -0.1131  0.1256 -0.4371
 3937TIP3   OH236005   2.608   1.350  18.377 -0.0983 -0.5129 -0.1328
 3937TIP3    H136006   2.594   1.425  18.435  0.7773 -0.2002 -0.3212
 3937TIP3    H236007   2.534   1.352  18.317 -0.7710 -0.5648  0.6640
 3938TIP3   OH236008   4.200   6.017  18.126  0.2992 -0.0177 -0.3330
 3938TIP3    H136009   4.268   6.083  18.136 -0.5964  0.8982 -0.0646
 3938TIP3    H236010   4.175   5.995  18.216  0.6382 -0.7874 -0.4168
 3939TIP3   OH236011   4.977   4.247  17.952 -0.0162 -0.1557 -1.0217
 3939TIP3    H136012   5.032   4.172  17.929  1.8192  1.2380 -1.3844
 3939TIP3    H236013   4.961   4.237  18.045  0.4332 -0.8548 -1.0120
 3940TIP3   OH236014   2.957   1.887  15.751  0.3269  0.3836  0.5519
 3940TIP3    H136015   2.981   1.847  15.667  3.7451 -1.2232  2.1147
 3940TIP3    H236016   2.864   1.866  15.762  0.1256 -0.5208 -2.1787
 3941TIP3   OH236017   4.160   3.044  17.337 -0.3611  0.0090 -0.0683
 3941TIP3    H136018   4.208   3.085  17.264  0.5666 -0.0622  0.4804
 3941TIP3    H236019   4.191   3.091  17.415 -0.2989 -0.8373  0.4238
 3942TIP3   OH236020   4.174   5.491  18.794 -0.0477 -0.0146  1.1286
 3942TIP3    H136021   4.083   5.514  18.816 -0.6498 -0.2413 -0.9234
 3942TIP3    H236022   4.224   5.571  18.810 -1.3954  1.5731 -1.9038
 3943TIP3   OH236023   2.923   7.428  17.631 -0.5848  0.0710 -0.5949
 3943TIP3    H136024   3.010   7.389  17.637 -0.2650  0.7999 -0.4175
 3943TIP3    H236025   2.896   7.412  17.541  1.0269  2.4935 -1.6207
 3944TIP3   OH236026   7.201   5.194  19.248 -0.3717  0.5634  0.3989
 3944TIP3    H136027   7.154   5.254  19.191 -1.3268  1.2079  1.7997
 3944TIP3    H236028   7.135   5.129  19.273 -0.3201  1.0076  1.7421
 3945TIP3   OH236029   6.812   1.550  17.653  0.8855  0.4609  0.4511
 3945TIP3    H136030   6.751   1.623  17.638  1.5451  1.1098  0.8307
 3945TIP3    H236031   6.810   1.499  17.572  0.1093  0.6779  0.3331
 3946TIP3   OH236032   0.556   5.780  16.071 -0.7207 -0.2352 -0.5277
 3946TIP3    H136033   0.461   5.768  16.074 -0.9216  1.2152  0.4935
 3946TIP3    H236034   0.570   5.862  16.120  1.0497 -0.4290 -0.6700
 3947TIP3   OH236035   3.258   3.530  18.045 -0.0984  0.0600  0.3965
 3947TIP3    H136036   3.303   3.448  18.067  1.0639  0.6061  0.1368
 3947TIP3    H236037   3.166   3.506  18.039  0.2761 -1.3426 -0.1471
 3948TIP3   OH236038   7.104   1.429  17.543 -0.2588  0.7238  0.5039
 3948TIP3    H136039   7.121   1.377  17.622 -0.4587 -1.3989 -0.7749
 3948TIP3    H236040   7.015   1.405  17.517  0.2380  0.4194 -1.0339
 3949TIP3   OH236041   3.957   3.331  16.968 -0.2859 -0.4181 -0.2079
 3949TIP3    H136042   3.898   3.381  16.911  0.3230 -1.4845 -1.8539
 3949TIP3    H236043   4.041   3.375  16.961  0.0498 -1.1418 -1.0202
 3950TIP3   OH236044   4.790   6.365  19.034  0.3974  0.7683 -0.3633
 3950TIP3    H136045   4.700   6.351  19.004 -0.0334 -3.1322  2.0499
 3950TIP3    H236046   4.842   6.373  18.953 -1.6521 -0.6087 -1.9035
 3951TIP3   OH236047   7.318   3.496  17.870  0.2793  0.3124  0.3313
 3951TIP3    H136048   7.299   3.439  17.795 -1.8054  0.7455  0.4638
 3951TIP3    H236049   7.294   3.583  17.840 -1.5660  0.3581  1.7929
 3952TIP3   OH236050   5.022   1.410  18.840  0.2264  0.2011  0.4986
 3952TIP3    H136051   5.110   1.446  18.828 -0.3505  1.5478  0.0895
 3952TIP3    H236052   4.967   1.463  18.783 -1.0030  0.0334  1.4922
 3953TIP3   OH236053   3.466   4.499  17.383  0.1901  0.1664 -0.5271
 3953TIP3    H136054   3.459   4.404  17.370 -0.6356  0.1741 -0.2428
 3953TIP3    H236055   3.453   4.511  17.477  0.3048  0.5642 -0.5598
 3954TIP3   OH236056   5.570   3.491  17.412  0.1781  0.2772  0.0280
 3954TIP3    H136057   5.595   3.531  17.495  0.1586  0.2924  0.0269
 3954TIP3    H236058   5.482   3.455  17.429  0.8211 -1.1585  0.5054
 3955TIP3   OH236059   0.186   4.234  17.605  0.2650 -0.4769  0.1312
 3955TIP3    H136060   0.240   4.192  17.538  0.8693  2.7428 -1.5771
 3955TIP3    H236061   0.245   4.294  17.650 -1.2391  1.0377  0.1654
 3956TIP3   OH236062   3.610   5.665  17.387 -0.5841 -1.0099 -0.5910
 3956TIP3    H136063   3.520   5.670  17.354 -0.6295  2.4606 -0.2301
 3956TIP3    H236064   3.663   5.704  17.317 -0.1551  2.2927  1.3720
 3957TIP3   OH236065   0.967   7.021  17.489 -0.5632 -0.2857 -0.3958
 3957TIP3    H136066   1.038   6.982  17.539  0.7204  2.3414 -0.0045
 3957TIP3    H236067   0.894   6.960  17.499  0.4612 -1.1992  2.4117
 3958TIP3   OH236068   2.129   1.403  18.180  0.2569  0.0871 -0.0813
 3958TIP3    H136069   2.124   1.489  18.222  1.1601 -0.1830  0.5974
 3958TIP3    H236070   2.077   1.413  18.100 -0.4212  0.9870  0.4461
 3959TIP3   OH236071   5.094   7.145  17.464  0.0641 -0.3959 -0.4142
 3959TIP3    H136072   5.136   7.205  17.402  1.7295  0.7281  1.6578
 3959TIP3    H236073   5.163   7.086  17.491 -0.8797 -1.4928 -0.3242
 3960TIP3   OH236074   2.392   5.934  19.342 -0.2301  0.1005  0.5335
 3960TIP3    H136075   2.358   5.951  19.255  1.7748  0.6826 -0.1888
 3960TIP3    H236076   2.345   5.996  19.399 -0.0072  1.2539 -0.5034
 3961TIP3   OH236077   4.068   2.452  18.663  0.3962  0.3632  0.4692
 3961TIP3    H136078   4.033   2.415  18.582  0.9975  1.0500 -0.1175
 3961TIP3    H236079   3.994   2.497  18.703  0.0415 -0.1608  0.4122
 3962TIP3   OH236080   1.215   2.583  16.061  0.3165 -0.2637 -0.8347
 3962TIP3    H136081   1.309   2.591  16.077  0.5592 -1.6690 -1.4398
 3962TIP3    H236082   1.190   2.500  16.101 -1.1802  1.1380  1.3622
 3963TIP3   OH236083   3.331   4.169  16.075 -0.0926  0.6334  0.6542
 3963TIP3    H136084   3.362   4.217  16.152 -0.5370  2.2838 -0.1682
 3963TIP3    H236085   3.286   4.234  16.022  0.8091 -0.3051 -1.3735
 3964TIP3   OH236086   0.976   4.648  17.519  0.0674  0.4587  0.1321
 3964TIP3    H136087   0.881   4.649  17.509  0.0187 -0.8390  0.3012
 3964TIP3    H236088   0.990   4.654  17.614  0.0982 -0.7289  0.2138
 3965TIP3   OH236089   0.998   7.174  18.344 -0.0255  0.2509 -0.4902
 3965TIP3    H136090   0.910   7.194  18.311  0.0987 -1.4067 -2.0045
 3965TIP3    H236091   1.057   7.228  18.291 -0.1172  1.9238  1.0259
 3966TIP3   OH236092   5.231   2.500  17.379  0.3237  0.1532 -0.1780
 3966TIP3    H136093   5.322   2.471  17.372  0.5904  1.0155 -0.4184
 3966TIP3    H236094   5.211   2.539  17.294 -0.4693 -0.5739 -0.3313
 3967TIP3   OH236095   4.466   1.525  18.313  0.2424  0.2993  0.2927
 3967TIP3    H136096   4.455   1.591  18.381  3.1441  1.1384  0.1047
 3967TIP3    H236097   4.492   1.574  18.235 -0.8160 -0.8315 -0.8262
 3968TIP3   OH236098   4.376   4.909  17.606  0.2964 -0.5763  0.1275
 3968TIP3    H136099   4.310   4.870  17.663 -0.6635 -0.9937 -1.2392
 3968TIP3    H236100   4.445   4.842  17.600 -0.2041 -1.0594 -0.2445
 3969TIP3   OH236101   7.225   5.670  17.403  0.0421 -0.6971 -0.1839
 3969TIP3    H136102   7.318   5.674  17.377 -0.1431  1.7193 -0.7352
 3969TIP3    H236103   7.228   5.658  17.498  0.9698  0.3305 -0.0562
 3970TIP3   OH236104   6.923   0.621  17.538 -0.0327  0.3746 -0.0542
 3970TIP3    H136105   7.011   0.625  17.577  0.1227  0.0257 -0.3581
 3970TIP3    H236106   6.930   0.551  17.472  0.0627  1.7614 -1.5794
 3971TIP3   OH236107   4.581   7.354  17.503 -0.4252 -0.1162  0.5391
 3971TIP3    H136108   4.660   7.334  17.453 -0.8724 -1.2725  0.2596
 3971TIP3    H236109   4.522   7.395  17.440 -0.6773 -0.8226  0.2975
 3972TIP3   OH236110   0.466   2.819  16.720  0.5438 -0.4957  0.7229
 3972TIP3    H136111   0.393   2.879  16.737 -1.7367 -2.6083 -0.9486
 3972TIP3    H236112   0.510   2.856  16.644  0.3087  0.0190  0.8315
 3973TIP3   OH236113   1.192   3.165  16.111 -0.3226 -0.5970 -0.2860
 3973TIP3    H136114   1.249   3.154  16.035  0.1587 -2.8647  0.3242
 3973TIP3    H236115   1.103   3.163  16.074 -0.0776  0.5513 -0.9871
 3974TIP3   OH236116   0.002   6.342  17.823  0.4740  0.1326  0.6615
 3974TIP3    H136117   0.022   6.252  17.798 -0.1250  0.3271 -0.5450
 3974TIP3    H236118   0.017   6.344  17.918  0.8644 -1.1257  0.6430
 3975TIP3   OH236119   0.964   0.040  18.675  0.0628  0.0467 -0.5248
 3975TIP3    H136120   0.942  -0.012  18.597  2.0338 -0.2386 -0.9276
 3975TIP3    H236121   0.949  -0.020  18.748  0.4699 -0.4621 -0.8536
 3976TIP3   OH236122   6.216   2.886  15.799  0.4253  0.0979  0.4716
 3976TIP3    H136123   6.235   2.869  15.891 -0.0912  0.8460  0.7231
 3976TIP3    H236124   6.123   2.908  15.797  0.1703 -0.9652 -0.3827
 3977TIP3   OH236125   2.212   6.867  18.804  0.5462  0.1526  0.4025
 3977TIP3    H136126   2.274   6.940  18.798  1.0395 -0.0954  2.0590
 3977TIP3    H236127   2.171   6.877  18.890 -0.3620 -0.7658  0.0959
 3978TIP3   OH236128   5.070   4.760  18.685 -0.1716  0.1000  0.5112
 3978TIP3    H136129   5.038   4.837  18.731 -0.1945  0.6759 -0.4505
 3978TIP3    H236130   5.164   4.758  18.705 -0.2528  0.1122  0.9026
 3979TIP3   OH236131   1.959   1.920  18.188  0.3104  0.5352 -0.4470
 3979TIP3    H136132   1.892   1.973  18.144  1.5810  1.0778 -1.7730
 3979TIP3    H236133   1.940   1.830  18.161 -0.8251  0.4669  0.4721
 3980TIP3   OH236134   4.137   3.812  18.872  0.1015  0.5621  0.0058
 3980TIP3    H136135   4.083   3.880  18.833  0.1140 -0.2697 -1.5275
 3980TIP3    H236136   4.224   3.825  18.834 -0.0808 -0.7662 -0.9702
 3981TIP3   OH236137   2.433   7.185  17.470 -0.1834 -0.7344 -0.2600
 3981TIP3    H136138   2.459   7.232  17.390 -1.5451 -4.1802 -3.0332
 3981TIP3    H236139   2.353   7.228  17.498 -0.5079 -0.3594 -1.6822
 3982TIP3   OH236140   3.729   4.801  17.181  0.2106 -0.0135  0.0572
 3982TIP3    H136141   3.674   4.722  17.174  0.2369 -0.1189  0.9758
 3982TIP3    H236142   3.682   4.857  17.243  1.5403 -0.4449  1.4952
 3983TIP3   OH236143   3.245   6.266  17.139  0.4967 -0.4187  0.1971
 3983TIP3    H136144   3.244   6.257  17.234 -0.2646  0.2905  0.2593
 3983TIP3    H236145   3.241   6.360  17.123 -1.0766 -0.5876 -0.5545
 3984TIP3   OH236146   4.198   2.476  17.959 -0.2714  0.4353  0.5004
 3984TIP3    H136147   4.172   2.410  17.895  0.2835  1.6008 -0.9683
 3984TIP3    H236148   4.293   2.485  17.948 -0.4218  1.9116  0.2440
 3985TIP3   OH236149   6.097   0.537  18.836  0.8433  0.4184 -0.2059
 3985TIP3    H136150   6.180   0.531  18.789  1.4712  1.0798  0.8089
 3985TIP3    H236151   6.120   0.567  18.924 -0.4505  0.4700  0.1391
 3986TIP3   OH236152   0.635   7.603  17.290  0.9603 -0.2842  0.2708
 3986TIP3    H136153   0.587   7.523  17.269  0.4979  0.4398 -1.6165
 3986TIP3    H236154   0.597   7.670  17.233 -0.1179  1.8405  3.2495
 3987TIP3   OH236155   2.645   5.584  16.336  0.5127  0.3005 -0.4625
 3987TIP3    H136156   2.569   5.633  16.304  1.0185  0.9824 -0.6474
 3987TIP3    H236157   2.696   5.566  16.258 -0.0697 -1.2824 -0.5197
 3988TIP3   OH236158   0.943   6.460  15.835  0.2263  0.4902 -0.5281
 3988TIP3    H136159   0.929   6.387  15.775 -2.5784  1.7237 -1.5048
 3988TIP3    H236160   0.929   6.422  15.922 -1.3079 -0.1417 -1.0248
 3989TIP3   OH236161   7.106   0.513  18.317 -0.1137  0.6443 -0.2595
 3989TIP3    H136162   7.201   0.528  18.318 -0.2600  1.6296  0.9794
 3989TIP3    H236163   7.069   0.595  18.350 -1.4433  0.5009 -1.3018
 3990TIP3   OH236164   2.735   0.824  18.748  0.3839 -0.5052  0.5183
 3990TIP3    H136165   2.758   0.794  18.836 -0.4732 -1.7805  0.3247
 3990TIP3    H236166   2.640   0.818  18.744  0.3633  0.1268 -0.3067
 3991TIP3   OH236167   3.511   5.767  16.279  0.2481  0.4064  0.0988
 3991TIP3    H136168   3.579   5.715  16.322  0.0204 -0.6132 -0.7517
 3991TIP3    H236169   3.467   5.812  16.351 -0.0567 -1.1791  0.9352
 3992TIP3   OH236170   1.723   5.245  18.352  0.1845 -0.7833 -0.3996
 3992TIP3    H136171   1.743   5.311  18.419 -0.9140 -1.8615  1.0589
 3992TIP3    H236172   1.807   5.228  18.310  0.7507  0.5454  0.1194
 3993TIP3   OH236173   0.417   7.108  16.723 -0.1729  0.4607  0.1486
 3993TIP3    H136174   0.427   7.037  16.660 -0.4401  0.5586 -0.0069
 3993TIP3    H236175   0.490   7.097  16.784  1.8638  2.1166 -1.8312
 3994TIP3   OH236176   0.644   0.544  18.153  0.2051 -0.2025  0.4403
 3994TIP3    H136177   0.696   0.542  18.233  1.1988 -0.5577 -0.1961
 3994TIP3    H236178   0.584   0.469  18.162  1.9722 -1.7766 -0.2004
 3995TIP3   OH236179   1.177   1.847  17.303 -0.3522 -0.1605  0.3435
 3995TIP3    H136180   1.271   1.840  17.290 -0.3546 -1.9578  1.0633
 3995TIP3    H236181   1.139   1.822  17.219 -0.2051 -0.2666  0.3090
 3996TIP3   OH236182   4.575   0.463  18.130  0.3183  0.7208  0.1357
 3996TIP3    H136183   4.587   0.373  18.162 -0.4631  0.7835  0.6224
 3996TIP3    H236184   4.572   0.454  18.035 -0.1210  0.1802  0.1929
 3997TIP3   OH236185   4.433   5.573  18.245 -0.6280  0.0214  0.3392
 3997TIP3    H136186   4.346   5.593  18.277 -1.0242 -0.1237 -0.6100
 3997TIP3    H236187   4.491   5.633  18.293 -1.5536  2.1511 -1.0476
 3998TIP3   OH236188   3.635   7.136  18.719  0.0342 -0.2730  0.2546
 3998TIP3    H136189   3.562   7.157  18.660  1.3052  0.6281 -1.0566
 3998TIP3    H236190   3.626   7.198  18.791 -0.9930 -0.7638  0.5767
 3999TIP3   OH236191   6.810   7.016  16.582  0.1299 -0.2201 -0.0295
 3999TIP3    H136192   6.803   7.074  16.506  1.0562  2.5507  1.7922
 3999TIP3    H236193   6.733   6.960  16.578  0.5030 -0.6792 -3.3104
 4000TIP3   OH236194   2.558   4.243  16.997 -0.4422  0.2136  0.4578
 4000TIP3    H136195   2.551   4.247  16.902  2.1212  1.1378  0.2221
 4000TIP3    H236196   2.477   4.284  17.029 -1.2517  0.0730 -1.2848
 4001TIP3   OH236197   3.609   7.559  17.953  0.8364 -0.3500 -0.4143
 4001TIP3    H136198   3.686   7.611  17.977  1.9510 -1.7312 -0.8103
 4001TIP3    H236199   3.606   7.489  18.018 -1.0011  0.4954  0.4706
 4002TIP3   OH236200   5.226   0.887  18.811  0.5464 -0.5621 -0.3537
 4002TIP3    H136201   5.237   0.976  18.777  0.0959 -0.5847 -0.5709
 4002TIP3    H236202   5.139   0.860  18.780  0.1488 -0.6105  0.7541
 4003TIP3   OH236203   1.955   3.201  17.490  0.7439 -0.5021  0.1341
 4003TIP3    H136204   1.975   3.236  17.403  0.1100  0.8670  0.5139
 4003TIP3    H236205   2.041   3.182  17.528  1.1613  1.2630  0.1340
 4004TIP3   OH236206   0.284   2.918  17.563  0.0554 -0.0815  0.0989
 4004TIP3    H136207   0.196   2.950  17.543  0.3939  0.8208 -0.0129
 4004TIP3    H236208   0.272   2.859  17.637 -0.7900 -0.8926 -0.6654
 4005TIP3   OH236209   2.354   0.997  16.910 -0.0233  0.3221 -0.6337
 4005TIP3    H136210   2.307   0.915  16.897 -0.5056  0.7286 -1.5004
 4005TIP3    H236211   2.387   0.991  17.000 -0.9006 -0.3865 -0.3412
 4006TIP3   OH236212   2.039   7.565  16.999 -0.1994 -0.0941  0.4118
 4006TIP3    H136213   2.115   7.561  16.941 -0.0938  1.0309  0.4418
 4006TIP3    H236214   1.975   7.506  16.959  1.0283 -1.8575  0.9526
 4007TIP3   OH236215   2.696   3.515  18.717  0.3650  0.3591 -0.5816
 4007TIP3    H136216   2.693   3.594  18.770  1.6048  0.1016 -0.0848
 4007TIP3    H236217   2.749   3.454  18.768  1.9236  0.2252 -2.2525
 4008TIP3   OH236218   1.508   6.336  17.040  0.4226 -0.7946  0.2101
 4008TIP3    H136219   1.565   6.393  16.988  1.5177 -2.1324 -0.1072
 4008TIP3    H236220   1.500   6.380  17.125  0.0327  0.5437 -0.4818
 4009TIP3   OH236221   5.439   2.510  16.250 -0.2907 -0.0590  0.7235
 4009TIP3    H136222   5.512   2.562  16.216 -0.0850 -0.4609  0.5509
 4009TIP3    H236223   5.371   2.575  16.272  0.0508  0.2995  0.7240
 4010TIP3   OH236224   6.539   6.690  16.099 -0.1724  0.5328 -0.1430
 4010TIP3    H136225   6.612   6.632  16.119 -0.6236  0.0551  0.1682
 4010TIP3    H236226   6.509   6.662  16.013  0.0247  0.7382 -0.2777
 4011TIP3   OH236227   6.899   3.908  18.233  0.0311  0.1938  0.3691
 4011TIP3    H136228   6.863   3.849  18.299  0.6517  0.5016  1.0043
 4011TIP3    H236229   6.988   3.876  18.219 -0.7972 -1.2560 -2.0126
 4012TIP3   OH236230   4.907   6.999  16.758 -0.6467 -0.0805 -0.0721
 4012TIP3    H136231   4.904   6.935  16.828 -2.2853  1.5955  1.5255
 4012TIP3    H236232   4.815   7.012  16.734 -0.3243  1.2406 -0.7105
 4013TIP3   OH236233   6.357   4.145  17.863 -0.2858  0.3055 -0.5217
 4013TIP3    H136234   6.436   4.108  17.824 -0.2032 -2.6675  2.0594
 4013TIP3    H236235   6.384   4.178  17.948 -1.4467  1.4757 -0.5593
 4014TIP3   OH236236   5.644   2.868  17.860  0.2331  0.0062  0.2076
 4014TIP3    H136237   5.558   2.827  17.858  0.9684 -1.5946 -1.0304
 4014TIP3    H236238   5.640   2.930  17.933 -1.4732 -1.1031  1.1093
 4015TIP3   OH236239   4.794   2.324  17.301 -0.1607  0.3854 -0.7587
 4015TIP3    H136240   4.837   2.366  17.376  0.4410 -1.7588  0.1559
 4015TIP3    H236241   4.829   2.370  17.224  1.0329  1.0477  0.1477
 4016TIP3   OH236242   4.153   4.909  18.588  0.7444  0.7318 -0.0942
 4016TIP3    H136243   4.174   4.855  18.512 -0.8142  2.7676 -2.0680
 4016TIP3    H236244   4.226   4.971  18.594  0.7176  0.7649 -0.1131
 4017TIP3   OH236245   0.445   4.717  17.072 -0.0515 -0.0278  0.2321
 4017TIP3    H136246   0.464   4.797  17.022 -0.2783  0.8731  1.5343
 4017TIP3    H236247   0.518   4.708  17.133  0.1874 -1.0806 -0.1837
 4018TIP3   OH236248   4.726   4.842  17.509  0.2839  0.2169  0.5716
 4018TIP3    H136249   4.736   4.840  17.414  1.1169 -2.4885  0.6456
 4018TIP3    H236250   4.806   4.882  17.542  0.1806  0.7573  0.1775
 4019TIP3   OH236251   6.513   4.317  18.036 -0.6354  0.4258 -0.0241
 4019TIP3    H136252   6.544   4.369  17.961 -1.2541 -0.0568 -0.6238
 4019TIP3    H236253   6.497   4.382  18.105 -1.3058  1.0332 -0.7274
 4020TIP3   OH236254   4.692   6.134  17.660 -0.1679 -0.1471  0.1802
 4020TIP3    H136255   4.609   6.168  17.627  0.6675 -0.3935 -2.3886
 4020TIP3    H236256   4.713   6.061  17.601  1.2829 -0.8930  1.5496
 4021TIP3   OH236257   6.440   1.755  17.903 -0.0674  0.7144  0.0394
 4021TIP3    H136258   6.446   1.692  17.831  0.4677 -0.3885  1.0056
 4021TIP3    H236259   6.409   1.703  17.977  0.6104  1.5423  0.9263
 4022TIP3   OH236260   4.707   3.907  17.969  0.0711  0.0090 -0.4631
 4022TIP3    H136261   4.741   3.829  18.013 -0.5520 -0.9499 -1.6234
 4022TIP3    H236262   4.722   3.890  17.876 -1.3866  0.6223 -0.8308
 4023TIP3   OH236263   4.626   5.299  17.358 -0.0990 -0.2701 -0.0363
 4023TIP3    H136264   4.564   5.359  17.317  0.2809 -0.6395 -1.1965
 4023TIP3    H236265   4.575   5.252  17.424 -0.5309  0.9222  0.4884
 4024TIP3   OH236266   2.951   4.281  18.177 -0.3581  0.0272  0.7886
 4024TIP3    H136267   3.022   4.217  18.187 -1.2956 -1.4607 -1.3591
 4024TIP3    H236268   2.993   4.356  18.135 -0.3247 -1.7370 -2.6971
 4025TIP3   OH236269   3.349   1.524  18.324 -0.1022 -0.2580 -0.3048
 4025TIP3    H136270   3.438   1.501  18.349 -0.0143  1.7814  1.5620
 4025TIP3    H236271   3.346   1.511  18.229  1.3551 -2.7761 -0.1009
 4026TIP3   OH236272   2.322   3.759  18.285  0.4311 -0.0306  0.6027
 4026TIP3    H136273   2.390   3.701  18.251  0.5172 -0.4401  1.4516
 4026TIP3    H236274   2.369   3.838  18.312  0.0504  1.5657 -2.8441
 4027TIP3   OH236275   2.956   0.632  17.227 -0.4807 -0.3436 -0.3566
 4027TIP3    H136276   3.025   0.599  17.170  1.1451 -0.1888  1.4100
 4027TIP3    H236277   2.879   0.582  17.204 -0.0339  0.0254 -2.9690
 4028TIP3   OH236278   6.496   0.886  16.510 -0.7108  0.3152 -0.1976
 4028TIP3    H136279   6.435   0.828  16.555  1.7012 -0.8577  1.7544
 4028TIP3    H236280   6.519   0.840  16.429  0.9742 -1.4457  1.2036
 4029TIP3   OH236281   2.579   7.278  18.444  0.2099 -0.3459 -0.9574
 4029TIP3    H136282   2.560   7.184  18.442  1.3137 -0.5985 -0.4873
 4029TIP3    H236283   2.585   7.299  18.537  1.4112 -0.1363 -1.0605
 4030TIP3   OH236284   6.244   5.991  17.251 -0.4296  0.4250 -0.2301
 4030TIP3    H136285   6.187   5.934  17.303  0.3161  1.8197  2.2535
 4030TIP3    H236286   6.288   5.931  17.191 -0.2550 -1.5432  1.7401
 4031TIP3   OH236287   7.135   3.840  18.460 -0.1480  0.2278  0.1311
 4031TIP3    H136288   7.166   3.846  18.370 -0.2988  0.0061  0.0661
 4031TIP3    H236289   7.081   3.918  18.472 -0.1246  0.2588  0.0320
 4032TIP3   OH236290   0.885   3.305  15.659  0.1544 -0.1294  0.0927
 4032TIP3    H136291   0.965   3.356  15.670 -0.2849  0.3444  1.1815
 4032TIP3    H236292   0.913   3.226  15.613  1.1934  0.1634  0.2013
 4033TIP3   OH236293   0.754   3.122  16.379 -0.4904  0.0569  0.3156
 4033TIP3    H136294   0.686   3.127  16.446 -1.1282  1.2722 -0.3766
 4033TIP3    H236295   0.832   3.158  16.421 -0.7178  0.2266  0.5981
 4034TIP3   OH236296   1.345   2.962  17.237  0.2419 -0.0938 -0.0886
 4034TIP3    H136297   1.278   2.982  17.172  0.8269  1.2000 -0.3215
 4034TIP3    H236298   1.337   3.031  17.303  0.0836 -1.0240  0.8802
 4035TIP3   OH236299   7.594   3.716  18.559  0.4495  0.0262 -0.1555
 4035TIP3    H136300   7.582   3.771  18.636  0.9613 -0.9785  0.6614
 4035TIP3    H236301   7.556   3.767  18.487 -0.3239  0.8425  0.7996
 4036TIP3   OH236302   5.102   0.895  17.814 -0.5290 -0.2350  0.2303
 4036TIP3    H136303   5.055   0.948  17.750 -1.4275 -1.9096 -0.5530
 4036TIP3    H236304   5.056   0.910  17.896 -0.3019  0.7643  0.1859
 4037TIP3   OH236305   6.154   6.617  17.513  0.3985  0.1586 -0.6246
 4037TIP3    H136306   6.190   6.626  17.601  0.3985  1.3794 -0.7397
 4037TIP3    H236307   6.213   6.667  17.457 -0.1565  0.2059 -1.1742
 4038TIP3   OH236308   0.129   1.239  18.669  0.1445 -0.2381  0.0758
 4038TIP3    H136309   0.033   1.237  18.671  0.1490 -0.5808  2.0227
 4038TIP3    H236310   0.152   1.324  18.706  0.5878 -0.1706 -0.3520
 4039TIP3   OH236311   2.530   0.607  16.718 -0.2450 -0.6869  0.1565
 4039TIP3    H136312   2.494   0.599  16.806 -0.6506 -1.5567 -0.0738
 4039TIP3    H236313   2.455   0.627  16.663 -0.0130 -0.2725 -0.0122
 4040TIP3   OH236314   0.753   7.023  16.559 -0.4233 -0.2597 -0.1475
 4040TIP3    H136315   0.810   6.965  16.509 -0.6720  0.5584 -1.4280
 4040TIP3    H236316   0.736   7.096  16.500  0.6172  1.5946  1.7300
 4041TIP3   OH236317   2.262   3.895  16.412  0.7035 -0.0339  0.2429
 4041TIP3    H136318   2.287   3.839  16.486 -1.1069 -2.0601 -0.5553
 4041TIP3    H236319   2.217   3.836  16.352  1.0554  1.7960 -1.9500
 4042TIP3   OH236320   5.027   2.777  18.980  0.2357 -0.0237 -0.1693
 4042TIP3    H136321   5.022   2.758  19.074 -1.6752  1.7930  0.1763
 4042TIP3    H236322   4.979   2.705  18.939  0.8368 -0.6785  0.2572
 4043TIP3   OH236323   3.485   2.343  17.925 -0.5821 -0.2006  0.1380
 4043TIP3    H136324   3.578   2.345  17.946 -0.2098  1.3863 -1.4488
 4043TIP3    H236325   3.480   2.308  17.836 -1.1832  2.2926 -0.9032
 4044TIP3   OH236326   7.547   3.325  17.978 -0.0350 -0.2236 -0.2715
 4044TIP3    H136327   7.511   3.400  17.931  0.4605 -0.8206 -1.6640
 4044TIP3    H236328   7.494   3.251  17.949  0.3658 -0.6276  0.0149
 4045TIP3   OH236329   7.036   5.134  16.793  0.3622 -0.1607 -0.2251
 4045TIP3    H136330   7.059   5.044  16.772  0.2765 -0.3702  0.5388
 4045TIP3    H236331   7.041   5.180  16.709 -0.0029 -0.9551 -0.6951
 4046TIP3   OH236332   4.205   2.960  17.045  0.2693  0.3231  0.4660
 4046TIP3    H136333   4.231   2.928  16.959 -1.2934  0.6675 -0.1749
 4046TIP3    H236334   4.231   2.891  17.106  1.5553  0.1594 -0.2511
 4047TIP3   OH236335   2.833   5.872  17.858  0.1749 -0.0371 -0.1500
 4047TIP3    H136336   2.852   5.920  17.939 -0.9115 -0.4483  0.3706
 4047TIP3    H236337   2.763   5.811  17.882  0.1613 -0.4966 -1.2887
 4048TIP3   OH236338   4.867   7.611  17.350  0.6550  0.2833  0.1160
 4048TIP3    H136339   4.930   7.683  17.352  0.4452  0.5811 -1.9152
 4048TIP3    H236340   4.910   7.540  17.398  1.4582  1.3017  0.9376
 4049TIP3   OH236341   6.190   2.184  17.959 -0.0791 -0.1682 -0.4373
 4049TIP3    H136342   6.275   2.223  17.936 -1.3671  1.6803 -2.5081
 4049TIP3    H236343   6.199   2.091  17.935  0.7049  0.4525 -2.8181
 4050TIP3   OH236344   1.858   4.989  17.058 -0.3282  0.1251 -0.4346
 4050TIP3    H136345   1.950   4.964  17.056 -0.9051 -2.1650 -1.9391
 4050TIP3    H236346   1.817   4.923  17.115 -1.3996 -0.4197 -1.7951
 4051TIP3   OH236347   1.565   6.087  17.132 -0.5622 -0.6740  0.1535
 4051TIP3    H136348   1.546   6.064  17.223 -2.5232  0.2650  0.0326
 4051TIP3    H236349   1.544   6.180  17.126 -0.0580 -0.6242 -1.1813
 4052TIP3   OH236350   6.134   7.405  18.212  0.5040  0.4010  0.0566
 4052TIP3    H136351   6.052   7.360  18.234  0.3155  1.4399  1.6973
 4052TIP3    H236352   6.202   7.352  18.254  0.7435 -0.6321 -1.5642
 4053TIP3   OH236353   5.499   4.344  16.462  0.1103 -0.3725  0.4294
 4053TIP3    H136354   5.481   4.287  16.387  0.4287  1.5338 -1.1840
 4053TIP3    H236355   5.572   4.302  16.507  0.1233 -1.4057 -0.5044
 4054TIP3   OH236356   3.657   2.414  18.186 -0.0717  0.3455  0.3103
 4054TIP3    H136357   3.685   2.342  18.129 -0.6254  0.9190 -0.7258
 4054TIP3    H236358   3.630   2.372  18.267 -0.8417 -0.6794 -0.4527
 4055TIP3   OH236359   2.118   3.623  16.215  0.8864  0.2888 -0.7696
 4055TIP3    H136360   2.042   3.657  16.168  1.1733  0.6855 -0.9644
 4055TIP3    H236361   2.095   3.534  16.238  1.2945 -0.4546 -2.9845
 4056TIP3   OH236362   6.450   0.326  16.569 -0.4362  0.2061 -0.3166
 4056TIP3    H136363   6.521   0.263  16.560  0.4146  0.6470  2.3312
 4056TIP3    H236364   6.493   0.412  16.564 -1.0965  0.5142 -0.7867
 4057TIP3   OH236365   5.131   1.155  16.169 -0.2851  0.3234 -0.3611
 4057TIP3    H136366   5.201   1.112  16.120 -0.3805  0.2604 -0.4444
 4057TIP3    H236367   5.167   1.241  16.192  0.5824 -0.4303  1.3373
 4058TIP3   OH236368   0.574   4.696  18.563  0.2191  0.4066 -0.2550
 4058TIP3    H136369   0.618   4.657  18.638  0.0174 -0.5318 -0.6075
 4058TIP3    H236370   0.645   4.711  18.499  0.2986  0.6336 -0.1135
 4059TIP3   OH236371   1.151   6.634  15.878 -0.1150 -0.0121 -0.2676
 4059TIP3    H136372   1.098   6.708  15.908  0.6611  0.4893 -0.1246
 4059TIP3    H236373   1.090   6.581  15.826 -1.1008 -0.1341  0.9784
 4060TIP3   OH236374   2.621   6.081  17.369  0.4593  0.4052  0.7734
 4060TIP3    H136375   2.627   6.074  17.464 -0.5549  0.7634  0.8878
 4060TIP3    H236376   2.620   6.176  17.352 -1.6490  0.4090  0.6268
 4061TIP3   OH236377   5.679   0.629  18.411 -0.0588 -0.4724 -0.9441
 4061TIP3    H136378   5.652   0.595  18.496  0.5812 -1.7142 -1.2020
 4061TIP3    H236379   5.767   0.592  18.398 -0.1879 -0.3813 -2.1757
 4062TIP3   OH236380   6.018   5.470  19.048  0.0402 -0.3514 -0.0895
 4062TIP3    H136381   5.943   5.529  19.056  1.9668  2.3430 -0.5009
 4062TIP3    H236382   5.981   5.390  19.012 -2.3702  1.6510 -2.5433
 4063TIP3   OH236383   5.658   0.783  18.173 -0.3023  0.3196  0.5925
 4063TIP3    H136384   5.671   0.777  18.267 -0.8294 -0.1363  0.6410
 4063TIP3    H236385   5.709   0.860  18.146 -0.7940  0.9245  1.3668
 4064TIP3   OH236386   3.630   2.063  16.446 -0.5997 -0.5247  0.1659
 4064TIP3    H136387   3.564   2.023  16.389 -1.2089 -0.8660  1.0858
 4064TIP3    H236388   3.673   2.129  16.391  0.8880 -2.8197 -1.6348
 4065TIP3   OH236389   7.164   3.884  18.200  0.2683 -0.4745 -1.0291
 4065TIP3    H136390   7.173   3.968  18.155  1.4995 -0.0581 -0.0874
 4065TIP3    H236391   7.171   3.818  18.130 -0.5200  0.1867 -1.7506
 4066TIP3   OH236392   3.172   0.600  17.835  0.2100  0.1138  0.1762
 4066TIP3    H136393   3.138   0.680  17.873  0.8769  0.3261  0.3406
 4066TIP3    H236394   3.260   0.591  17.871  1.3445  0.9678 -2.1805
 4067TIP3   OH236395   3.664   2.786  17.795  0.2529  0.3457 -0.4730
 4067TIP3    H136396   3.606   2.753  17.726 -0.1083 -1.3942  0.6102
 4067TIP3    H236397   3.744   2.733  17.787  0.8832  1.2850 -0.6012
 4068TIP3   OH236398   3.863   7.053  16.338  0.7345  0.3073  0.4981
 4068TIP3    H136399   3.792   7.110  16.367 -0.5198 -1.3830  0.8833
 4068TIP3    H236400   3.920   7.111  16.286 -0.8590  1.7326  0.2394
 4069TIP3   OH236401   2.443   4.574  16.498 -0.7546 -0.6121 -0.1689
 4069TIP3    H136402   2.442   4.664  16.466  0.7318 -0.7607 -0.7057
 4069TIP3    H236403   2.471   4.522  16.423 -0.9558 -1.4554  0.3181
 4070TIP3   OH236404   5.339   4.846  16.822  0.1843  0.4934  0.3018
 4070TIP3    H136405   5.274   4.786  16.784  0.6642  0.7375 -0.9368
 4070TIP3    H236406   5.386   4.881  16.747  2.5351 -0.5325  1.2074
 4071TIP3   OH236407   0.889   7.078  16.960  0.2762 -0.1772  0.0542
 4071TIP3    H136408   0.877   7.167  16.929 -1.3636 -0.6664 -0.8886
 4071TIP3    H236409   0.896   7.086  17.055 -1.7103  0.8620  0.1784
 4072TIP3   OH236410   3.845   1.618  18.039 -0.1820 -0.0043  0.5738
 4072TIP3    H136411   3.924   1.602  18.091 -0.1457  0.7050  0.7461
 4072TIP3    H236412   3.774   1.613  18.103 -0.2209 -0.0197  0.5290
 4073TIP3   OH236413   2.001   4.423  18.475  0.8517 -0.0285 -0.2224
 4073TIP3    H136414   1.969   4.355  18.534  1.3980 -1.1163 -1.1370
 4073TIP3    H236415   2.036   4.490  18.534  2.1964 -1.4778  0.7215
 4074TIP3   OH236416   5.853   2.553  16.513  0.2958  0.1675 -1.1386
 4074TIP3    H136417   5.855   2.498  16.591 -1.4298  0.1260 -1.0834
 4074TIP3    H236418   5.899   2.502  16.447  1.2399 -0.0629 -0.3209
 4075TIP3   OH236419   7.245   5.246  18.863 -0.1069 -0.3393  0.0821
 4075TIP3    H136420   7.270   5.154  18.857  1.2727  0.0850 -1.3145
 4075TIP3    H236421   7.153   5.244  18.890 -0.6852 -2.1999 -1.7551
 4076TIP3   OH236422   1.239   2.840  16.127 -0.2043  0.1578  0.4317
 4076TIP3    H136423   1.207   2.752  16.109 -1.3234  0.5452  0.4456
 4076TIP3    H236424   1.312   2.827  16.187  0.8782 -0.8766 -1.0338
 4077TIP3   OH236425   7.421   6.703  16.399  0.1179 -0.1749 -0.2143
 4077TIP3    H136426   7.381   6.734  16.317 -0.5236  1.4416  0.6598
 4077TIP3    H236427   7.474   6.777  16.429  1.4176 -1.2262  0.1879
 4078TIP3   OH236428   0.356   2.195  18.102 -0.0335 -0.4706  0.1638
 4078TIP3    H136429   0.391   2.159  18.021 -0.1282  1.2288 -0.6841
 4078TIP3    H236430   0.280   2.246  18.075  0.2434  0.5714  1.2271
 4079TIP3   OH236431   1.842   2.974  18.089 -0.6315  0.5426  0.1196
 4079TIP3    H136432   1.902   2.901  18.100  0.8201  1.3743 -1.6381
 4079TIP3    H236433   1.875   3.042  18.149 -0.1714  0.7816 -0.3975
 4080TIP3   OH236434   4.533   6.700  17.120  0.5327  0.0435  0.0064
 4080TIP3    H136435   4.533   6.736  17.032  1.6341  1.6157  0.5902
 4080TIP3    H236436   4.441   6.697  17.145  0.0820 -1.7983 -1.6856
 4081TIP3   OH236437   5.260   7.279  17.282  0.2743  0.0679 -0.3718
 4081TIP3    H136438   5.330   7.313  17.339  0.9646  0.1242 -1.2241
 4081TIP3    H236439   5.300   7.203  17.239  0.0310  0.4765 -1.3395
 4082TIP3   OH236440   1.013   3.072  17.964  0.0314  0.3872 -0.2151
 4082TIP3    H136441   0.921   3.091  17.980  0.4416  1.1255  1.4947
 4082TIP3    H236442   1.021   2.978  17.981 -0.5763  0.1067 -1.3818
 4083TIP3   OH236443   7.402   4.976  17.061  0.2457 -0.2389  0.0554
 4083TIP3    H136444   7.348   4.897  17.060 -0.7133  0.2345  3.3960
 4083TIP3    H236445   7.491   4.944  17.077 -0.1266 -0.6970  1.3362
 4084TIP3   OH236446   7.356   7.219  17.996  0.3677 -0.0722 -0.5735
 4084TIP3    H136447   7.365   7.313  18.009 -1.2373  0.1732 -0.9664
 4084TIP3    H236448   7.281   7.211  17.936 -0.0636 -1.6244  0.1350
 4085TIP3   OH236449   6.119   3.472  18.786  0.7699  0.3678  0.3679
 4085TIP3    H136450   6.031   3.492  18.817 -0.2270 -0.2873 -1.8168
 4085TIP3    H236451   6.141   3.388  18.826 -0.2029 -0.1527 -0.1632
 4086TIP3   OH236452   1.071   2.808  17.997 -0.1517  0.2776 -0.0552
 4086TIP3    H136453   1.144   2.820  18.058 -1.0181 -0.3572  1.1678
 4086TIP3    H236454   1.077   2.716  17.972 -0.7948  0.1027  0.4197
 4087TIP3   OH236455   4.474   0.278  19.044  0.6651  0.1044  0.2583
 4087TIP3    H136456   4.476   0.182  19.048 -1.1256  0.0805  1.6856
 4087TIP3    H236457   4.408   0.304  19.108 -0.4707  2.2006 -1.6035
 4088TIP3   OH236458   7.619   4.123  18.652  0.4558  0.3434 -0.4347
 4088TIP3    H136459   7.648   4.174  18.728 -0.3880 -0.0368  0.1707
 4088TIP3    H236460   7.535   4.162  18.628 -0.5562 -1.1400  0.4799
 4089TIP3   OH236461   3.583   1.922  18.453 -0.4300 -0.1876 -0.1346
 4089TIP3    H136462   3.638   1.844  18.460  0.0018  0.0044 -1.1656
 4089TIP3    H236463   3.496   1.893  18.480  0.1830 -0.4603  1.6548
 4090TIP3   OH236464   2.902   4.212  16.298 -0.2632 -0.0520 -0.3284
 4090TIP3    H136465   2.884   4.133  16.246  1.9926 -1.9808  1.5673
 4090TIP3    H236466   2.979   4.251  16.258 -0.7358  0.6095 -0.6145
 4091TIP3   OH236467   7.174   4.593  19.078 -0.0194 -0.4074  0.4462
 4091TIP3    H136468   7.182   4.501  19.051 -1.9180 -0.5768  0.3443
 4091TIP3    H236469   7.082   4.603  19.101 -0.3133  1.9613 -1.3821
 4092TIP3   OH236470   2.097   1.728  17.976 -0.0536 -0.6219  0.0394
 4092TIP3    H136471   2.045   1.691  18.047 -0.3866 -0.0909  0.0770
 4092TIP3    H236472   2.048   1.805  17.948  1.5560  0.8819  1.1922
 4093TIP3   OH236473   6.448   5.022  19.225 -0.7319  0.0785 -0.3518
 4093TIP3    H136474   6.445   5.030  19.130  1.3094 -0.1307 -0.4884
 4093TIP3    H236475   6.490   5.103  19.255 -1.8926  0.4129  0.4470
 4094TIP3   OH236476   7.244   0.555  17.887 -0.0663  0.1996 -0.2827
 4094TIP3    H136477   7.156   0.524  17.911  0.1598  0.0367  0.3485
 4094TIP3    H236478   7.285   0.480  17.844 -0.3410  0.3701 -0.8436
 4095TIP3   OH236479   5.680   3.511  17.668 -0.0002  0.1647 -0.3219
 4095TIP3    H136480   5.654   3.419  17.659 -0.1175  0.3967 -3.3576
 4095TIP3    H236481   5.772   3.508  17.693 -0.1675 -0.7619  0.2345
 4096TIP3   OH236482   4.740   0.107  17.802  0.0036 -0.5428  0.2464
 4096TIP3    H136483   4.748   0.150  17.887  0.6579  0.1484 -0.1537
 4096TIP3    H236484   4.676   0.037  17.816 -0.0311 -0.3183  1.2552
 4097TIP3   OH236485   4.967   4.929  17.600  0.7024  0.0887 -0.6100
 4097TIP3    H136486   5.021   4.867  17.649 -1.1908 -0.2107  1.2413
 4097TIP3    H236487   4.976   5.012  17.648 -1.6746 -0.3584  0.7849
 4098TIP3   OH236488   2.324   1.801  18.922  0.2766  0.4707 -0.1244
 4098TIP3    H136489   2.297   1.737  18.858  0.4081 -0.7883  1.0377
 4098TIP3    H236490   2.420   1.795  18.923  0.2550  0.1014  0.5415
 4099TIP3   OH236491   5.862   5.162  17.882  0.2827  0.0255  0.1846
 4099TIP3    H136492   5.793   5.097  17.867  1.4852 -1.0164 -1.0597
 4099TIP3    H236493   5.909   5.130  17.960  1.4834 -1.2090 -0.9885
 4100TIP3   OH236494   6.115   2.019  16.056 -0.1321  0.2075  0.0970
 4100TIP3    H136495   6.150   1.976  15.977 -1.5194 -0.2432 -0.3124
 4100TIP3    H236496   6.141   1.961  16.127  2.2505  1.2685  0.2005
 4101TIP3   OH236497   7.531   2.416  16.719  0.2764  0.0216  0.4160
 4101TIP3    H136498   7.533   2.432  16.814  0.1408  0.5110  0.3415
 4101TIP3    H236499   7.623   2.419  16.692  0.5321 -2.1155  0.8326
 4102TIP3   OH236500   2.069   5.630  17.314  0.3603 -0.2655  0.4774
 4102TIP3    H136501   2.035   5.607  17.228 -0.0020  0.1119  0.5186
 4102TIP3    H236502   2.051   5.554  17.369  1.7818 -1.0595 -0.0890
 4103TIP3   OH236503   1.647   5.912  18.819 -0.3145  1.1187 -0.2293
 4103TIP3    H136504   1.731   5.930  18.861 -0.3891 -2.4534  1.8948
 4103TIP3    H236505   1.669   5.899  18.727  1.5384  0.1504  0.3010
 4104TIP3   OH236506   3.996   2.109  18.613  0.0541  0.0443 -0.2539
 4104TIP3    H136507   3.905   2.096  18.639 -0.3542  0.6613 -1.3146
 4104TIP3    H236508   4.044   2.116  18.696 -1.2348  2.3004  0.4008
 4105TIP3   OH236509   5.690   1.433  17.435 -0.2676  0.0161 -0.1986
 4105TIP3    H136510   5.739   1.453  17.515  0.5082 -1.0515 -0.3989
 4105TIP3    H236511   5.672   1.340  17.440 -1.0877  0.1328 -0.8043
 4106TIP3   OH236512   2.183   4.179  16.181  0.4049 -0.0154 -0.5189
 4106TIP3    H136513   2.265   4.136  16.206  0.4414  0.8257  0.9536
 4106TIP3    H236514   2.203   4.273  16.186 -0.8984  0.2236  0.8527
 4107TIP3   OH236515   1.362   2.239  17.899  0.1352 -0.1940 -0.1262
 4107TIP3    H136516   1.303   2.184  17.848  0.7859 -3.1621  2.0301
 4107TIP3    H236517   1.350   2.210  17.990  2.7935  1.0693  0.7544
 4108TIP3   OH236518   4.972   6.439  16.245 -0.2354  0.4226 -0.3619
 4108TIP3    H136519   4.967   6.448  16.149 -0.1448 -0.0288 -0.4096
 4108TIP3    H236520   4.932   6.519  16.278 -1.1621  0.1459 -0.7748
 4109TIP3   OH236521   5.552   2.058  18.507  0.2409 -0.4402 -0.3740
 4109TIP3    H136522   5.543   1.966  18.531  2.3804 -0.2530  1.5052
 4109TIP3    H236523   5.592   2.057  18.421 -1.7427 -1.2027 -1.3434
 4110TIP3   OH236524   5.757   2.665  16.957 -0.4537  0.1790  0.0436
 4110TIP3    H136525   5.736   2.745  16.908 -0.5389  1.0870  1.5074
 4110TIP3    H236526   5.672   2.626  16.977 -0.4248 -0.0896 -0.3316
 4111TIP3   OH236527   4.134   7.182  17.196  0.7876 -0.4216  0.1702
 4111TIP3    H136528   4.181   7.178  17.113  0.4246  1.8346 -0.1985
 4111TIP3    H236529   4.043   7.198  17.171  0.5420 -0.4971  0.9864
 4112TIP3   OH236530   1.595   6.518  18.342  0.2185 -0.2060 -0.4082
 4112TIP3    H136531   1.647   6.454  18.390  0.6580 -0.3530 -1.0646
 4112TIP3    H236532   1.555   6.573  18.409  0.7723 -0.4438  0.1177
 4113TIP3   OH236533   3.234   2.751  17.802  0.1112 -0.6132 -0.0344
 4113TIP3    H136534   3.185   2.728  17.723  1.3663  0.1210 -1.0584
 4113TIP3    H236535   3.269   2.667  17.833 -0.6459 -0.9484 -0.0570
 4114TIP3   OH236536   5.453   5.604  17.717 -0.2174  0.2418 -0.1102
 4114TIP3    H136537   5.372   5.592  17.767  0.2957  2.3151  1.3500
 4114TIP3    H236538   5.521   5.567  17.774  0.1150  0.5696 -0.2935
 4115TIP3   OH236539   3.008   5.737  17.506  0.2235  0.1112 -0.2870
 4115TIP3    H136540   2.937   5.679  17.478  0.1233 -0.1569  0.5138
 4115TIP3    H236541   2.982   5.824  17.476  0.8527 -0.3613 -2.4341
 4116TIP3   OH236542   1.681   5.371  17.690  0.3147 -0.6938 -0.4036
 4116TIP3    H136543   1.601   5.349  17.737 -0.7259  1.9459 -0.7616
 4116TIP3    H236544   1.676   5.319  17.610 -0.6789 -1.1299 -0.0726
 4117TIP3   OH236545   3.119   5.758  18.523 -0.1139  0.1461  0.3578
 4117TIP3    H136546   3.115   5.793  18.613  0.1820 -2.0094  1.2657
 4117TIP3    H236547   3.106   5.664  18.534 -0.7529 -0.0829 -1.9621
 4118TIP3   OH236548   7.484   3.800  17.839 -0.2149 -1.1403 -0.0466
 4118TIP3    H136549   7.475   3.786  17.933  0.0721  1.7378  0.4991
 4118TIP3    H236550   7.553   3.865  17.830 -1.7890  0.4027 -2.0516
 4119TIP3   OH236551   0.764   4.839  18.138 -0.1315  0.2277  0.3291
 4119TIP3    H136552   0.767   4.935  18.145 -2.6747  0.3222  1.0770
 4119TIP3    H236553   0.679   4.820  18.100  1.1604 -1.7312 -1.8482
 4120TIP3   OH236554   6.868   6.452  16.551 -0.0188  0.1905  0.2807
 4120TIP3    H136555   6.910   6.373  16.515  0.3919  0.6659 -0.3008
 4120TIP3    H236556   6.905   6.524  16.500  0.3501  0.8603  1.4517
 4121TIP3   OH236557   4.790   3.214  18.715  0.3078 -0.1629 -0.2214
 4121TIP3    H136558   4.846   3.267  18.659  1.3467 -2.0147 -1.0440
 4121TIP3    H236559   4.830   3.219  18.801  0.7315 -0.0540 -0.4222
 4122TIP3   OH236560   4.041   4.213  18.685  1.0745  0.4708 -0.6213
 4122TIP3    H136561   4.007   4.130  18.650 -1.8425  0.3527  2.0519
 4122TIP3    H236562   4.012   4.279  18.622  0.5359 -0.2255 -1.1154
 4123TIP3   OH236563   7.109   4.341  18.196  0.3432  0.1914 -0.1145
 4123TIP3    H136564   7.019   4.355  18.166  0.5757 -2.5196 -2.4386
 4123TIP3    H236565   7.160   4.406  18.147 -0.0495  0.0120 -0.7713
 4124TIP3   OH236566   0.289   4.244  18.392 -0.4816 -0.2439 -0.4428
 4124TIP3    H136567   0.366   4.196  18.364 -0.4022 -0.5813  0.3235
 4124TIP3    H236568   0.221   4.221  18.328 -0.2461 -0.8109 -0.4934
 4125TIP3   OH236569   1.570   1.877  18.698 -0.1127 -0.1577 -0.4852
 4125TIP3    H136570   1.649   1.865  18.750 -0.7832  0.4630  0.7416
 4125TIP3    H236571   1.512   1.805  18.725 -0.5734  0.3323 -0.1312
 4126TIP3   OH236572   3.404   4.255  18.307  0.7324 -0.1409 -0.1249
 4126TIP3    H136573   3.491   4.261  18.269  0.0518  1.1649 -1.5927
 4126TIP3    H236574   3.414   4.198  18.383  3.1590  1.1527  0.6089
 4127TIP3   OH236575   6.793   5.700  17.643 -0.3383  0.4948  0.2602
 4127TIP3    H136576   6.877   5.657  17.657 -0.9810 -1.0840 -0.4916
 4127TIP3    H236577   6.737   5.667  17.714 -1.0739 -0.5942 -0.8043
 4128TIP3   OH236578   2.193   1.951  17.748 -0.0366  0.6884  0.5313
 4128TIP3    H136579   2.140   1.958  17.668 -0.8950  1.2297  1.1396
 4128TIP3    H236580   2.159   2.019  17.806  0.4295  0.1477  1.4556
 4129TIP3   OH236581   5.330   6.518  17.677 -0.1558 -0.4163 -0.2553
 4129TIP3    H136582   5.300   6.566  17.599 -0.3094  3.0786  1.7618
 4129TIP3    H236583   5.425   6.533  17.679 -0.3354  0.6895  0.9030
 4130TIP3   OH236584   1.708   1.215  16.805 -0.1468 -0.2323  0.2464
 4130TIP3    H136585   1.712   1.123  16.779  0.6592 -0.3657  0.8037
 4130TIP3    H236586   1.776   1.224  16.872 -1.0248  0.4931  1.0746
 4131TIP3   OH236587   2.832   3.322  16.578  0.3041  0.4454 -0.0822
 4131TIP3    H136588   2.783   3.386  16.526  0.0707  1.3381  1.1810
 4131TIP3    H236589   2.767   3.258  16.605  0.4558 -0.1128 -0.9838
 4132TIP3   OH236590   2.440   4.463  16.756 -0.7031  0.1108 -0.3990
 4132TIP3    H136591   2.414   4.533  16.696 -0.7630 -1.2287 -2.0305
 4132TIP3    H236592   2.522   4.493  16.795 -1.1546  1.4247 -0.4061
 4133TIP3   OH236593   6.925   0.209  16.294 -0.4583  0.0395 -0.3925
 4133TIP3    H136594   6.907   0.271  16.365  0.0587 -2.2074  1.8321
 4133TIP3    H236595   6.880   0.129  16.320  0.7424 -1.2320 -2.0285
 4134TIP3   OH236596   5.063   4.789  17.837 -0.0396 -0.0047 -0.2521
 4134TIP3    H136597   5.159   4.781  17.833  0.2334  2.7841 -1.4422
 4134TIP3    H236598   5.030   4.710  17.795  1.7138 -1.0033  0.1521
 4135TIP3   OH236599   3.994   1.638  16.616  0.4034  0.2523 -0.7365
 4135TIP3    H136600   3.982   1.616  16.708  0.0429 -0.1796 -0.8855
 4135TIP3    H236601   4.089   1.631  16.602  0.4075 -0.1830 -0.5222
 4136TIP3   OH236602   6.196   7.404  17.620  0.3676 -0.2280  0.4645
 4136TIP3    H136603   6.241   7.371  17.542  0.2273  1.3619 -0.3023
 4136TIP3    H236604   6.235   7.490  17.636  0.6964 -0.6921  2.4102
 4137TIP3   OH236605   4.257   7.243  16.473 -0.1013 -0.0007  0.1998
 4137TIP3    H136606   4.221   7.313  16.418  0.1340 -0.6667 -0.8300
 4137TIP3    H236607   4.342   7.224  16.434 -0.1733 -0.8773  0.4647
 4138TIP3   OH236608   7.618   6.371  18.574 -0.0382  0.4350  0.1054
 4138TIP3    H136609   7.689   6.324  18.530  1.8651  2.4178  0.8812
 4138TIP3    H236610   7.635   6.357  18.667 -1.4294 -0.0676  0.2980
 4139TIP3   OH236611   2.074   5.308  17.459 -0.2010 -0.3060 -0.1654
 4139TIP3    H136612   2.063   5.213  17.468 -2.1773 -0.4426 -2.9961
 4139TIP3    H236613   2.165   5.318  17.431 -0.2084 -1.4417 -0.6547
 4140TIP3   OH236614   3.396   6.792  18.628 -0.2354 -0.0986 -0.1352
 4140TIP3    H136615   3.369   6.710  18.670 -1.1113 -0.8239 -2.0038
 4140TIP3    H236616   3.475   6.770  18.579 -1.1553 -0.1787 -1.6388
 4141TIP3   OH236617   7.028   4.827  18.125  0.1723  0.4987 -0.3473
 4141TIP3    H136618   7.020   4.740  18.085  0.6398  0.8900 -1.3349
 4141TIP3    H236619   7.114   4.827  18.166 -0.1233  0.2523  0.2828
 4142TIP3   OH236620   4.089   0.647  17.586  0.6359  0.1311 -0.6119
 4142TIP3    H136621   4.155   0.708  17.550  0.0976  0.5718 -0.8706
 4142TIP3    H236622   4.086   0.668  17.679  0.1667  0.7811 -0.7683
 4143TIP3   OH236623   2.151   7.566  17.243 -0.1673  0.7004  0.2543
 4143TIP3    H136624   2.104   7.544  17.162 -0.9811 -1.0067  1.1536
 4143TIP3    H236625   2.236   7.522  17.234  0.1256  1.3112 -0.0638
 4144TIP3   OH236626   4.478   3.274  16.940  0.2250  0.1308  0.2808
 4144TIP3    H136627   4.448   3.268  16.849 -0.9335 -0.5723  0.6977
 4144TIP3    H236628   4.487   3.368  16.956 -1.8157  0.3932  0.1351
 4145TIP3   OH236629   6.346   0.153  18.232 -0.3888 -0.6575  0.6510
 4145TIP3    H136630   6.327   0.099  18.309  2.1174 -1.8869  0.4931
 4145TIP3    H236631   6.401   0.097  18.177 -0.4355  0.9348 -1.0906
 4146TIP3   OH236632   1.127   6.778  17.319  0.1766  0.3222  0.3191
 4146TIP3    H136633   1.143   6.688  17.346 -0.7297  0.1806  0.4277
 4146TIP3    H236634   1.040   6.776  17.279  0.1324  1.1507  0.3483
 4147TIP3   OH236635   7.440   1.085  17.449 -0.7394  0.3244  0.5504
 4147TIP3    H136636   7.381   1.018  17.415  0.1748  0.1863 -0.8445
 4147TIP3    H236637   7.437   1.155  17.383 -0.6626  1.0864  1.3259
 4148TIP3   OH236638   7.544   6.364  17.384 -0.4396  0.7192  0.4014
 4148TIP3    H136639   7.490   6.301  17.431 -0.5799  1.3469  1.0926
 4148TIP3    H236640   7.548   6.329  17.295 -0.8924 -0.0235  0.6599
 4149TIP3   OH236641   7.295   2.089  16.282  0.1916 -0.2769 -0.8424
 4149TIP3    H136642   7.323   2.119  16.195  2.3008  0.8404  0.1638
 4149TIP3    H236643   7.207   2.126  16.292  0.7033  1.2935 -1.7211
 4150TIP3   OH236644   0.733   5.347  16.925 -0.1330 -0.2011 -0.1116
 4150TIP3    H136645   0.775   5.347  17.010  1.2450 -1.5224 -0.7359
 4150TIP3    H236646   0.642   5.325  16.943  0.0999 -0.2555  1.0279
 4151TIP3   OH236647   3.335   4.525  18.198  0.1931  0.0140  0.1472
 4151TIP3    H136648   3.348   4.431  18.206 -0.9414 -0.0698  1.4051
 4151TIP3    H236649   3.309   4.553  18.286 -1.8547  1.0858 -0.7322
 4152TIP3   OH236650   7.595   0.521  17.421  0.3636  0.5401 -0.3650
 4152TIP3    H136651   7.583   0.609  17.386 -0.9580  0.3952 -0.3276
 4152TIP3    H236652   7.670   0.486  17.373 -0.6213  0.8014 -2.1722
 4153TIP3   OH236653   1.383   3.548  17.408  0.3082 -0.2016  0.2473
 4153TIP3    H136654   1.422   3.467  17.440  2.9132  0.9983  0.3911
 4153TIP3    H236655   1.338   3.524  17.327 -1.0198 -2.1415  1.4599
 4154TIP3   OH236656   0.868   1.185  18.340  0.7242 -0.2773  0.7914
 4154TIP3    H136657   0.781   1.147  18.330 -0.2647  2.1123 -0.5386
 4154TIP3    H236658   0.853   1.280  18.343  3.3366  0.2860 -0.3660
 4155TIP3   OH236659   1.633   2.400  16.786  0.3669  0.0982 -0.1637
 4155TIP3    H136660   1.657   2.315  16.749  0.6492  0.7157 -1.4331
 4155TIP3    H236661   1.542   2.389  16.813  0.6546 -0.8602  0.4690
 4156TIP3   OH236662   6.458   1.821  16.687 -0.0565 -0.4303 -0.5172
 4156TIP3    H136663   6.549   1.800  16.666  0.1873 -0.2898  0.3709
 4156TIP3    H236664   6.412   1.811  16.603  0.8324 -0.1288 -1.0656
 4157TIP3   OH236665   1.618   5.567  16.107 -0.0266  0.0526  0.0835
 4157TIP3    H136666   1.675   5.643  16.111 -1.3038  1.1095 -0.9375
 4157TIP3    H236667   1.673   5.496  16.074  0.3716  1.4003 -2.3639
 4158TIP3   OH236668   7.304   0.777  18.033 -0.8481  0.3806 -0.0872
 4158TIP3    H136669   7.337   0.839  17.969  2.3146 -1.3291 -0.2849
 4158TIP3    H236670   7.287   0.698  17.984 -2.1286  0.1961  0.6075
 4159TIP3   OH236671   4.555   1.765  17.670 -0.6091 -0.0581 -0.4714
 4159TIP3    H136672   4.503   1.686  17.652  1.1431 -1.5399  0.5849
 4159TIP3    H236673   4.640   1.731  17.698  0.1081  2.2433  0.3210
 4160TIP3   OH236674   2.437   4.073  16.288 -0.0565 -0.1962 -0.1515
 4160TIP3    H136675   2.529   4.047  16.302  0.0370 -0.8752 -1.8142
 4160TIP3    H236676   2.386   4.000  16.323  0.1278 -1.1536 -1.8196
 4161TIP3   OH236677   2.428   2.318  17.269 -0.4020  0.2074 -0.1354
 4161TIP3    H136678   2.473   2.344  17.349  0.9222 -0.5555 -0.6182
 4161TIP3    H236679   2.399   2.401  17.230  2.5369  0.9723 -0.9448
 4162TIP3   OH236680   0.656   2.373  18.198  0.0523  0.3741  0.6865
 4162TIP3    H136681   0.744   2.351  18.229  0.3224  0.7164  0.1692
 4162TIP3    H236682   0.644   2.318  18.120 -0.0618  0.5719  0.5647
 4163TIP3   OH236683   7.279   0.347  16.828 -0.3407  0.5861 -0.3680
 4163TIP3    H136684   7.235   0.388  16.753 -0.8659  0.6045 -0.0561
 4163TIP3    H236685   7.214   0.286  16.863 -0.0749  0.5352  0.0346
 4164TIP3   OH236686   4.342   1.861  18.776 -0.1468  0.0248  0.1894
 4164TIP3    H136687   4.326   1.925  18.707  0.2071  0.3088  0.3639
 4164TIP3    H236688   4.433   1.834  18.763  0.6728  1.7336  1.8485
 4165TIP3   OH236689   4.087   4.417  18.848  0.9833 -0.1079 -0.2478
 4165TIP3    H136690   3.998   4.448  18.870  0.7493 -0.5032 -0.6312
 4165TIP3    H236691   4.073   4.338  18.797  1.5602 -0.0488 -0.5030
 4166TIP3   OH236692   7.411   5.461  18.752  0.6937 -0.2060  0.1929
 4166TIP3    H136693   7.450   5.391  18.699 -0.3836 -0.1459 -0.7103
 4166TIP3    H236694   7.330   5.423  18.786  1.7951 -0.5664  2.6363
 4167TIP3   OH236695   0.333   0.263  16.724 -0.0492  0.0789 -0.5979
 4167TIP3    H136696   0.386   0.226  16.794 -0.0958  2.0833  0.5784
 4167TIP3    H236697   0.394   0.274  16.651  0.6086  0.1998 -0.0383
 4168TIP3   OH236698   4.347   1.204  18.746  0.3492  0.3423  0.0038
 4168TIP3    H136699   4.346   1.272  18.813 -0.3804  0.1352  0.2211
 4168TIP3    H236700   4.384   1.246  18.669 -0.5096  1.1153  0.0006
 4169TIP3   OH236701   5.621   0.838  17.483  0.5528  0.4608  0.7930
 4169TIP3    H136702   5.703   0.861  17.527 -0.5251  0.4253  2.9266
 4169TIP3    H236703   5.554   0.847  17.550 -1.1935  0.2650 -0.8354
 4170TIP3   OH236704   7.030   5.332  17.936 -0.7437 -0.0773 -0.7028
 4170TIP3    H136705   7.020   5.362  18.026 -0.0847 -0.6725 -0.4217
 4170TIP3    H236706   6.982   5.250  17.932 -1.4741  0.3565 -1.1291
 4171TIP3   OH236707   5.315   0.781  17.521  0.5137  0.1987  0.1125
 4171TIP3    H136708   5.359   0.702  17.488  1.3230  0.1928  1.1870
 4171TIP3    H236709   5.297   0.832  17.442  1.1378 -0.4736 -0.4834
 4172TIP3   OH236710   7.156   2.032  16.987 -0.1317 -0.2032  0.5053
 4172TIP3    H136711   7.083   2.003  16.932  0.4166 -0.9215  0.1422
 4172TIP3    H236712   7.234   1.997  16.944  0.2859 -1.0819  1.9143
 4173TIP3   OH236713   0.070   7.190  16.488 -0.3251  0.7237  0.0188
 4173TIP3    H136714   0.070   7.251  16.413 -0.3905  0.8503  0.1220
 4173TIP3    H236715   0.158   7.153  16.488 -0.8932 -0.7407 -1.3153
 4174TIP3   OH236716   0.931   4.627  18.855  0.8722 -0.5570  0.3089
 4174TIP3    H136717   0.844   4.604  18.820  1.3024 -0.4857 -0.8634
 4174TIP3    H236718   0.929   4.722  18.864  1.2449 -0.4048 -0.9696
 4175TIP3   OH236719   1.055   2.992  16.300  0.1059  0.6022  0.1347
 4175TIP3    H136720   0.990   2.941  16.252  1.1651 -0.3511 -0.3311
 4175TIP3    H236721   1.124   3.010  16.236  1.0320  0.2463  0.9988
 4176TIP3   OH236722   4.552   5.755  18.413 -0.3121 -0.2804 -0.3882
 4176TIP3    H136723   4.586   5.841  18.437 -2.1144  0.6461 -0.9990
 4176TIP3    H236724   4.617   5.694  18.447  0.2804  1.2327  1.3918
 4177TIP3   OH236725   1.772   1.209  18.447 -0.0961 -0.2146  0.0197
 4177TIP3    H136726   1.696   1.188  18.393  0.0806 -1.0029  0.0725
 4177TIP3    H236727   1.847   1.192  18.391  0.0560  0.2310  0.0843
 4178TIP3   OH236728   3.715   4.337  17.862 -0.6944  0.3647  0.7152
 4178TIP3    H136729   3.695   4.249  17.829 -1.3255 -0.3326  2.8208
 4178TIP3    H236730   3.753   4.382  17.787  0.1933 -1.8848 -0.2845
 4179TIP3   OH236731   1.465   3.132  18.533 -0.5036  0.6647  0.3163
 4179TIP3    H136732   1.394   3.168  18.586  0.9072  0.8394  2.1714
 4179TIP3    H236733   1.463   3.038  18.549 -1.0569  0.4992 -0.6165
 4180TIP3   OH236734   6.411   6.625  16.863  0.3261 -0.4570  0.0671
 4180TIP3    H136735   6.361   6.699  16.827 -2.6624 -1.3334  1.9875
 4180TIP3    H236736   6.501   6.641  16.837 -0.4632  2.9527 -1.0384
 4181TIP3   OH236737   3.930   1.710  16.246  0.2925  0.3578 -0.1488
 4181TIP3    H136738   3.860   1.645  16.245  1.7129 -1.2524  0.1301
 4181TIP3    H236739   3.892   1.787  16.204 -1.8580 -0.1930  0.6729
 4182TIP3   OH236740   1.149   3.949  16.923 -0.4174  0.1096  0.5593
 4182TIP3    H136741   1.092   3.997  16.984  0.9454 -0.2479  2.1801
 4182TIP3    H236742   1.111   3.861  16.919  0.0042 -0.1337  1.6473
 4183TIP3   OH236743   6.039   6.992  18.245 -0.3157  0.3488 -0.5085
 4183TIP3    H136744   6.132   7.016  18.246 -1.2403  4.8040  1.2877
 4183TIP3    H236745   6.031   6.924  18.312  1.3806  1.4822  0.9399
 4184TIP3   OH236746   2.254   0.916  17.616 -0.0413 -0.6324  0.6415
 4184TIP3    H136747   2.324   0.929  17.551 -1.9489 -1.3657 -1.7059
 4184TIP3    H236748   2.291   0.852  17.677  0.3150 -3.7200 -2.4623
 4185TIP3   OH236749   2.529   1.479  16.743 -0.1918  0.0994 -0.2058
 4185TIP3    H136750   2.602   1.439  16.695  0.6159  1.4685 -0.1729
 4185TIP3    H236751   2.514   1.562  16.698  1.8334  2.3530  2.8942
 4186TIP3   OH236752   3.064   2.092  17.819 -0.2113  0.3646 -0.0430
 4186TIP3    H136753   3.112   2.174  17.809  1.1138 -0.3794  0.0532
 4186TIP3    H236754   3.020   2.080  17.735  0.0053  0.9030 -0.2396
 4187TIP3   OH236755   2.879   0.866  17.633 -0.1240 -0.2444 -0.8207
 4187TIP3    H136756   2.943   0.936  17.625 -1.4038  0.8627 -1.8296
 4187TIP3    H236757   2.807   0.904  17.683 -0.9664 -0.6997 -1.6366
 4188TIP3   OH236758   4.151   0.326  16.505 -0.3245  0.1580 -0.1612
 4188TIP3    H136759   4.201   0.334  16.586  1.8287 -2.2747 -1.0984
 4188TIP3    H236760   4.081   0.265  16.527  0.7834 -1.2160 -0.2545
 4189TIP3   OH236761   2.983   0.687  16.905 -0.0549  0.4843  0.1051
 4189TIP3    H136762   3.022   0.600  16.906  1.2887  1.0588 -0.3905
 4189TIP3    H236763   2.937   0.692  16.821  0.2824  0.4356 -0.0829
 4190TIP3   OH236764   0.582   0.233  17.421  0.2799 -0.4457  0.0813
 4190TIP3    H136765   0.596   0.240  17.516  2.7226 -1.0363 -0.1420
 4190TIP3    H236766   0.592   0.322  17.388  0.3327 -0.3669  0.3104
 4191TIP3   OH236767   2.640   6.946  17.326  0.2500 -0.0115  0.2081
 4191TIP3    H136768   2.644   7.023  17.383  0.5051 -0.4451  0.7814
 4191TIP3    H236769   2.715   6.892  17.352 -0.1308 -0.6242  0.0676
 4192TIP3   OH236770   5.774   7.028  16.357  0.4241 -0.3932  1.0307
 4192TIP3    H136771   5.808   7.078  16.431  1.8805 -0.6292  0.5469
 4192TIP3    H236772   5.737   7.094  16.298 -0.7686 -0.2069  1.9478
 4193TIP3   OH236773   7.444   0.091  17.075  0.2469  0.1373  0.2614
 4193TIP3    H136774   7.351   0.087  17.095  0.3040  0.4968  0.6101
 4193TIP3    H236775   7.483   0.021  17.128  0.0033 -0.9635 -0.9573
 4194TIP3   OH236776   2.330   5.327  17.602 -0.0761  0.0488  0.2940
 4194TIP3    H136777   2.402   5.330  17.665 -0.8059 -0.6973  1.1898
 4194TIP3    H236778   2.354   5.256  17.542 -0.4691 -0.8393  1.1431
 4195TIP3   OH236779   3.903   5.485  18.830 -0.1372 -0.1361 -0.8119
 4195TIP3    H136780   3.856   5.485  18.747 -0.3153 -0.2458 -0.7119
 4195TIP3    H236781   3.834   5.493  18.896 -0.1116 -1.5222 -0.5992
 4196TIP3   OH236782   7.270   7.120  16.882  0.3555 -0.1927 -0.1916
 4196TIP3    H136783   7.359   7.145  16.907  0.0043  1.2693 -0.3016
 4196TIP3    H236784   7.281   7.051  16.816  1.4325  0.6062 -0.8704
 4197TIP3   OH236785   3.043   0.658  18.864  0.4830 -0.2552  0.2061
 4197TIP3    H136786   3.084   0.688  18.945 -0.3381  0.9669  0.2047
 4197TIP3    H236787   3.080   0.716  18.797 -0.2847  0.0167  0.0145
 4198TIP3   OH236788   5.032   1.880  16.966  0.2104 -0.2127  0.4235
 4198TIP3    H136789   5.079   1.961  16.985 -0.4613  0.5602 -1.0137
 4198TIP3    H236790   5.098   1.811  16.973  1.2395  0.6855 -0.2213
 4199TIP3   OH236791   6.194   5.528  18.303  0.8013 -0.0940 -0.3976
 4199TIP3    H136792   6.155   5.603  18.257 -0.2672 -0.6061 -0.3511
 4199TIP3    H236793   6.142   5.453  18.274  2.2185 -0.9083 -0.8786
 4200TIP3   OH236794   4.267   7.383  18.307  0.0791 -0.1818  0.2984
 4200TIP3    H136795   4.182   7.369  18.265 -0.6973 -0.1704  1.7995
 4200TIP3    H236796   4.321   7.311  18.277 -0.8021 -0.7999  0.1477
 4201TIP3   OH236797   5.251   0.829  16.211  0.2818  0.5762 -0.0180
 4201TIP3    H136798   5.158   0.806  16.214  0.9142 -2.2222  1.5853
 4201TIP3    H236799   5.269   0.843  16.118 -1.1955 -1.4058 -0.6681
 4202TIP3   OH236800   0.070   6.625  17.954  0.3636 -0.2789  0.6505
 4202TIP3    H136801   0.005   6.663  18.014  1.2251  1.4188  0.5787
 4202TIP3    H236802   0.096   6.543  17.996 -1.6223 -0.8983  0.7891
 4203TIP3   OH236803   7.457   5.342  19.178  0.0793 -0.4696  0.0326
 4203TIP3    H136804   7.438   5.433  19.156 -0.6915 -0.7198 -0.3691
 4203TIP3    H236805   7.374   5.307  19.211  0.3933 -1.0029  0.2757
 4204TIP3   OH236806   5.022   4.932  16.660 -0.4203 -0.0171 -0.1362
 4204TIP3    H136807   4.979   4.942  16.575 -0.9055  0.5791  0.1690
 4204TIP3    H236808   5.058   4.843  16.658  0.6058  0.4069 -1.4233
 4205TIP3   OH236809   2.667   0.817  18.401  0.1047 -0.3022 -0.3191
 4205TIP3    H136810   2.707   0.903  18.388  1.5914 -0.7002  1.2100
 4205TIP3    H236811   2.605   0.830  18.473 -0.5357 -0.2719 -0.8705
 4206TIP3   OH236812   2.889   6.377  19.001  0.2290 -0.3834  0.0904
 4206TIP3    H136813   2.975   6.416  19.015  1.0017 -2.3355  1.2210
 4206TIP3    H236814   2.853   6.425  18.926  3.6695 -1.5824 -2.6281
 4207TIP3   OH236815   3.687   2.620  16.850  0.3512  0.1920  0.0985
 4207TIP3    H136816   3.765   2.675  16.864 -1.7333  3.9120 -1.3217
 4207TIP3    H236817   3.639   2.625  16.933  0.4122  0.0714  0.1410
 4208TIP3   OH236818   6.017   5.089  19.143  0.1364 -0.0606 -0.9317
 4208TIP3    H136819   6.093   5.137  19.175 -0.1305 -0.4908  0.4221
 4208TIP3    H236820   6.052   5.030  19.076  0.8587  0.3326 -0.9015
 4209TIP3   OH236821   6.590   5.200  16.928 -0.2878  0.5689  0.2566
 4209TIP3    H136822   6.529   5.268  16.955 -1.2391 -0.2600  0.2726
 4209TIP3    H236823   6.595   5.210  16.833 -0.6171  0.5089  0.2314
 4210TIP3   OH236824   7.576   1.390  18.570  0.4137 -0.2605 -0.4304
 4210TIP3    H136825   7.538   1.478  18.570  0.9692 -0.0085  0.3816
 4210TIP3    H236826   7.500   1.332  18.572  0.0184  0.2386  1.2426
 4211TIP3   OH236827   3.550   4.570  17.125  0.0810 -0.8258  0.6393
 4211TIP3    H136828   3.537   4.538  17.214 -1.1236 -0.3249  0.6501
 4211TIP3    H236829   3.568   4.490  17.074  0.0885 -1.1865  1.1933
 4212TIP3   OH236830   1.849   6.125  18.309  0.2612 -0.8046  0.1276
 4212TIP3    H136831   1.933   6.080  18.314 -0.0395 -1.5306 -1.0149
 4212TIP3    H236832   1.871   6.215  18.285  0.7212 -0.9227  0.1106
 4213TIP3   OH236833   0.919   4.200  17.530 -0.3891  0.3529 -0.1619
 4213TIP3    H136834   0.977   4.124  17.523 -0.3368  0.2396  1.1076
 4213TIP3    H236835   0.976   4.276  17.519 -0.4564  0.2164 -1.5244
 4214TIP3   OH236836   2.525   6.416  17.926  0.7215  0.0549  0.3338
 4214TIP3    H136837   2.573   6.414  18.009  1.3483 -0.7784 -0.0382
 4214TIP3    H236838   2.583   6.462  17.865 -0.3780  2.0733  0.7151
 4215TIP3   OH236839   6.494   6.626  15.695 -0.0661  0.3306  0.1330
 4215TIP3    H136840   6.415   6.654  15.649  0.6535  0.6663 -0.9371
 4215TIP3    H236841   6.507   6.536  15.666  0.9387  0.8579 -1.1443
 4216TIP3   OH236842   4.562   3.269  17.826 -0.1499  0.0385 -0.5551
 4216TIP3    H136843   4.534   3.360  17.815 -1.8212 -0.3977 -0.2860
 4216TIP3    H236844   4.500   3.218  17.772 -0.0754 -1.0332  0.3348
 4217TIP3   OH236845   3.084   2.029  18.530 -0.2170  0.0124  0.2087
 4217TIP3    H136846   3.124   2.018  18.443  0.8057  1.3952  0.4803
 4217TIP3    H236847   3.056   1.940  18.554  0.7610 -0.6410 -0.9263
 4218TIP3   OH236848   3.975   2.027  17.993  0.3751 -0.0576  0.6484
 4218TIP3    H136849   3.949   1.977  17.916 -0.2876  1.4416 -0.1563
 4218TIP3    H236850   3.899   2.024  18.051 -0.7447  2.1803 -0.5803
 4219TIP3   OH236851   4.222   0.942  16.598 -1.0293  0.0460  0.4832
 4219TIP3    H136852   4.278   0.910  16.527 -0.1086  1.9725  0.2784
 4219TIP3    H236853   4.133   0.934  16.563 -0.5959  0.9443 -0.9249
 4220TIP3   OH236854   1.950   6.135  16.610 -0.1547 -0.1668  0.1740
 4220TIP3    H136855   1.872   6.088  16.582  0.5215 -1.5201  0.5051
 4220TIP3    H236856   1.922   6.182  16.689 -0.4035 -1.4068  0.8500
 4221TIP3   OH236857   5.331   7.539  15.824  0.2518  0.3186  0.3172
 4221TIP3    H136858   5.260   7.603  15.829  1.2360  1.3937  1.0837
 4221TIP3    H236859   5.410   7.592  15.813  1.1386 -0.7339  1.3662
 4222TIP3   OH236860   3.587   3.902  17.009  0.2026 -0.0752 -0.4997
 4222TIP3    H136861   3.628   3.950  17.081 -0.6022 -0.1553  0.0244
 4222TIP3    H236862   3.494   3.918  17.019  0.0432 -0.4492 -1.2740
 4223TIP3   OH236863   0.501   7.362  17.712 -0.1679  0.0143 -0.5188
 4223TIP3    H136864   0.534   7.451  17.704 -0.7046  0.3380  0.7048
 4223TIP3    H236865   0.575   7.311  17.744  0.1702 -0.0208 -1.3225
 4224TIP3   OH236866   4.919   1.724  16.737 -0.1798  0.1685 -0.1737
 4224TIP3    H136867   4.948   1.707  16.648 -0.2665  1.6298 -0.5103
 4224TIP3    H236868   4.830   1.691  16.741  1.1427 -3.7701  0.6742
 4225TIP3   OH236869   5.267   1.661  17.748  0.1926  0.0034  0.4579
 4225TIP3    H136870   5.305   1.590  17.697 -0.4338 -1.5644  2.0659
 4225TIP3    H236871   5.189   1.686  17.700  1.0295  0.4289 -0.7224
 4226TIP3   OH236872   6.150   6.848  17.277 -0.0093 -0.0544  0.0871
 4226TIP3    H136873   6.227   6.902  17.299 -0.0635 -0.5459  1.6139
 4226TIP3    H236874   6.075   6.903  17.301 -0.0752 -0.4972  0.9311
 4227TIP3   OH236875   6.017   5.447  17.816  0.7058  0.3883 -0.4517
 4227TIP3    H136876   6.104   5.478  17.791 -0.0108  2.4505 -0.5770
 4227TIP3    H236877   5.973   5.429  17.732  0.8092 -0.1202 -0.4027
 4228TIP3   OH236878   7.076   3.185  17.085  0.1674  0.2060 -0.0492
 4228TIP3    H136879   7.097   3.100  17.124 -0.7427 -0.7109 -1.4636
 4228TIP3    H236880   7.005   3.166  17.023  0.4702  1.8584 -0.9578
 4229TIP3   OH236881   3.509   0.587  17.640  0.0227  0.4118 -0.0436
 4229TIP3    H136882   3.450   0.653  17.604 -1.0985 -0.0623  0.8415
 4229TIP3    H236883   3.489   0.586  17.734  0.1498 -1.0305 -0.0040
 4230TIP3   OH236884   0.099   6.142  16.582 -0.0336  0.2122  0.1741
 4230TIP3    H136885   0.048   6.104  16.653 -0.2164  1.8296  0.9396
 4230TIP3    H236886   0.035   6.164  16.515 -0.0272  0.0285  0.1037
 4231TIP3   OH236887   2.801   7.366  16.842  1.0429  0.0352  0.5982
 4231TIP3    H136888   2.847   7.285  16.819 -0.5801 -0.4419 -1.1742
 4231TIP3    H236889   2.743   7.383  16.768 -0.2877  1.6237  1.9295
 4232TIP3   OH236890   7.158   5.653  17.687 -0.2162 -0.7424 -0.3738
 4232TIP3    H136891   7.144   5.729  17.743  2.1190 -0.3334 -0.2434
 4232TIP3    H236892   7.119   5.580  17.735 -2.9635  0.3669 -0.7352
 4233TIP3   OH236893   4.146   3.519  16.880 -0.5423 -0.3734 -0.1965
 4233TIP3    H136894   4.223   3.527  16.823 -0.5604  0.0455 -0.1634
 4233TIP3    H236895   4.163   3.580  16.952 -0.5711 -0.8194  0.1966
 4234TIP3   OH236896   6.067   4.777  18.424  1.0131  0.2627  0.8237
 4234TIP3    H136897   5.994   4.833  18.451  0.2673  0.0488 -0.6642
 4234TIP3    H236898   6.029   4.689  18.421  0.8975  0.3419 -1.3564
 4235TIP3   OH236899   5.522   2.500  16.943  0.3257  0.0477  0.0081
 4235TIP3    H136900   5.547   2.455  17.023 -1.0934 -1.3906 -0.3025
 4235TIP3    H236901   5.561   2.448  16.872  0.0560  0.2461 -0.2937
 4236TIP3   OH236902   1.210   4.565  18.830  0.0601  0.2525  0.0629
 4236TIP3    H136903   1.131   4.617  18.819 -2.3434 -3.0058  0.4968
 4236TIP3    H236904   1.214   4.546  18.924  0.0635 -1.4200 -0.2460
 4237TIP3   OH236905   4.696   1.176  16.176  0.1927 -0.0746 -0.4598
 4237TIP3    H136906   4.603   1.160  16.160  0.1402  0.8859 -1.1859
 4237TIP3    H236907   4.726   1.225  16.100  0.8852  1.1203  0.5381
 4238TIP3   OH236908   4.347   4.565  18.315 -0.6201 -0.4332  0.0704
 4238TIP3    H136909   4.417   4.584  18.253  0.5001 -1.4860  0.9717
 4238TIP3    H236910   4.318   4.476  18.292 -0.9199 -0.4202  0.3844
 4239TIP3   OH236911   3.811   2.606  18.639 -0.3988  0.2707  0.6982
 4239TIP3    H136912   3.780   2.612  18.729  0.0766 -0.9486  0.9629
 4239TIP3    H236913   3.739   2.566  18.591  0.1205 -1.0555  0.9853
 4240TIP3   OH236914   2.319   6.120  16.293 -0.5250  0.1428  0.1426
 4240TIP3    H136915   2.379   6.056  16.332  1.7757  0.9695 -1.7852
 4240TIP3    H236916   2.349   6.204  16.327 -1.1362  0.5181 -0.2197
 4241TIP3   OH236917   6.521   7.234  16.797 -0.4393  0.1083  0.6396
 4241TIP3    H136918   6.577   7.312  16.787 -0.9342  0.8727  3.0224
 4241TIP3    H236919   6.451   7.246  16.734  0.4067  0.7227 -0.2122
 4242TIP3   OH236920   3.791   6.124  18.322 -0.6113 -0.1059 -0.0712
 4242TIP3    H136921   3.748   6.044  18.352 -0.8330 -0.6173 -1.6300
 4242TIP3    H236922   3.748   6.144  18.239 -0.3261  1.4527  0.1305
 4243TIP3   OH236923   1.439   2.094  16.306 -0.0713  0.3277 -0.3255
 4243TIP3    H136924   1.344   2.098  16.320  0.2144  3.2190  1.8209
 4243TIP3    H236925   1.451   2.113  16.213 -1.5786  0.5736 -0.4930
 4244TIP3   OH236926   5.939   5.028  17.399 -0.2249 -0.2748  0.0925
 4244TIP3    H136927   5.903   4.962  17.457 -0.0642  0.7605  1.4183
 4244TIP3    H236928   5.862   5.073  17.364 -0.3041 -0.2984  0.2327
 4245TIP3   OH236929   4.198   3.449  17.608  0.1622 -0.2239 -0.1628
 4245TIP3    H136930   4.176   3.532  17.649  2.0527  0.0571  0.4016
 4245TIP3    H236931   4.278   3.468  17.558  0.3371 -1.5789 -0.4310
 4246TIP3   OH236932   6.332   2.778  18.386  0.4562  0.3042 -0.2737
 4246TIP3    H136933   6.241   2.770  18.358  0.4052 -0.2503  0.0399
 4246TIP3    H236934   6.378   2.814  18.310 -0.3599  2.4370  0.1714
 4247TIP3   OH236935   6.987   6.034  18.982 -0.3568 -0.4956  0.0466
 4247TIP3    H136936   7.056   5.975  19.011 -2.0540 -1.6458  1.9839
 4247TIP3    H236937   7.030   6.091  18.918  1.9672 -2.1466  0.0127
 4248TIP3   OH236938   4.109   5.076  16.944 -0.3273 -0.2738  0.4700
 4248TIP3    H136939   4.121   5.036  17.030 -0.5514  0.8218  1.0413
 4248TIP3    H236940   4.191   5.125  16.929 -0.3517 -0.3355  0.1371
 4249TIP3   OH236941   1.673   3.161  18.337 -0.2200 -0.0529 -0.4416
 4249TIP3    H136942   1.746   3.148  18.397  0.1277  0.1054 -0.8257
 4249TIP3    H236943   1.595   3.151  18.391  0.0810  2.0992  0.4905
 4250TIP3   OH236944   7.655   4.249  16.437 -0.6825  0.0651 -0.0856
 4250TIP3    H136945   7.690   4.200  16.512  2.0301 -0.7320 -1.7601
 4250TIP3    H236946   7.701   4.333  16.440 -0.6858  0.0960 -0.7523
 4251TIP3   OH236947   7.295   5.928  19.021  0.2609 -0.1934 -0.0736
 4251TIP3    H136948   7.316   5.902  19.111  1.9527  0.0261 -0.3747
 4251TIP3    H236949   7.316   5.851  18.968 -0.2513 -0.1499 -0.3467
 4252TIP3   OH236950   3.780   3.828  16.784 -0.3398 -0.1756  0.7222
 4252TIP3    H136951   3.863   3.877  16.789 -0.0162 -0.5518 -0.7175
 4252TIP3    H236952   3.734   3.853  16.864 -0.8108  3.5924 -0.5527
 4253TIP3   OH236953   2.042   4.613  17.064 -0.3144 -0.0074  0.4368
 4253TIP3    H136954   1.964   4.581  17.018 -1.5215  1.3871  1.4304
 4253TIP3    H236955   2.108   4.621  16.995 -1.1158 -0.9422 -0.4835
 4254TIP3   OH236956   3.329   1.534  18.023 -0.6222 -0.5191 -0.5729
 4254TIP3    H136957   3.305   1.626  18.007 -1.4978 -0.5667  0.3614
 4254TIP3    H236958   3.253   1.484  17.994  0.3262 -1.0649 -2.2244
 4255TIP3   OH236959   4.016   6.855  17.849 -0.0622  0.3926 -0.1746
 4255TIP3    H136960   3.940   6.877  17.904  0.1706 -0.7538  0.6517
 4255TIP3    H236961   4.001   6.764  17.823  1.5340 -0.2098  0.8907
 4256TIP3   OH236962   1.543   4.542  18.786  0.2454  0.1305 -0.5116
 4256TIP3    H136963   1.449   4.557  18.781  0.0104  0.1209  2.2767
 4256TIP3    H236964   1.582   4.625  18.760 -0.5894  0.7083  0.0423
 4257TIP3   OH236965   0.263   3.436  17.633  0.0578 -0.0611  0.5232
 4257TIP3    H136966   0.187   3.378  17.642 -1.0123  1.2758  0.4225
 4257TIP3    H236967   0.302   3.412  17.549  0.3055 -1.3705  0.9878
 4258TIP3   OH236968   1.455   4.264  16.912  0.1918 -0.1370 -0.2254
 4258TIP3    H136969   1.534   4.242  16.961 -1.1593 -0.7725  1.7789
 4258TIP3    H236970   1.424   4.345  16.952 -0.1587  0.1288 -1.0187
 4259TIP3   OH236971   2.897   0.337  18.167  0.2616 -0.0396  0.3263
 4259TIP3    H136972   2.974   0.393  18.158  0.3157 -0.1534  0.0639
 4259TIP3    H236973   2.824   0.391  18.136  0.3374 -0.1674 -0.0834
 4260TIP3   OH236974   6.193   3.461  16.882 -0.1314 -0.2963  0.3375
 4260TIP3    H136975   6.151   3.382  16.848 -0.2006 -0.6852  1.2903
 4260TIP3    H236976   6.176   3.459  16.976  1.1786  0.0452  0.6112
 4261TIP3   OH236977   1.452   7.387  18.585  0.3615 -0.0980  0.5034
 4261TIP3    H136978   1.512   7.457  18.610 -0.8667  1.1469  0.0606
 4261TIP3    H236979   1.368   7.413  18.622 -0.3655 -0.7740 -0.6223
 4262TIP3   OH236980   0.663   4.428  17.334 -0.1590  0.3599 -0.1758
 4262TIP3    H136981   0.649   4.388  17.249  0.7508 -0.4587  0.0446
 4262TIP3    H236982   0.680   4.521  17.315  0.6886  0.0583 -0.9402
 4263TIP3   OH236983   7.519   0.742  16.276  0.2620 -0.2485 -0.0321
 4263TIP3    H136984   7.430   0.772  16.292  0.4457  0.8162 -0.8672
 4263TIP3    H236985   7.558   0.811  16.223  1.2360 -1.2276 -0.6290
 4264TIP3   OH236986   3.167   0.828  17.328 -0.3030 -0.7297  0.1434
 4264TIP3    H136987   3.100   0.764  17.304 -1.0500  0.1531 -0.1917
 4264TIP3    H236988   3.205   0.855  17.245  0.6156 -1.3585  0.3469
 4265TIP3   OH236989   0.155   7.530  18.186 -0.5283  0.2705  0.4727
 4265TIP3    H136990   0.152   7.482  18.268  0.7502  0.7372  0.8243
 4265TIP3    H236991   0.229   7.493  18.138 -1.1162  0.1571 -0.3832
 4266TIP3   OH236992   3.975   7.088  18.682 -0.3044 -0.5239  0.3919
 4266TIP3    H136993   3.914   7.014  18.683 -0.0896 -0.7011  0.3931
 4266TIP3    H236994   4.059   7.049  18.657 -0.1880 -0.2827  0.4093
 4267TIP3   OH236995   5.515   1.504  17.213 -0.0709  0.0996 -0.0695
 4267TIP3    H136996   5.510   1.475  17.122  0.7469 -2.0727  0.5034
 4267TIP3    H236997   5.604   1.481  17.241 -0.2581  0.8577  1.2404
 4268TIP3   OH236998   5.174   5.601  17.758  0.5616  0.1066  0.2210
 4268TIP3    H136999   5.125   5.662  17.814 -0.5692 -0.5193 -0.0562
 4268TIP3    H237000   5.160   5.635  17.669 -0.8133 -0.9954 -0.0325
 4269TIP3   OH237001   2.648   6.819  17.065 -0.1473 -0.0372  0.2168
 4269TIP3    H137002   2.638   6.853  17.154  0.8914 -1.9385  1.1321
 4269TIP3    H237003   2.678   6.895  17.014  0.3457  0.8469  1.7395
 4270TIP3   OH237004   1.877   0.216  18.465 -0.2289 -0.1945  0.6895
 4270TIP3    H137005   1.902   0.305  18.489  1.0667 -0.4669  0.4293
 4270TIP3    H237006   1.864   0.220  18.370  0.9254 -0.4994  0.4981
 4271TIP3   OH237007   4.543   2.753  18.780 -0.5543  0.0211 -0.3625
 4271TIP3    H137008   4.461   2.703  18.773 -0.6550 -0.0208  0.8455
 4271TIP3    H237009   4.517   2.844  18.765 -0.5083 -0.1768 -1.7580
 4272TIP3   OH237010   3.344   7.493  18.401 -0.3976  0.3074 -0.2526
 4272TIP3    H137011   3.258   7.457  18.421 -0.2101  0.6852  1.4302
 4272TIP3    H237012   3.330   7.588  18.396  0.1993  0.6078  2.1642
 4273TIP3   OH237013   5.423   4.938  17.415  0.5487 -0.5734 -0.6552
 4273TIP3    H137014   5.414   4.850  17.453  1.0908 -0.2073  0.3742
 4273TIP3    H237015   5.375   4.934  17.333 -0.6370 -1.4313  0.0445
 4274TIP3   OH237016   1.556   2.164  17.671 -0.1479 -0.2407  0.2704
 4274TIP3    H137017   1.644   2.200  17.680 -0.3710  0.2332  0.5906
 4274TIP3    H237018   1.518   2.172  17.759 -1.5803  2.3729 -0.4612
 4275TIP3   OH237019   2.197   7.220  17.199  0.2054  0.0770 -0.2386
 4275TIP3    H137020   2.235   7.133  17.210  0.4806  0.1361 -0.7204
 4275TIP3    H237021   2.149   7.236  17.280  0.1192 -0.5424 -0.1678
 4276TIP3   OH237022   1.177   4.748  16.821 -0.4055  0.6773 -0.0918
 4276TIP3    H137023   1.097   4.797  16.845  1.0896  3.7715 -0.8891
 4276TIP3    H237024   1.164   4.724  16.729 -0.7089  0.5233 -0.0109
 4277TIP3   OH237025   6.891   1.640  18.614 -0.3868 -0.3297  0.0719
 4277TIP3    H137026   6.831   1.714  18.604 -0.4744 -0.3242  0.6328
 4277TIP3    H237027   6.974   1.680  18.638 -0.0252 -0.3013 -1.1545
 4278TIP3   OH237028   4.081   6.663  17.560 -0.0435  0.7440 -0.3804
 4278TIP3    H137029   4.153   6.694  17.614  0.1621  1.2228 -0.9140
 4278TIP3    H237030   4.023   6.617  17.621  0.4570  0.7903  0.1393
 4279TIP3   OH237031   4.294   5.238  18.176  0.5445 -0.0669 -0.4782
 4279TIP3    H137032   4.236   5.190  18.116  0.0547  0.6259 -0.5635
 4279TIP3    H237033   4.317   5.318  18.129  1.3566 -0.2005 -0.3315
 4280TIP3   OH237034   2.210   5.610  18.449  0.0640  0.3973  0.0109
 4280TIP3    H137035   2.257   5.563  18.518 -0.1310  0.0678 -0.0746
 4280TIP3    H237036   2.253   5.583  18.368 -0.4931 -0.1899 -0.0995
 4281TIP3   OH237037   6.520   2.103  16.442  0.7302 -0.7049  0.0963
 4281TIP3    H137038   6.471   2.022  16.431  0.7746 -0.5809 -1.2398
 4281TIP3    H237039   6.610   2.079  16.418  0.5430 -0.0454 -1.3922
 4282TIP3   OH237040   2.768   7.482  18.125  0.3576  0.1817  0.2228
 4282TIP3    H137041   2.802   7.572  18.132  2.6777 -0.7132  1.7806
 4282TIP3    H237042   2.781   7.459  18.033 -1.8575  1.9414 -0.6193
 4283TIP3   OH237043   6.838   4.833  18.944  0.5918  0.1845 -0.2319
 4283TIP3    H137044   6.893   4.849  18.867  1.9181 -0.1285  0.6278
 4283TIP3    H237045   6.806   4.920  18.969  1.8109  0.5617  0.0653
 4284TIP3   OH237046   1.259   4.971  18.388 -0.2175 -0.6285  0.7915
 4284TIP3    H137047   1.247   5.064  18.372 -1.2406 -0.9388 -0.3938
 4284TIP3    H237048   1.270   4.964  18.483  2.0706  0.8969  0.7202
 4285TIP3   OH237049   1.247   0.874  17.088  0.3068 -0.1409 -0.1583
 4285TIP3    H137050   1.246   0.900  16.996 -0.0695  1.7263  0.3286
 4285TIP3    H237051   1.340   0.870  17.111  0.3866  0.0041 -0.4467
 4286TIP3   OH237052   1.130   0.646  17.579  0.2253  0.5843  0.3000
 4286TIP3    H137053   1.041   0.682  17.580 -1.0678 -2.3793  0.7396
 4286TIP3    H237054   1.161   0.656  17.669 -0.8539 -0.9429  0.8827
 4287TIP3   OH237055   2.641   5.310  18.607  0.0618 -0.3922 -0.4386
 4287TIP3    H137056   2.587   5.233  18.620 -0.5121  0.1665  0.6683
 4287TIP3    H237057   2.694   5.317  18.687 -0.1331  0.5190 -0.3674
 4288TIP3   OH237058   1.090   6.664  18.276 -0.6879  0.3789 -0.4499
 4288TIP3    H137059   1.164   6.623  18.231 -0.8461 -1.4396  0.8096
 4288TIP3    H237060   1.104   6.758  18.266  1.4193  0.0652 -0.8398
 4289TIP3   OH237061   7.170   0.070  17.174  0.5520 -0.3698 -0.5227
 4289TIP3    H137062   7.077   0.048  17.163 -0.7938  4.5816 -1.5464
 4289TIP3    H237063   7.185   0.063  17.268 -0.9859 -0.7737 -0.2752
 4290TIP3   OH237064   5.840   7.285  17.418 -0.2962 -0.2342 -0.3206
 4290TIP3    H137065   5.873   7.261  17.505  1.1377 -0.5054 -0.9144
 4290TIP3    H237066   5.863   7.377  17.408 -1.4368  0.0989  0.0060
 4291TIP3   OH237067   1.146   3.301  16.987 -0.1180 -0.3727 -0.1182
 4291TIP3    H137068   1.059   3.261  16.993 -1.2592  1.6744 -1.6417
 4291TIP3    H237069   1.142   3.354  16.908  1.5334  2.0491  1.2918
 4292TIP3   OH237070   5.325   0.755  16.477 -0.0741 -0.4236 -0.4526
 4292TIP3    H137071   5.317   0.785  16.386  0.7970 -1.0982 -0.7672
 4292TIP3    H237072   5.306   0.833  16.529 -1.3029 -0.1893 -1.1874
 4293TIP3   OH237073   4.556   4.356  18.333 -0.4443  0.0108 -0.0452
 4293TIP3    H137074   4.557   4.412  18.256 -0.0477  0.3398  0.1969
 4293TIP3    H237075   4.573   4.268  18.298 -2.2748 -0.1875 -0.5788
 4294TIP3   OH237076   4.220   2.205  17.470  0.0810  0.1352  0.1038
 4294TIP3    H137077   4.201   2.246  17.386  1.4197 -1.0029 -0.8092
 4294TIP3    H237078   4.160   2.131  17.475  0.3212 -0.0774 -0.0930
 4295TIP3   OH237079   5.240   3.728  18.434  0.6116 -0.5302  0.0469
 4295TIP3    H137080   5.290   3.767  18.363  1.8051  1.0581  1.6763
 4295TIP3    H237081   5.176   3.795  18.459 -0.3580 -1.3904 -0.0466
 4296TIP3   OH237082   2.085   2.558  17.797 -0.3062 -0.5833  0.4418
 4296TIP3    H137083   2.110   2.522  17.882  0.7125  1.2906  0.9867
 4296TIP3    H237084   2.166   2.557  17.746 -0.5555 -0.2337  0.0398
 4297TIP3   OH237085   4.545   0.968  18.028  0.5671 -0.1671 -0.0354
 4297TIP3    H137086   4.452   0.974  18.045  0.6202  0.4193  0.0467
 4297TIP3    H237087   4.572   0.887  18.072  0.2161 -0.0189  0.4644
 4298TIP3   OH237088   4.949   7.524  19.093 -0.0137 -0.2252 -0.2622
 4298TIP3    H137089   4.995   7.441  19.109  2.5880  0.9043 -1.2919
 4298TIP3    H237090   4.964   7.575  19.172 -1.3071 -0.5509  0.2208
 4299TIP3   OH237091   1.595   4.932  16.704  0.1027 -0.4112 -0.1116
 4299TIP3    H137092   1.627   4.856  16.753 -0.9871 -0.1463  1.0660
 4299TIP3    H237093   1.512   4.903  16.667 -1.7535  0.9327  2.6170
 4300TIP3   OH237094   1.782   1.025  18.669 -0.5067  0.1220  0.0319
 4300TIP3    H137095   1.868   1.036  18.709 -1.1944 -0.7190  1.8642
 4300TIP3    H237096   1.764   1.109  18.627 -0.8013  2.1444  3.7849
 4301TIP3   OH237097   6.200   1.906  17.845  0.0994  0.2064 -0.1244
 4301TIP3    H137098   6.273   1.875  17.791 -0.6942 -0.9270 -0.5909
 4301TIP3    H237099   6.141   1.831  17.852 -1.7288  1.4766 -0.9668
 4302TIP3   OH237100   2.473   4.987  16.274 -0.0260 -0.0162 -0.2446
 4302TIP3    H137101   2.520   4.907  16.249  0.7035  0.2864  0.1255
 4302TIP3    H237102   2.496   5.050  16.206  1.2318  0.5383  0.6560
 4303TIP3   OH237103   4.676   7.491  17.188  0.1342  0.2069 -0.3178
 4303TIP3    H137104   4.745   7.536  17.237 -0.7084  0.9835  0.2210
 4303TIP3    H237105   4.697   7.506  17.096  0.0100  1.5416 -0.1488
 4304TIP3   OH237106   5.708   4.675  17.275 -0.0773 -0.5603 -0.2081
 4304TIP3    H137107   5.672   4.659  17.188  1.2773 -1.8393 -0.5779
 4304TIP3    H237108   5.632   4.670  17.333 -0.8600 -0.6251 -1.2133
 4305TIP3   OH237109   5.144   4.485  17.866  0.1362  0.7417  0.0921
 4305TIP3    H137110   5.099   4.412  17.910  0.0341  1.1485  0.6872
 4305TIP3    H237111   5.185   4.534  17.938  0.6348  0.9800 -0.3480
 4306TIP3   OH237112   4.560   3.084  17.126 -0.6123 -0.1011 -0.0471
 4306TIP3    H137113   4.549   3.152  17.060  0.5892  0.3284  0.1800
 4306TIP3    H237114   4.620   3.021  17.086  0.6212  0.4703  0.8317
 4307TIP3   OH237115   5.362   5.857  17.773 -0.1305 -0.2700 -0.2753
 4307TIP3    H137116   5.349   5.859  17.868 -0.3587 -0.8206 -0.2898
 4307TIP3    H237117   5.410   5.776  17.758  1.1344  0.4985 -0.4876
 4308TIP3   OH237118   1.805   5.060  16.786 -0.0769 -0.5591 -0.3851
 4308TIP3    H137119   1.730   5.029  16.737 -0.4781 -0.9107  0.4309
 4308TIP3    H237120   1.805   5.008  16.867  0.5368  0.0203  0.0063
 4309TIP3   OH237121   5.626   5.990  17.204  0.1835 -0.2489  0.0650
 4309TIP3    H137122   5.716   5.958  17.198  0.1154 -0.1680 -2.2487
 4309TIP3    H237123   5.575   5.926  17.155 -0.6656  0.8732 -0.5663
 4310TIP3   OH237124   3.983   6.661  17.151  0.2103  0.5256  0.2988
 4310TIP3    H137125   4.031   6.730  17.104  0.3935  1.0451  1.2382
 4310TIP3    H237126   3.893   6.667  17.118  0.3543  0.8224 -0.0436
 4311TIP3   OH237127   0.383   2.813  18.438 -0.1708 -0.1781 -0.2486
 4311TIP3    H137128   0.348   2.749  18.500  2.1005 -0.8016  0.4760
 4311TIP3    H237129   0.331   2.892  18.454 -1.0017 -0.9343  1.0091
 4312TIP3   OH237130   7.586   0.016  16.323  0.4234  0.0243  0.5152
 4312TIP3    H137131   7.605   0.062  16.240 -1.1953  0.9035  0.5862
 4312TIP3    H237132   7.672  -0.001  16.361  1.2009 -0.2637 -1.2771
 4313TIP3   OH237133   5.161   1.138  17.208 -0.6944  0.5474 -0.6565
 4313TIP3    H137134   5.079   1.163  17.249  1.0250  1.9910  2.2478
 4313TIP3    H237135   5.220   1.211  17.225  2.0712 -1.6736  0.1824
 4314TIP3   OH237136   6.853   2.845  16.465 -0.1276  0.3788 -0.2898
 4314TIP3    H137137   6.777   2.892  16.430 -0.3946  0.6868  0.6792
 4314TIP3    H237138   6.926   2.872  16.409 -0.5254  0.9274 -0.5533
 4315TIP3   OH237139   4.569   1.938  17.207 -1.0351  0.0996 -0.2201
 4315TIP3    H137140   4.636   1.933  17.139 -0.4263  0.1191  0.3645
 4315TIP3    H237141   4.565   1.849  17.242 -2.2409 -0.2137 -1.1085
 4316TIP3   OH237142   5.467   7.221  18.049 -0.1383  0.3377  0.3620
 4316TIP3    H137143   5.528   7.247  17.981  1.2616  0.2372  1.5370
 4316TIP3    H237144   5.405   7.294  18.055 -1.3735 -0.4030 -2.1754
 4317TIP3   OH237145   2.894   5.098  17.276  0.7113  0.0102 -0.2887
 4317TIP3    H137146   2.980   5.055  17.286  0.5928 -0.6972 -1.9502
 4317TIP3    H237147   2.915   5.190  17.262  1.2149 -0.1506 -0.6429
 4318TIP3   OH237148   6.959   3.458  17.771 -0.2872 -0.2299 -0.0286
 4318TIP3    H137149   6.875   3.417  17.790 -0.7747  0.2198 -1.1162
 4318TIP3    H237150   7.008   3.452  17.852 -0.4898 -2.5798 -0.0246
 4319TIP3   OH237151   0.748   5.362  17.501 -0.0893  0.1864 -0.6267
 4319TIP3    H137152   0.775   5.400  17.585  0.7925 -1.6117 -0.0188
 4319TIP3    H237153   0.664   5.403  17.481 -0.8065 -0.0223  1.6522
 4320TIP3   OH237154   4.481   3.947  18.987  0.1508 -0.6496 -0.0487
 4320TIP3    H137155   4.447   3.935  19.076 -0.7746 -1.6314 -0.5089
 4320TIP3    H237156   4.490   4.042  18.977 -0.4953 -0.4862  0.8208
 4321TIP3   OH237157   0.756   0.293  16.995 -0.4904 -0.0341  0.3969
 4321TIP3    H137158   0.712   0.211  17.017 -3.8645  0.4505 -3.4209
 4321TIP3    H237159   0.806   0.272  16.916 -0.3848  1.3277  0.0865
 4322TIP3   OH237160   6.757   2.733  18.455  0.3654  0.3655 -0.8003
 4322TIP3    H137161   6.684   2.730  18.517  0.3013  0.2451 -0.8797
 4322TIP3    H237162   6.771   2.826  18.438  0.0031  0.3764 -1.0509
 4323TIP3   OH237163   3.364   0.673  16.319  0.1845  0.0654  0.4134
 4323TIP3    H137164   3.403   0.742  16.373 -1.9950  1.8832 -0.2247
 4323TIP3    H237165   3.271   0.676  16.339 -0.2038 -1.5835 -0.9171
 4324TIP3   OH237166   7.641   2.601  17.118  0.2067  0.0049 -0.4792
 4324TIP3    H137167   7.566   2.577  17.063 -0.8265  1.5848  0.1500
 4324TIP3    H237168   7.648   2.530  17.181 -0.6246 -0.2886 -0.7053
 4325TIP3   OH237169   3.830   4.718  18.448 -0.2404 -0.2556 -0.2856
 4325TIP3    H137170   3.901   4.677  18.399 -0.8601 -0.6976 -0.8453
 4325TIP3    H237171   3.808   4.796  18.397 -1.2700 -1.0208 -1.0606
 4326TIP3   OH237172   6.798   0.148  16.790  0.1149  0.2565  0.0934
 4326TIP3    H137173   6.744   0.112  16.719 -0.6274 -0.3092  0.9300
 4326TIP3    H237174   6.882   0.104  16.781 -0.7940 -1.8041  1.1335
 4327TIP3   OH237175   1.888   4.575  18.871 -0.7080 -0.5727  0.3734
 4327TIP3    H137176   1.960   4.550  18.812  0.9727  0.6496  1.8116
 4327TIP3    H237177   1.843   4.646  18.825  0.2030 -0.0508  0.2566
 4328TIP3   OH237178   1.799   4.280  18.310  0.2131 -0.0584 -0.4748
 4328TIP3    H137179   1.784   4.195  18.268 -0.1994 -0.7650  1.0339
 4328TIP3    H237180   1.847   4.259  18.390 -1.7827  0.8305  1.0641
 4329TIP3   OH237181   4.932   1.201  18.496  0.0366  0.7077 -0.1490
 4329TIP3    H137182   4.921   1.287  18.456 -0.1426  0.9416  0.3935
 4329TIP3    H237183   4.856   1.192  18.554  0.2554  0.3490  0.0848
 4330TIP3   OH237184   2.170   6.622  18.666 -0.0106  0.2352  0.0618
 4330TIP3    H137185   2.258   6.608  18.631  0.2679 -0.4727  1.0008
 4330TIP3    H237186   2.173   6.710  18.705  0.2336  0.2820 -0.0637
 4331TIP3   OH237187   4.230   4.823  18.335  0.1334  0.0801  0.0010
 4331TIP3    H137188   4.270   4.737  18.321 -0.1686  0.2591 -2.4465
 4331TIP3    H237189   4.296   4.886  18.305 -0.4184  0.5926 -0.1730
 4332TIP3   OH237190   1.460   4.663  16.617 -0.2119 -0.4442  0.3665
 4332TIP3    H137191   1.483   4.690  16.528 -2.6574 -0.2779 -0.2864
 4332TIP3    H237192   1.473   4.568  16.617 -0.9220 -0.5586 -0.4514
 4333TIP3   OH237193   4.688   5.247  18.283 -0.0217  0.7479 -0.3033
 4333TIP3    H137194   4.781   5.227  18.286 -0.0043  0.8712 -0.0348
 4333TIP3    H237195   4.654   5.215  18.367  0.3057  3.4127  0.9177
 4334TIP3   OH237196   0.412   7.128  17.579  0.2424 -0.0500 -0.3980
 4334TIP3    H137197   0.416   7.172  17.664  2.5935  0.7603 -0.8527
 4334TIP3    H237198   0.427   7.036  17.598  3.1002  0.4087 -0.0587
 4335TIP3   OH237199   6.430   4.490  17.018 -0.2822 -0.1547 -0.4698
 4335TIP3    H137200   6.372   4.427  17.060 -0.7125  0.9501  0.6516
 4335TIP3    H237201   6.417   4.476  16.924 -2.1560 -0.1493 -0.2526
 4336TIP3   OH237202   7.145   6.019  18.047 -0.6236  0.6619 -0.2015
 4336TIP3    H137203   7.092   6.014  18.126  0.6356  0.5864  0.6553
 4336TIP3    H237204   7.212   6.084  18.066  0.2626 -0.0352 -0.8608
 4337TIP3   OH237205   7.495   1.442  18.175 -0.6365  0.3325 -0.2045
 4337TIP3    H137206   7.499   1.536  18.192 -0.8337  0.4853 -0.9479
 4337TIP3    H237207   7.583   1.410  18.197  0.5868  1.2763 -3.1123
 4338TIP3   OH237208   2.144   6.654  17.020  0.1716  0.2845 -0.3790
 4338TIP3    H137209   2.160   6.561  17.036 -0.4294  0.5483  2.2594
 4338TIP3    H237210   2.208   6.678  16.954  1.2391 -1.7154 -0.1584
 4339TIP3   OH237211   0.464   4.332  17.172  0.2152 -0.6918 -0.1584
 4339TIP3    H137212   0.485   4.241  17.195  3.4428 -0.0230  0.0059
 4339TIP3    H237213   0.497   4.343  17.083 -0.4857  0.2270 -0.3197
 4340TIP3   OH237214   7.643   2.840  17.287 -0.0363 -0.2459 -0.4426
 4340TIP3    H137215   7.586   2.876  17.219  2.7350  0.5059 -2.5974
 4340TIP3    H237216   7.652   2.747  17.264 -0.9428 -0.5397  0.3470
 4341TIP3   OH237217   5.496   1.410  18.030 -0.3020  0.5274  0.1261
 4341TIP3    H137218   5.465   1.448  17.948  2.9335 -1.5119 -2.2949
 4341TIP3    H237219   5.470   1.318  18.026 -0.4235  0.4574  1.6392
 4342TIP3   OH237220   3.722   4.010  17.971 -0.1252 -0.2739  0.0713
 4342TIP3    H137221   3.676   4.030  17.890  1.7307  1.1492 -0.7092
 4342TIP3    H237222   3.655   4.020  18.039 -1.1726  0.9296 -1.0620
 4343TIP3   OH237223   1.209   0.370  18.840 -0.6801 -0.2745  0.6903
 4343TIP3    H137224   1.194   0.297  18.899 -2.2069 -0.4056  0.1699
 4343TIP3    H237225   1.126   0.383  18.796 -0.2203  1.3022  0.2263
 4344TIP3   OH237226   4.293   1.205  18.313 -0.2489 -0.0983  0.2331
 4344TIP3    H137227   4.344   1.279  18.281  1.8268 -2.3793 -2.1268
 4344TIP3    H237228   4.202   1.232  18.299  0.2368  2.8943  1.8174
 4345TIP3   OH237229   4.675   2.982  17.433  0.2633 -0.9079  0.1104
 4345TIP3    H137230   4.641   3.072  17.433 -0.0639 -1.0197 -1.0192
 4345TIP3    H237231   4.736   2.979  17.360  1.4414 -1.1947  1.0833
 4346TIP3   OH237232   5.664   3.559  18.314 -0.1406  0.3579  0.6881
 4346TIP3    H137233   5.578   3.557  18.356  0.0897 -0.0077  1.1552
 4346TIP3    H237234   5.723   3.521  18.379  0.5189  1.3884  0.7148
 4347TIP3   OH237235   7.418   4.998  17.496  0.0426 -0.4130  0.1798
 4347TIP3    H137236   7.473   4.924  17.468  0.6225 -0.4033  1.2541
 4347TIP3    H237237   7.336   4.957  17.524 -0.0266 -0.5494 -0.2149
 4348TIP3   OH237238   0.197   3.625  18.433 -0.3454 -0.1893 -0.7647
 4348TIP3    H137239   0.204   3.714  18.397 -2.6614 -0.1041 -1.1450
 4348TIP3    H237240   0.111   3.623  18.474 -0.7615 -2.5546 -1.6287
 4349TIP3   OH237241   5.720   1.237  16.939  0.3329  0.4666 -0.9527
 4349TIP3    H137242   5.660   1.186  16.994  0.2533  0.6037 -0.9126
 4349TIP3    H237243   5.663   1.275  16.871  0.3907  0.5122 -0.9752
 4350TIP3   OH237244   0.086   2.251  18.430 -0.2461  0.1062 -0.1275
 4350TIP3    H137245   0.018   2.302  18.386  0.1104  2.0339  1.4229
 4350TIP3    H237246   0.168   2.285  18.394  0.0109 -1.9243 -1.6888
 4351TIP3   OH237247   4.911   5.359  16.540  0.5686 -0.1165 -0.0867
 4351TIP3    H137248   4.912   5.351  16.635  1.1032  2.8560  0.2414
 4351TIP3    H237249   4.862   5.439  16.522  1.7191  0.1917 -2.2381
 4352TIP3   OH237250   6.060   6.629  18.310 -0.0284 -0.5615 -0.0410
 4352TIP3    H137251   6.145   6.655  18.276 -0.3799  0.9512  0.1924
 4352TIP3    H237252   6.077   6.545  18.353  2.0806  1.1340  2.8085
 4353TIP3   OH237253   2.658   4.004  17.421 -0.0822  0.2048 -0.2265
 4353TIP3    H137254   2.742   3.985  17.463  1.5280  1.7438 -2.5346
 4353TIP3    H237255   2.647   4.098  17.430 -1.2493  0.1113 -0.5246
 4354TIP3   OH237256   0.576   5.867  16.383 -0.4239  0.3759 -0.6710
 4354TIP3    H137257   0.506   5.810  16.351  0.3617  0.2855 -2.3006
 4354TIP3    H237258   0.579   5.939  16.319  1.2963  0.1160 -0.9126
 4355TIP3   OH237259   5.966   2.809  16.562 -0.0216  0.0498 -0.9337
 4355TIP3    H137260   5.922   2.855  16.633 -2.4624  1.2657 -3.0849
 4355TIP3    H237261   5.916   2.728  16.551  1.5404 -1.0826 -0.0767
 4356TIP3   OH237262   0.964   6.328  18.207  0.0507 -0.6581  0.0418
 4356TIP3    H137263   0.952   6.312  18.301  0.7192 -0.8435  0.1014
 4356TIP3    H237264   0.956   6.423  18.198 -1.3340 -0.7558  0.0793
 4357TIP3   OH237265   3.672   1.323  17.143 -0.2066 -0.9150  0.0331
 4357TIP3    H137266   3.634   1.409  17.128  2.4074  0.7817  2.2992
 4357TIP3    H237267   3.759   1.326  17.104  0.2230 -2.2686  0.7920
 4358TIP3   OH237268   2.903   5.961  18.529  0.2780  0.3022 -0.0430
 4358TIP3    H137269   2.861   5.875  18.527  0.0734  0.3421  1.3549
 4358TIP3    H237270   2.990   5.944  18.564 -0.4172  0.8638  2.1223
 4359TIP3   OH237271   3.869   1.143  17.695  0.0942 -0.8514 -0.2780
 4359TIP3    H137272   3.791   1.181  17.655  1.9784  2.4589 -1.1752
 4359TIP3    H237273   3.918   1.106  17.622  1.3869  1.0751 -0.4296
 4360TIP3   OH237274   5.155   3.004  16.227  0.2002  0.0983  0.3255
 4360TIP3    H137275   5.060   2.992  16.224  0.0643  1.2172 -0.3915
 4360TIP3    H237276   5.168   3.078  16.287  0.6597 -0.3056  0.7398
 4361TIP3   OH237277   2.298   1.042  16.197 -0.2594 -0.0638 -0.0891
 4361TIP3    H137278   2.294   1.007  16.286 -0.2271  0.7896  0.2544
 4361TIP3    H237279   2.391   1.045  16.177 -0.2088  0.7831  0.2686
 4362TIP3   OH237280   6.867   1.324  17.494 -0.4779 -0.0611  0.1232
 4362TIP3    H137281   6.805   1.327  17.421  0.3214 -1.8090 -0.7009
 4362TIP3    H237282   6.886   1.230  17.504  1.7147  0.3867  0.6016
 4363TIP3   OH237283   4.175   2.875  18.878 -0.1697  0.2931 -0.0994
 4363TIP3    H137284   4.201   2.785  18.859 -2.0675 -0.3698  0.1719
 4363TIP3    H237285   4.129   2.904  18.799  2.9918  2.1955 -1.4330
 4364TIP3   OH237286   3.293   3.909  17.014  0.1592 -0.2132  0.1702
 4364TIP3    H137287   3.227   3.886  16.949  0.1086  0.8246 -0.1708
 4364TIP3    H237288   3.250   3.898  17.098  0.0996 -1.1899  0.0185
 4365TIP3   OH237289   3.577   2.152  18.312  0.1189 -0.1042  0.1809
 4365TIP3    H137290   3.599   2.070  18.357  0.4080  0.2494  0.7012
 4365TIP3    H237291   3.522   2.125  18.238 -1.9106 -0.5852  1.7501
 4366TIP3   OH237292   4.111   3.890  18.499 -0.2342  0.1104 -0.2413
 4366TIP3    H137293   4.164   3.812  18.517 -0.9260 -0.1286  0.8308
 4366TIP3    H237294   4.159   3.935  18.430  0.6464 -0.8068 -0.2597
 4367TIP3   OH237295   1.570   3.150  16.416 -0.9418 -0.1776  0.0943
 4367TIP3    H137296   1.482   3.116  16.403 -1.7433  1.4822  0.8286
 4367TIP3    H237297   1.577   3.222  16.353 -0.2638 -0.0377  0.3225
 4368TIP3   OH237298   6.483   5.525  16.804 -0.0573  0.1027 -0.0401
 4368TIP3    H137299   6.432   5.445  16.800  0.0668 -0.1828  2.2704
 4368TIP3    H237300   6.438   5.586  16.746 -0.7494 -1.2997 -1.0289
 4369TIP3   OH237301   4.982   1.981  16.653 -0.2386  0.3949  0.2995
 4369TIP3    H137302   5.008   1.956  16.565 -0.6916  1.7746 -0.2558
 4369TIP3    H237303   4.978   1.899  16.702  0.6964 -0.3073 -0.7728
 4370TIP3   OH237304   7.327   1.463  17.915 -0.1691  0.1357  0.0851
 4370TIP3    H137305   7.349   1.428  18.002  0.7323  1.5010  0.4309
 4370TIP3    H237306   7.302   1.554  17.931 -0.4909  0.2586 -1.0353
 4371TIP3   OH237307   1.906   6.176  18.632  0.5053  0.0075  0.0958
 4371TIP3    H137308   1.941   6.199  18.546  1.2635  0.3830  0.4908
 4371TIP3    H237309   1.870   6.088  18.621  1.1800 -0.2106 -0.4419
 4372TIP3   OH237310   5.754   7.518  17.983 -0.0185 -0.2146 -0.3696
 4372TIP3    H137311   5.723   7.430  17.964  0.1941 -0.1557 -1.0148
 4372TIP3    H237312   5.692   7.552  18.048 -0.3244 -0.6958 -0.4079
 4373TIP3   OH237313   1.480   5.025  17.668  0.0878 -0.0674 -0.5785
 4373TIP3    H137314   1.409   5.085  17.691 -1.0319 -1.2623 -0.8669
 4373TIP3    H237315   1.521   5.004  17.752 -1.6075 -1.4503 -0.0306
 4374TIP3   OH237316   2.638   5.761  16.567  0.2852  0.0428  0.5951
 4374TIP3    H137317   2.630   5.686  16.507 -2.1563  1.1863 -0.6861
 4374TIP3    H237318   2.655   5.836  16.509 -1.4643  1.0834  1.3473
 4375TIP3   OH237319   5.257   5.755  18.337  0.1290  0.2930 -0.2276
 4375TIP3    H137320   5.270   5.661  18.354 -2.0357  0.0100  0.2881
 4375TIP3    H237321   5.312   5.799  18.402  1.4398 -0.5870 -0.7007
 4376TIP3   OH237322   5.917   4.432  19.050 -0.1799  0.2907 -0.1901
 4376TIP3    H137323   5.983   4.387  19.103  1.4667  1.6008 -1.0421
 4376TIP3    H237324   5.913   4.520  19.087 -0.2032  0.7213 -1.1776
 4377TIP3   OH237325   2.326   5.965  19.081 -0.2951 -0.3589 -0.4808
 4377TIP3    H137326   2.390   5.986  19.012 -0.6814 -1.0757 -1.0778
 4377TIP3    H237327   2.243   5.994  19.045 -0.4563 -0.4330 -0.1683
 4378TIP3   OH237328   5.895   6.279  18.254  0.0682  0.5812 -0.4329
 4378TIP3    H137329   5.864   6.211  18.194 -2.2264 -0.4678  1.7908
 4378TIP3    H237330   5.954   6.233  18.313 -0.0025  0.9504 -0.0723
 4379TIP3   OH237331   5.038   5.064  17.861  0.8769 -0.3024  0.5502
 4379TIP3    H137332   5.119   5.076  17.911  0.7737 -0.2037  0.6916
 4379TIP3    H237333   5.014   4.973  17.876  1.0572 -0.3823  0.3667
 4380TIP3   OH237334   4.802   3.486  19.040  0.4585  0.1155  0.1013
 4380TIP3    H137335   4.765   3.501  18.953  0.7108 -0.0985 -0.0434
 4380TIP3    H237336   4.832   3.573  19.068 -1.4705  0.6005  0.8472
 4381TIP3   OH237337   5.463   5.175  17.117  0.0933  0.0755  0.2095
 4381TIP3    H137338   5.389   5.195  17.175  0.1713 -1.4670  0.8823
 4381TIP3    H237339   5.445   5.227  17.038 -1.2755  0.3773  0.6774
 4382TIP3   OH237340   0.553   6.317  16.052 -0.3387  0.2372  0.2627
 4382TIP3    H137341   0.492   6.383  16.086 -0.5624  0.6745 -0.9485
 4382TIP3    H237342   0.638   6.361  16.051 -0.3486  0.2530  0.1591
 4383TIP3   OH237343   1.558   6.896  17.736 -0.1414 -0.6781 -0.3522
 4383TIP3    H137344   1.508   6.839  17.678 -1.7401 -0.6326  0.8955
 4383TIP3    H237345   1.631   6.842  17.766 -0.2017 -1.2139 -1.1448
 4384TIP3   OH237346   1.868   3.645  17.733 -0.0151 -0.0642 -0.5973
 4384TIP3    H137347   1.963   3.655  17.737 -0.1867  2.0537 -0.6903
 4384TIP3    H237348   1.834   3.725  17.773 -1.7656 -0.6494 -0.8363
 4385TIP3   OH237349   7.418   7.345  17.081 -0.0113  0.5127  0.2473
 4385TIP3    H137350   7.415   7.377  16.991 -0.6703 -0.6103 -0.1437
 4385TIP3    H237351   7.472   7.267  17.077  0.0921  0.5490  0.8602
 4386TIP3   OH237352   6.306   7.349  16.632 -0.3002  0.4320 -0.1804
 4386TIP3    H137353   6.238   7.295  16.672  0.0550  0.8641  1.0589
 4386TIP3    H237354   6.317   7.314  16.544 -0.7220 -0.9146  0.2875
 4387TIP3   OH237355   1.361   0.750  17.464  0.2610  0.2661  0.7413
 4387TIP3    H137356   1.415   0.782  17.537 -1.1509  0.3440  1.7804
 4387TIP3    H237357   1.275   0.735  17.502  0.1231 -2.1849 -0.3156
 4388TIP3   OH237358   2.973   0.336  17.369 -0.0531  0.6570  0.4034
 4388TIP3    H137359   2.967   0.277  17.445  1.8934  0.7197  0.6697
 4388TIP3    H237360   2.939   0.420  17.401 -0.8748  0.2342  0.6634
 4389TIP3   OH237361   0.996   0.300  17.750 -0.7041  0.1534 -0.0261
 4389TIP3    H137362   0.939   0.348  17.811 -0.2877  0.9231 -0.2352
 4389TIP3    H237363   0.974   0.335  17.664 -0.7703 -0.4196 -0.2477
 4390TIP3   OH237364   3.813   7.263  16.860 -0.1124 -0.2734  0.3606
 4390TIP3    H137365   3.761   7.342  16.871  0.8219  0.4460 -0.1818
 4390TIP3    H237366   3.888   7.291  16.807  0.6457 -1.3430  0.8210
 4391TIP3   OH237367   3.608   3.899  18.198  0.0356  0.6724 -0.5003
 4391TIP3    H137368   3.673   3.895  18.268 -1.0585  1.7868  0.6068
 4391TIP3    H237369   3.527   3.867  18.238 -0.3650  0.3113 -1.5579
 4392TIP3   OH237370   5.588   4.431  17.483  0.1496 -0.3771 -0.0608
 4392TIP3    H137371   5.611   4.351  17.434 -1.6092 -1.6909  1.1510
 4392TIP3    H237372   5.495   4.444  17.465  0.6075  2.0167 -0.9986
 4393TIP3   OH237373   1.728   6.178  17.693  0.7924 -0.0096 -0.3705
 4393TIP3    H137374   1.651   6.212  17.739  0.2556  1.3836 -2.1491
 4393TIP3    H237375   1.711   6.084  17.685 -2.0080  0.5411 -2.7533
 4394TIP3   OH237376   1.938   5.054  17.537 -0.0451 -0.3126  0.4268
 4394TIP3    H137377   1.929   4.982  17.474  0.2418  0.9371 -1.1012
 4394TIP3    H237378   1.852   5.095  17.538  0.6798  1.4439 -1.4579
 4395TIP3   OH237379   6.582   3.259  17.641 -0.0141 -0.3587  0.0728
 4395TIP3    H137380   6.597   3.249  17.547 -0.7522 -0.3802 -0.0541
 4395TIP3    H237381   6.486   3.263  17.649  0.0808  0.9440  0.6988
 4396TIP3   OH237382   3.118   6.371  18.291  0.0811  0.3123 -0.3125
 4396TIP3    H137383   3.144   6.434  18.358 -2.6384  0.0501  1.1099
 4396TIP3    H237384   3.140   6.413  18.208  0.6662  1.9939  0.6512
 4397TIP3   OH237385   3.836   0.405  17.807  0.1872 -0.2479  0.0750
 4397TIP3    H137386   3.881   0.488  17.792  1.5493 -0.7241  1.2825
 4397TIP3    H237387   3.803   0.379  17.721 -0.1400  1.4508 -0.3450
 4398TIP3   OH237388   6.954   1.255  16.446  0.3501  0.0426 -0.2119
 4398TIP3    H137389   6.943   1.220  16.358  1.1302 -0.9889  0.0777
 4398TIP3    H237390   7.043   1.291  16.445  0.6848 -0.7355  0.3823
 4399TIP3   OH237391   1.803   4.044  18.131 -0.2371  0.0838 -0.0208
 4399TIP3    H137392   1.779   3.969  18.185  0.8440 -1.6113 -1.7298
 4399TIP3    H237393   1.898   4.051  18.141  0.0692 -0.5942 -1.9907
 4400TIP3   OH237394   7.390   0.343  17.783  0.4135  0.4623 -0.1591
 4400TIP3    H137395   7.449   0.278  17.820 -0.0393 -0.1038 -0.4288
 4400TIP3    H237396   7.447   0.416  17.760  0.8693  0.3335  0.5180
 4401TIP3   OH237397   2.600   1.096  17.504 -0.1642  0.2750 -0.2336
 4401TIP3    H137398   2.582   1.003  17.487  1.5032 -0.1099  0.0077
 4401TIP3    H237399   2.513   1.135  17.515 -0.9565 -1.0032 -1.5980
 4402TIP3   OH237400   4.584   7.083  18.921 -0.9500 -0.3024 -0.3385
 4402TIP3    H137401   4.663   7.138  18.924 -0.3164 -1.2083  0.1536
 4402TIP3    H237402   4.514   7.141  18.950 -0.2192  0.1089  0.6677
 4403TIP3   OH237403   1.974   1.291  16.720 -0.4507  0.0837 -0.3053
 4403TIP3    H137404   1.920   1.294  16.799 -0.2668  1.7510 -0.2076
 4403TIP3    H237405   2.012   1.203  16.720 -0.5030  0.0356  1.4242
 4404TIP3   OH237406   2.917   3.668  16.787  0.4944 -0.1014  0.3915
 4404TIP3    H137407   2.902   3.747  16.734  2.1673 -0.6761 -1.0541
 4404TIP3    H237408   2.932   3.701  16.875 -1.7738  0.9395  0.4503
 4405TIP3   OH237409   1.982   3.949  16.943 -0.1991 -0.4656 -0.3248
 4405TIP3    H137410   1.996   4.037  16.977 -1.2346 -0.4966  0.2226
 4405TIP3    H237411   1.907   3.957  16.884 -1.3649 -1.2497  0.9881
 4406TIP3   OH237412   1.562   2.359  18.282 -0.6346  0.3526 -0.3829
 4406TIP3    H137413   1.647   2.382  18.321  0.1129 -0.9863 -1.1236
 4406TIP3    H237414   1.556   2.264  18.293 -2.3410  0.4880  0.1813
 4407TIP3   OH237415   3.696   4.930  18.159  0.2590 -0.3573  0.7883
 4407TIP3    H137416   3.719   4.900  18.071 -1.6559  2.6243 -0.9386
 4407TIP3    H237417   3.780   4.942  18.203  1.4497  0.2713 -1.4995
 4408TIP3   OH237418   2.782   4.248  16.770 -0.0357  0.2378 -0.1404
 4408TIP3    H137419   2.743   4.254  16.682 -2.0105  0.0746  0.6737
 4408TIP3    H237420   2.870   4.215  16.754 -0.0096  1.0773 -2.1335
 4409TIP3   OH237421   1.321   6.139  18.040 -0.1399 -0.3295  0.1863
 4409TIP3    H137422   1.363   6.054  18.027  1.9435  0.5492  0.7778
 4409TIP3    H237423   1.358   6.173  18.121 -0.6306  1.3117 -0.2272
 4410TIP3   OH237424   1.459   4.203  18.240  0.5621 -0.6202  0.1769
 4410TIP3    H137425   1.532   4.213  18.178 -0.3102 -1.9911 -1.1442
 4410TIP3    H237426   1.462   4.111  18.265  0.7371 -0.1456  2.0372
 4411TIP3   OH237427   3.676   2.650  17.178  0.0201  0.3111  0.2891
 4411TIP3    H137428   3.689   2.657  17.273  0.9019 -0.1585  0.2111
 4411TIP3    H237429   3.630   2.567  17.165  1.0366 -0.2575  0.2192
 4412TIP3   OH237430   1.226   2.684  17.755 -0.4747  0.2236  0.3388
 4412TIP3    H137431   1.173   2.626  17.809 -0.5841  0.5245  0.5593
 4412TIP3    H237432   1.276   2.626  17.698 -0.2725 -0.0981  0.8393
 4413TIP3   OH237433   6.792   6.076  18.136  0.2672 -0.0956  0.1330
 4413TIP3    H137434   6.757   5.991  18.107  0.2065  0.0551 -0.2422
 4413TIP3    H237435   6.796   6.129  18.056  1.9114 -0.2938  0.0535
 4414TIP3   OH237436   6.687   0.369  18.078  0.0076 -0.5283 -0.0493
 4414TIP3    H137437   6.714   0.429  18.008 -0.6125  1.8438  1.6149
 4414TIP3    H237438   6.736   0.399  18.154  0.1935 -2.6452  0.7243
 4415TIP3   OH237439   6.738   5.496  19.084 -0.3903  0.1562  0.5130
 4415TIP3    H137440   6.732   5.471  18.992 -0.5741 -0.2416  0.6327
 4415TIP3    H237441   6.760   5.589  19.081  0.0042  0.0544  0.0687
 4416TIP3   OH237442   6.820   1.321  18.272 -0.7397 -0.2523 -0.0064
 4416TIP3    H137443   6.738   1.320  18.222  0.1106 -0.2654 -1.4415
 4416TIP3    H237444   6.795   1.359  18.357 -1.9921  0.8864 -0.8382
 4417TIP3   OH237445   6.489   5.506  17.084  0.0746  0.4497 -0.0631
 4417TIP3    H137446   6.564   5.464  17.126  0.9832  2.1063  0.0545
 4417TIP3    H237447   6.508   5.502  16.990 -1.1154 -1.6758 -0.2855
 4418TIP3   OH237448   5.628   2.630  17.976  0.6434  0.1776 -0.2620
 4418TIP3    H137449   5.622   2.580  18.057  4.5743 -0.9077 -0.3980
 4418TIP3    H237450   5.676   2.709  18.001 -0.6026  1.2148 -1.0702
 4419TIP3   OH237451   5.371   4.478  18.087 -0.4711 -0.0044 -0.7274
 4419TIP3    H137452   5.399   4.567  18.106  1.2207 -0.5697 -0.4452
 4419TIP3    H237453   5.437   4.443  18.028 -1.5869 -0.7943 -1.5551
 4420TIP3   OH237454   6.664   2.322  17.639 -0.8454  0.0532 -0.2447
 4420TIP3    H137455   6.714   2.240  17.632 -0.5811 -0.1192  2.5577
 4420TIP3    H237456   6.605   2.320  17.564  1.7345 -0.8477 -2.4112
 4421TIP3   OH237457   7.510   6.981  16.732  0.3509 -0.2114  0.5130
 4421TIP3    H137458   7.522   6.968  16.638  0.9393  0.5189  0.4824
 4421TIP3    H237459   7.447   6.913  16.758  1.1779 -1.2454 -0.1527
 4422TIP3   OH237460   0.255   0.700  16.084  0.3584 -0.7432  0.1217
 4422TIP3    H137461   0.321   0.633  16.067  0.1814 -0.9113  0.0981
 4422TIP3    H237462   0.299   0.762  16.142  1.3376  0.4187 -1.7625
 4423TIP3   OH237463   2.628   7.257  18.981  0.5109 -0.0415 -0.5937
 4423TIP3    H137464   2.547   7.207  18.991 -0.4534  1.5099 -0.3278
 4423TIP3    H237465   2.637   7.305  19.063  0.3535  1.6688 -1.5336
 4424TIP3   OH237466   6.530   3.004  18.701 -0.1204  0.8791 -0.3439
 4424TIP3    H137467   6.449   2.991  18.750  0.7310 -1.3559  0.6034
 4424TIP3    H237468   6.582   3.064  18.755 -1.1603  2.4999 -1.0620
 4425TIP3   OH237469   4.351   4.465  18.908  0.6620  0.9227 -0.1989
 4425TIP3    H137470   4.256   4.456  18.915  0.7894 -0.9010 -0.4059
 4425TIP3    H237471   4.363   4.522  18.832 -0.2702  0.2211 -0.9037
 4426TIP3   OH237472   2.838   7.363  18.347  0.3565  0.0624 -0.4078
 4426TIP3    H137473   2.817   7.399  18.261 -1.1754  2.1542  0.7640
 4426TIP3    H237474   2.763   7.308  18.369 -0.6407  1.7967  0.7337
 4427TIP3   OH237475   3.762   6.596  16.109  0.4151  0.0209  0.1805
 4427TIP3    H137476   3.807   6.671  16.070 -0.7102  1.8361  2.1639
 4427TIP3    H237477   3.829   6.553  16.162  0.5168  1.1160  0.9831
 4428TIP3   OH237478   5.732   1.188  18.041  0.3927  0.1130 -0.0500
 4428TIP3    H137479   5.638   1.201  18.057 -0.4795 -2.9254 -1.9227
 4428TIP3    H237480   5.759   1.266  17.992 -1.1583  0.9720  0.3907
 4429TIP3   OH237481   5.421   5.481  18.781  0.1398  0.1948  0.1302
 4429TIP3    H137482   5.452   5.406  18.730  1.0124  0.7575 -0.1990
 4429TIP3    H237483   5.472   5.555  18.748  1.0371  0.5163  2.0551
 4430TIP3   OH237484   2.222   1.936  16.733  0.1747 -0.4343 -0.1150
 4430TIP3    H137485   2.275   1.926  16.654  0.9175 -1.0714  0.4542
 4430TIP3    H237486   2.145   1.880  16.719 -0.8989  1.2573 -1.3711
 4431TIP3   OH237487   3.463   4.733  18.060  0.3917 -0.2236 -0.0150
 4431TIP3    H137488   3.411   4.707  18.136  0.5782 -0.1676  0.1311
 4431TIP3    H237489   3.459   4.658  18.001 -0.9362  0.2665 -0.5806
 4432TIP3   OH237490   3.145   0.004  17.469 -0.3987  0.0959  0.5468
 4432TIP3    H137491   3.230  -0.036  17.485 -0.3929 -0.4489 -0.7946
 4432TIP3    H237492   3.082  -0.068  17.479 -0.6256  0.3136  0.6972
 4433TIP3   OH237493   5.068   6.255  18.777  0.0325  0.6707  0.1236
 4433TIP3    H137494   4.994   6.209  18.736 -0.0830  1.3851 -0.5047
 4433TIP3    H237495   5.133   6.263  18.706 -0.6684  3.0339 -0.3450
 4434TIP3   OH237496   5.539   5.843  16.540  0.6360 -0.0231 -0.3505
 4434TIP3    H137497   5.574   5.816  16.455 -0.5696  0.0777 -0.8934
 4434TIP3    H237498   5.522   5.937  16.531  0.1987 -0.0752 -0.1049
 4435TIP3   OH237499   3.999   2.840  18.332 -0.3464  0.9123  0.1460
 4435TIP3    H137500   3.963   2.752  18.319  0.7808  0.5231 -0.5300
 4435TIP3    H237501   4.039   2.862  18.247  0.2026  1.6866  0.5890
 4436TIP3   OH237502   1.034   4.882  18.657 -0.1622 -0.1707 -0.0372
 4436TIP3    H137503   0.951   4.860  18.699 -0.3827 -1.6385 -1.1428
 4436TIP3    H237504   1.009   4.917  18.571  0.3361  0.1106 -0.0723
 4437TIP3   OH237505   3.528   2.059  18.787  0.2586  0.5138  0.4553
 4437TIP3    H137506   3.541   1.969  18.759  1.1824  0.6973  0.2758
 4437TIP3    H237507   3.586   2.070  18.862  0.3664  1.0423  0.3005
 4438TIP3   OH237508   5.441   3.562  18.505 -0.0175  0.3202 -0.7417
 4438TIP3    H137509   5.366   3.620  18.498 -0.2128  0.1800  0.1132
 4438TIP3    H237510   5.422   3.506  18.580  0.8229  0.1137 -0.6642
 4439TIP3   OH237511   0.667   5.908  18.556 -0.0248 -0.1985 -0.4067
 4439TIP3    H137512   0.662   5.903  18.461  0.5285 -0.7498 -0.4142
 4439TIP3    H237513   0.736   5.972  18.573  0.8414 -1.1012 -0.4011
 4440TIP3   OH237514   7.262   4.374  18.855  0.3111 -0.1722  0.8336
 4440TIP3    H137515   7.330   4.406  18.797 -1.1176  2.6300  0.5366
 4440TIP3    H237516   7.192   4.345  18.797  0.0531 -0.1976  1.1529
 4441TIP3   OH237517   3.609   0.534  18.183 -0.0514 -0.1431 -0.1123
 4441TIP3    H137518   3.552   0.610  18.191  0.1535  0.0788 -0.7428
 4441TIP3    H237519   3.676   0.548  18.251 -0.2486  0.0272  0.0500
 4442TIP3   OH237520   5.035   0.553  16.218  0.1799 -0.3708 -0.3837
 4442TIP3    H137521   5.111   0.497  16.204  1.3559  0.7798  0.9931
 4442TIP3    H237522   5.039   0.576  16.311 -0.6218  1.4448 -0.7484
 4443TIP3   OH237523   1.263   0.277  17.296 -0.2099  0.0148 -0.1815
 4443TIP3    H137524   1.190   0.296  17.354 -1.2853 -1.1053 -1.0964
 4443TIP3    H237525   1.267   0.352  17.236  1.1859  1.3911  1.4990
 4444TIP3   OH237526   2.160   0.245  18.800 -0.2887 -0.3498  0.6634
 4444TIP3    H137527   2.252   0.242  18.826 -0.1680 -1.4854  0.1848
 4444TIP3    H237528   2.141   0.337  18.788  1.2033 -0.1746 -0.6789
 4445TIP3   OH237529   5.556   1.910  17.929 -0.8165 -0.6542 -0.7024
 4445TIP3    H137530   5.545   1.926  17.835 -1.3372 -1.1765 -0.7343
 4445TIP3    H237531   5.468   1.919  17.966 -0.2101  2.7928  0.2723
 4446TIP3   OH237532   1.640   3.567  17.028  0.0325 -0.3380 -0.2172
 4446TIP3    H137533   1.622   3.509  17.103 -0.1559 -0.0098 -0.0094
 4446TIP3    H237534   1.584   3.643  17.042  0.2632 -0.1138 -0.5046
 4447TIP3   OH237535   6.387   7.021  15.933  0.0799 -0.0884  0.0436
 4447TIP3    H137536   6.340   7.087  15.882 -0.7174 -1.0564 -0.5235
 4447TIP3    H237537   6.318   6.975  15.981  0.5186 -0.9837 -0.1462
 4448TIP3   OH237538   0.693   4.183  16.529  0.0485  0.3815  0.3852
 4448TIP3    H137539   0.788   4.191  16.522  0.2025 -1.0040  0.6610
 4448TIP3    H237540   0.664   4.161  16.440  0.1567 -0.6658  0.6034
 4449TIP3   OH237541   7.197   5.961  17.351  0.0090 -0.6045 -0.0568
 4449TIP3    H137542   7.206   5.905  17.274  1.2165 -2.4473  1.3484
 4449TIP3    H237543   7.130   5.918  17.404 -1.9221  1.4512 -0.6334
 4450TIP3   OH237544   0.453   1.311  16.885 -0.0037 -0.2369  0.1310
 4450TIP3    H137545   0.529   1.338  16.833 -0.1944 -0.6255 -0.3454
 4450TIP3    H237546   0.399   1.260  16.826 -1.3449  1.1872  0.0575
 4451TIP3   OH237547   4.929   6.557  18.655 -0.3371 -0.2109  0.0351
 4451TIP3    H137548   4.843   6.598  18.666  0.0809  0.6891 -0.0497
 4451TIP3    H237549   4.968   6.561  18.743 -1.0294 -2.1504  0.4946
 4452TIP3   OH237550   5.478   6.289  17.139 -0.0056 -0.1422 -0.2485
 4452TIP3    H137551   5.421   6.312  17.065 -1.0241 -3.8664 -0.8436
 4452TIP3    H237552   5.566   6.291  17.102 -0.1848  1.0999 -0.6524
 4453TIP3   OH237553   2.324   1.967  16.980 -0.8135  0.2397 -0.2405
 4453TIP3    H137554   2.273   1.970  16.899 -1.1749 -2.1798 -0.1882
 4453TIP3    H237555   2.370   1.883  16.975  0.7630  0.9855  1.1402
 4454TIP3   OH237556   3.489   1.140  16.519  0.3895 -0.0183  0.0559
 4454TIP3    H137557   3.401   1.119  16.550  0.4536  0.8419  0.8772
 4454TIP3    H237558   3.515   1.065  16.465 -1.7510  0.6967 -2.1718
 4455TIP3   OH237559   5.900   7.679  16.452  0.4105 -0.4414  0.1772
 4455TIP3    H137560   5.820   7.699  16.403 -1.9084 -0.5473  3.5174
 4455TIP3    H237561   5.911   7.585  16.443  0.9355 -0.2647 -1.2744
 4456TIP3   OH237562   5.280   7.119  18.371 -0.5558  0.0373  0.2255
 4456TIP3    H137563   5.249   7.051  18.430  0.3001 -0.6194 -0.0553
 4456TIP3    H237564   5.207   7.133  18.310 -0.8955 -0.3305  0.5456
 4457TIP3   OH237565   4.775   5.873  17.476 -0.1738 -0.3306 -0.3366
 4457TIP3    H137566   4.829   5.862  17.555  0.6180  0.5235 -0.7342
 4457TIP3    H237567   4.705   5.809  17.486 -0.2163 -0.0966  1.1621
 4458TIP3   OH237568   3.638   3.674  18.038  0.2838  0.6215 -0.2343
 4458TIP3    H137569   3.643   3.758  18.085  1.0128  0.6861 -0.4041
 4458TIP3    H237570   3.570   3.687  17.972 -1.6889  0.1041  1.5975
 4459TIP3   OH237571   0.828   4.612  17.151  0.2926  0.4370  0.5128
 4459TIP3    H137572   0.829   4.608  17.055  0.0738 -0.7718  0.5416
 4459TIP3    H237573   0.745   4.654  17.173 -0.6401 -1.1600  0.1868
 4460TIP3   OH237574   5.332   2.186  17.626  0.0107 -0.3913  0.2001
 4460TIP3    H137575   5.392   2.115  17.645  2.0673  0.6836 -1.8132
 4460TIP3    H237576   5.385   2.266  17.630 -1.7105  0.8301  0.2112
 4461TIP3   OH237577   6.478   0.133  17.829  0.4939 -0.3517  0.2948
 4461TIP3    H137578   6.444   0.051  17.863 -0.4437  0.3234  1.0202
 4461TIP3    H237579   6.413   0.162  17.766 -0.3500  0.9643  1.7181
 4462TIP3   OH237580   3.513   0.775  17.195  0.1771 -0.2624  0.6681
 4462TIP3    H137581   3.437   0.823  17.164  2.4682  2.9392 -0.6332
 4462TIP3    H237582   3.537   0.718  17.122 -0.4550 -0.5897  0.7187
 4463TIP3   OH237583   6.224   7.075  17.940 -0.1887 -0.0784 -0.1681
 4463TIP3    H137584   6.311   7.036  17.950 -0.3922 -0.3764  0.4413
 4463TIP3    H237585   6.237   7.143  17.874  0.6118  0.1888  0.2497
 4464TIP3   OH237586   4.043   5.232  18.700 -0.2915 -0.0779  0.2241
 4464TIP3    H137587   4.031   5.312  18.750  0.9802  0.2873 -0.0138
 4464TIP3    H237588   4.102   5.257  18.628 -1.3995 -0.7779 -0.9821
 4465TIP3   OH237589   3.341   6.547  17.186 -0.2935  0.1117 -0.8219
 4465TIP3    H137590   3.435   6.561  17.189 -0.4557  1.2584  0.6536
 4465TIP3    H237591   3.319   6.543  17.093  1.2681 -0.7388 -1.1773
 4466TIP3   OH237592   6.228   6.704  15.686  0.2306 -0.0082  0.3282
 4466TIP3    H137593   6.227   6.718  15.780  1.9257 -0.1754  0.4039
 4466TIP3    H237594   6.166   6.769  15.651  0.1181  0.5302  1.4856
 4467TIP3   OH237595   5.931   6.644  17.282 -0.1238  0.0771 -0.7292
 4467TIP3    H137596   5.894   6.567  17.326  0.5706 -0.3884 -0.9595
 4467TIP3    H237597   6.023   6.644  17.308  0.0335  0.4414 -1.2855
 4468TIP3   OH237598   3.503   5.802  17.651 -0.3136  0.1115 -0.0240
 4468TIP3    H137599   3.435   5.770  17.592 -0.1502  0.9510 -0.6717
 4468TIP3    H237600   3.583   5.798  17.600 -0.0906  0.3831  0.3030
 4469TIP3   OH237601   0.983   5.187  16.983  0.3499  0.6288 -0.2981
 4469TIP3    H137602   1.026   5.150  16.906  0.1706  0.7578 -0.4616
 4469TIP3    H237603   0.919   5.121  17.009 -0.7097  1.2527 -1.2220
 4470TIP3   OH237604   2.568   5.751  19.086 -0.5221  0.6407  0.5116
 4470TIP3    H137605   2.504   5.756  19.157 -0.2025 -4.1996  1.4478
 4470TIP3    H237606   2.523   5.702  19.017  1.2828 -0.5540  0.1344
 4471TIP3   OH237607   3.774   7.012  16.928 -0.3180 -0.3989 -0.2325
 4471TIP3    H137608   3.783   7.098  16.888 -1.3778 -0.2151 -0.1221
 4471TIP3    H237609   3.782   6.951  16.855 -0.7554 -0.1413 -0.5033
 4472TIP3   OH237610   5.586   7.536  18.425 -0.0876 -0.4478 -0.1484
 4472TIP3    H137611   5.558   7.445  18.418 -0.0891 -0.4579 -0.0075
 4472TIP3    H237612   5.634   7.541  18.507  0.8366 -0.5571 -0.6692
 4473TIP3   OH237613   0.877   2.874  16.996  0.1634  0.7053  0.1178
 4473TIP3    H137614   0.925   2.953  17.020  0.7577  0.2023  0.6038
 4473TIP3    H237615   0.910   2.850  16.910  1.3396 -0.0540  0.7601
 4474TIP3   OH237616   3.460   0.523  17.022  0.3789  0.3249  0.0980
 4474TIP3    H137617   3.475   0.475  17.103  0.7514  0.4538  0.1041
 4474TIP3    H237618   3.365   0.529  17.015  0.3514  1.4084  1.1630
 4475TIP3   OH237619   3.176   4.012  17.592  0.3933 -0.1673 -0.2650
 4475TIP3    H137620   3.127   4.019  17.674 -0.3321  0.2947 -0.7193
 4475TIP3    H237621   3.193   3.918  17.583 -0.3921 -0.3403 -0.0709
 4476TIP3   OH237622   6.840   6.704  16.371 -0.0161 -0.5741  0.5891
 4476TIP3    H137623   6.764   6.718  16.427 -0.4800 -0.2893 -0.1002
 4476TIP3    H237624   6.815   6.630  16.315  0.8850 -1.6139  1.5121
 4477TIP3   OH237625   5.793   0.174  18.366 -0.8019 -0.1620  0.2579
 4477TIP3    H137626   5.697   0.181  18.365 -0.8424 -0.6222 -1.1081
 4477TIP3    H237627   5.810   0.081  18.352 -0.1396 -0.3625  2.0567
 4478TIP3   OH237628   6.428   6.773  17.440 -0.0205  0.3743  0.1962
 4478TIP3    H137629   6.429   6.677  17.438 -3.1951  0.2623 -1.5386
 4478TIP3    H237630   6.477   6.799  17.362  0.0109  0.1372  0.1354
 4479TIP3   OH237631   2.944   3.012  18.617 -0.1037  0.0505 -0.1711
 4479TIP3    H137632   3.036   3.023  18.594  0.1816  2.6007  1.7052
 4479TIP3    H237633   2.897   3.069  18.557 -0.2015  0.5130  0.3383
 4480TIP3   OH237634   4.333   6.290  16.674  0.0993 -0.0139  0.6558
 4480TIP3    H137635   4.327   6.353  16.602  0.6680 -0.9936 -0.2686
 4480TIP3    H237636   4.279   6.216  16.647  0.4938 -0.4882  1.1418
 4481TIP3   OH237637   5.760   5.596  18.507 -0.0123  0.4239  0.8421
 4481TIP3    H137638   5.711   5.569  18.429  1.4493  0.8747 -0.2848
 4481TIP3    H237639   5.834   5.536  18.511 -0.4564 -0.0393  2.3165
 4482TIP3   OH237640   0.778   1.306  17.335  0.1951  0.1908  0.4646
 4482TIP3    H137641   0.696   1.323  17.289  0.2648 -1.2913 -0.2662
 4482TIP3    H237642   0.754   1.309  17.428 -1.5127 -3.4190  0.3217
 4483TIP3   OH237643   0.134   6.353  17.479  0.1960 -0.0886  0.2475
 4483TIP3    H137644   0.142   6.441  17.517 -3.5787  0.3611  0.3485
 4483TIP3    H237645   0.043   6.347  17.450  0.8884 -3.2348 -1.7545
 4484TIP3   OH237646   6.475   0.014  16.718 -0.1247  0.1909  0.8687
 4484TIP3    H137647   6.490   0.092  16.664  0.5160 -0.1982  0.4701
 4484TIP3    H237648   6.393  -0.023  16.686 -0.0238  0.2655  0.5205
 4485TIP3   OH237649   2.976   3.719  17.415 -0.3242 -0.6204  0.0018
 4485TIP3    H137650   2.995   3.660  17.342  2.9501  0.3019 -0.0488
 4485TIP3    H237651   3.025   3.798  17.394  1.0080 -0.4335  3.3379
 4486TIP3   OH237652   6.915   3.517  18.489  0.0315 -0.0120 -0.1917
 4486TIP3    H137653   7.000   3.474  18.477  1.2192  2.0635  0.2573
 4486TIP3    H237654   6.912   3.540  18.581 -0.5615  0.8563 -0.4134
 4487TIP3   OH237655   4.143   1.874  16.297  0.3708 -0.2001 -0.5320
 4487TIP3    H137656   4.113   1.929  16.370 -0.0459 -1.6073  0.3904
 4487TIP3    H237657   4.081   1.801  16.295  1.8426 -1.4964 -0.6545
 4488TIP3   OH237658   2.268   1.660  17.573 -0.1795  0.4714  0.1898
 4488TIP3    H137659   2.296   1.638  17.662 -3.6596  0.2733  1.3562
 4488TIP3    H237660   2.249   1.754  17.576 -3.0352 -0.0436  0.5726
 4489TIP3   OH237661   2.392   3.717  16.579 -0.6447 -0.1691 -0.5741
 4489TIP3    H137662   2.455   3.666  16.629  0.5494  1.3306 -0.4958
 4489TIP3    H237663   2.393   3.678  16.492 -2.5196 -2.6132  0.3542
 4490TIP3   OH237664   4.025   6.829  16.910  0.0534  0.0304 -0.2160
 4490TIP3    H137665   3.936   6.806  16.885 -0.0806  0.1238  0.1678
 4490TIP3    H237666   4.045   6.908  16.858  0.1996 -0.4333 -0.8789
 4491TIP3   OH237667   5.229   3.585  16.766 -0.1727  0.0470 -0.4871
 4491TIP3    H137668   5.184   3.504  16.791 -1.0911  0.8848  0.6803
 4491TIP3    H237669   5.159   3.647  16.750  0.5300  1.2280  0.8180
 4492TIP3   OH237670   1.829   3.019  17.736 -0.1420  0.0670 -0.3117
 4492TIP3    H137671   1.870   2.943  17.777  2.7078  1.2836 -0.6854
 4492TIP3    H237672   1.835   3.002  17.642 -1.3312 -0.1119 -0.3677
 4493TIP3   OH237673   0.483   1.656  16.148 -0.2307 -0.4069  0.6980
 4493TIP3    H137674   0.423   1.648  16.223 -1.4810 -1.0458 -0.3368
 4493TIP3    H237675   0.468   1.745  16.115  1.1349  0.2825  1.8416
 4494TIP3   OH237676   4.755   0.670  18.898  0.1890 -0.6194 -0.0778
 4494TIP3    H137677   4.696   0.621  18.954 -1.0726  0.3782 -0.4845
 4494TIP3    H237678   4.800   0.603  18.845 -0.2011 -1.4183  0.5844
 4495TIP3   OH237679   5.283   2.747  16.243  0.3104  0.1741  0.4844
 4495TIP3    H137680   5.251   2.831  16.211  0.4610 -0.4436 -1.3689
 4495TIP3    H237681   5.229   2.681  16.199  2.0419 -0.7791 -0.3278
 4496TIP3   OH237682   7.057   0.832  17.730 -0.3952 -0.3636 -0.0808
 4496TIP3    H137683   7.132   0.882  17.760 -0.4441 -0.3352 -0.0046
 4496TIP3    H237684   7.091   0.774  17.662 -0.2467 -0.5756  0.1733
 4497TIP3   OH237685   1.014   1.748  17.800 -0.1204  0.0592 -0.0158
 4497TIP3    H137686   0.985   1.739  17.710  1.0767 -0.4144 -0.3791
 4497TIP3    H237687   1.077   1.676  17.812 -1.9229 -1.3328  1.8934
 4498TIP3   OH237688   2.742   6.423  17.014 -0.9327  0.2216 -0.0041
 4498TIP3    H137689   2.678   6.450  17.080  0.4458 -0.2601  1.6038
 4498TIP3    H237690   2.690   6.374  16.950 -2.1667 -0.3178  1.3284
 4499TIP3   OH237691   6.467   4.739  18.369 -0.7544  0.0278 -0.0030
 4499TIP3    H137692   6.517   4.819  18.387  2.7549 -2.0825  0.6828
 4499TIP3    H237693   6.424   4.718  18.452  0.4582 -0.1139  0.6118
 4500TIP3   OH237694   1.032   0.591  17.984 -0.0504 -0.2838 -0.0070
 4500TIP3    H137695   1.049   0.505  17.944 -1.5853 -0.2405 -0.8076
 4500TIP3    H237696   0.982   0.639  17.918 -0.1327  0.8586  0.8594
 4501TIP3   OH237697   6.381   4.069  18.986  0.0010 -0.7630  0.7682
 4501TIP3    H137698   6.349   4.130  18.919 -0.9967 -1.3270  0.6993
 4501TIP3    H237699   6.409   4.125  19.058 -2.3955 -0.2000  1.3654
 4502TIP3   OH237700   1.521   2.789  16.706 -0.0280  0.1096  0.0329
 4502TIP3    H137701   1.612   2.770  16.731 -0.0676  0.0556  0.1340
 4502TIP3    H237702   1.468   2.747  16.774 -0.1300  0.1109 -0.0461
 4503TIP3   OH237703   6.570   7.237  18.098 -0.3524  0.1386  0.0266
 4503TIP3    H137704   6.625   7.314  18.083 -0.3861 -0.2870 -2.8784
 4503TIP3    H237705   6.575   7.222  18.192  1.2868  2.4730  0.3996
 4504TIP3   OH237706   2.385   2.592  18.045  0.1332  0.1873 -0.0139
 4504TIP3    H137707   2.357   2.527  17.980 -1.9640  0.5422  0.4603
 4504TIP3    H237708   2.398   2.541  18.125  1.1236 -0.0069 -0.2805
 4505TIP3   OH237709   0.079   0.246  18.108  0.3173  0.0605 -0.4313
 4505TIP3    H137710   0.149   0.248  18.043 -0.2280 -0.0252 -1.0306
 4505TIP3    H237711   0.069   0.153  18.129  2.1223  0.2385  1.5964
 4506TIP3   OH237712   0.962   7.099  17.228  0.4555 -0.9473  0.2764
 4506TIP3    H137713   0.970   7.048  17.310 -1.0506 -1.7046 -0.0061
 4506TIP3    H237714   0.962   7.190  17.257  1.8139 -1.1231  0.9294
 4507TIP3   OH237715   0.815   1.615  16.525 -0.1692 -0.2241  0.0953
 4507TIP3    H137716   0.867   1.674  16.471 -0.8837 -0.1493 -0.5232
 4507TIP3    H237717   0.879   1.555  16.563  0.3784 -0.0771 -0.5684
 4508TIP3   OH237718   3.452   2.771  16.281 -0.0332 -0.1129 -0.2529
 4508TIP3    H137719   3.516   2.835  16.251  0.4589 -1.0188 -1.2034
 4508TIP3    H237720   3.491   2.686  16.260 -1.3960 -0.6917 -0.5794
 4509TIP3   OH237721   1.691   3.874  17.376  0.6284  0.0760  0.1311
 4509TIP3    H137722   1.614   3.858  17.321  0.6262 -0.0050  0.1578
 4509TIP3    H237723   1.655   3.887  17.463  0.7872 -2.3306  0.6358
 4510TIP3   OH237724   6.622   6.955  16.817  0.0821 -0.0196  0.1216
 4510TIP3    H137725   6.594   6.919  16.733  0.8608  1.5420 -0.8433
 4510TIP3    H237726   6.573   7.036  16.826 -0.3599 -0.4001  1.4471
 4511TIP3   OH237727   1.571   4.802  17.275 -0.5380  0.0987 -0.2188
 4511TIP3    H137728   1.508   4.776  17.207 -0.9184  0.9084 -0.1895
 4511TIP3    H237729   1.518   4.815  17.353 -0.6137  2.2614 -0.5505
 4512TIP3   OH237730   2.363   7.173  18.957 -0.4538  0.1025 -0.1532
 4512TIP3    H137731   2.271   7.195  18.970 -0.2142  1.2659 -0.3078
 4512TIP3    H237732   2.374   7.174  18.862 -0.0066  1.2452 -0.1051
 4513TIP3   OH237733   1.105   4.931  17.598 -0.5008  0.1792 -0.5341
 4513TIP3    H137734   1.172   4.882  17.645  0.3739  1.6183 -0.2082
 4513TIP3    H237735   1.025   4.916  17.648 -0.2171 -0.7366 -0.3340
 4514TIP3   OH237736   5.616   2.105  16.521  0.2274  0.3936 -0.5017
 4514TIP3    H137737   5.542   2.069  16.472 -0.1707  0.3307  0.1441
 4514TIP3    H237738   5.621   2.197  16.492 -0.2823  0.4767 -0.3318
 4515TIP3   OH237739   3.390   2.461  16.723 -0.0044  0.2151 -0.1671
 4515TIP3    H137740   3.479   2.439  16.749 -0.1835 -0.2471  0.0566
 4515TIP3    H237741   3.334   2.417  16.787 -0.3955  0.4742 -0.3252
 4516TIP3   OH237742   6.682   4.229  16.926  0.3367  0.1097 -0.8555
 4516TIP3    H137743   6.600   4.204  16.970  1.3499 -4.2556 -0.9681
 4516TIP3    H237744   6.657   4.247  16.836 -0.6443 -0.1407 -0.6422
 4517TIP3   OH237745   4.989   3.521  18.736 -0.1897 -0.2389 -0.5127
 4517TIP3    H137746   4.897   3.542  18.755 -0.6266 -1.1540 -1.5523
 4517TIP3    H237747   5.020   3.597  18.686  0.1715  0.9044  1.3507
 4518TIP3   OH237748   4.298   0.378  17.498  0.1840 -0.3702  0.2670
 4518TIP3    H137749   4.300   0.368  17.593  0.4363 -1.3906  0.1756
 4518TIP3    H237750   4.290   0.472  17.483  0.5003 -0.1689  1.2930
 4519TIP3   OH237751   6.052   1.164  17.087 -0.1496 -0.1915  0.2168
 4519TIP3    H137752   5.984   1.183  17.021 -1.2822 -0.6909  1.1989
 4519TIP3    H237753   6.101   1.246  17.094 -0.4578  0.0946 -0.7316
 4520TIP3   OH237754   3.229   2.858  18.157 -0.3650 -0.0299 -0.0312
 4520TIP3    H137755   3.287   2.846  18.082 -0.3449 -0.4430  0.0458
 4520TIP3    H237756   3.283   2.839  18.233 -0.0287  1.7017  0.1856
 4521TIP3   OH237757   5.846   3.269  18.595  0.3003  0.3128 -0.8480
 4521TIP3    H137758   5.843   3.329  18.670 -0.4492  1.4194 -1.7253
 4521TIP3    H237759   5.900   3.314  18.530 -0.8912  0.4093 -1.8124
 4522TIP3   OH237760   2.816   3.877  17.214 -0.1018 -0.1383  0.0600
 4522TIP3    H137761   2.855   3.923  17.288 -0.7602  1.3456 -0.4760
 4522TIP3    H237762   2.723   3.873  17.235 -0.0420 -1.3764  0.1551
 4523TIP3   OH237763   2.445   1.398  16.998  0.8132  0.6041 -0.1784
 4523TIP3    H137764   2.368   1.352  16.962  1.4284 -0.8769  0.3167
 4523TIP3    H237765   2.491   1.430  16.921 -1.1650  3.0910 -0.4571
 4524TIP3   OH237766   2.360   5.576  18.226 -0.0665  0.0477  0.6643
 4524TIP3    H137767   2.438   5.521  18.238  1.7601  2.4293  0.4037
 4524TIP3    H237768   2.327   5.553  18.139  1.0185 -0.2063  0.3107
 4525TIP3   OH237769   2.552   1.323  17.982 -0.6196 -0.4335 -0.4321
 4525TIP3    H137770   2.475   1.273  17.954  0.2255 -1.6317 -0.7142
 4525TIP3    H237771   2.578   1.373  17.905 -1.5834  0.6367 -0.0945
 4526TIP3   OH237772   3.096   3.476  17.768  0.4972 -0.0169 -0.5213
 4526TIP3    H137773   3.156   3.426  17.823 -0.2308  0.2303  0.5307
 4526TIP3    H237774   3.065   3.547  17.825 -1.0357 -0.3354 -0.9132
 4527TIP3   OH237775   2.125   2.693  18.686  0.0779  0.1064  0.5458
 4527TIP3    H137776   2.125   2.629  18.757  3.5003 -0.5296  0.1254
 4527TIP3    H237777   2.215   2.693  18.653 -1.3045  0.2060 -3.9545
 4528TIP3   OH237778   4.227   0.089  17.108 -0.4390  0.0926 -0.5737
 4528TIP3    H137779   4.187   0.107  17.193  0.4440  0.4919 -0.2217
 4528TIP3    H237780   4.321   0.085  17.127 -0.0867  1.7650 -1.7749
 4529TIP3   OH237781   1.811   3.919  17.770  0.5964  0.1334  0.1907
 4529TIP3    H137782   1.855   4.001  17.749  1.1027 -0.1760  0.0229
 4529TIP3    H237783   1.723   3.928  17.733  0.5869  0.6682  0.3348
 4530TIP3   OH237784   3.102   6.609  17.351  0.0589  0.3483 -0.4795
 4530TIP3    H137785   3.049   6.589  17.273  0.4973  0.6327 -0.8589
 4530TIP3    H237786   3.192   6.602  17.320  0.2290  0.9631 -0.1176
 4531TIP3   OH237787   6.786   4.472  17.046  0.0603 -0.3292  0.1970
 4531TIP3    H137788   6.759   4.389  17.008  2.6712 -0.6726 -1.0949
 4531TIP3    H237789   6.745   4.538  16.990  0.2620 -0.7816 -0.4897
 4532TIP3   OH237790   2.564   5.659  17.539  0.2285  0.2361  0.2719
 4532TIP3    H137791   2.516   5.674  17.620 -0.7054  0.0559 -0.2359
 4532TIP3    H237792   2.504   5.610  17.483  0.3716  1.4354 -1.0093
 4533TIP3   OH237793   0.955   2.174  17.704 -0.3728  0.1853  0.4990
 4533TIP3    H137794   0.933   2.267  17.700  1.4826  0.6580  0.2820
 4533TIP3    H237795   0.995   2.163  17.791  0.9377 -0.0170 -0.1078
 4534TIP3   OH237796   5.225   4.951  17.215 -0.2832  0.0196  0.8574
 4534TIP3    H137797   5.193   5.015  17.279 -1.7955 -0.1547  0.3129
 4534TIP3    H237798   5.213   4.994  17.130  0.8814 -0.0985  0.6086
 4535TIP3   OH237799   5.593   6.336  18.038 -0.3222 -0.0915  0.0910
 4535TIP3    H137800   5.499   6.344  18.024 -0.4536  0.1049  1.0442
 4535TIP3    H237801   5.625   6.426  18.042 -0.0911 -0.1569 -0.2204
 4536TIP3   OH237802   4.185   6.962  18.546  0.5983  0.6676 -0.2488
 4536TIP3    H137803   4.159   6.997  18.460  0.3144  0.4746 -0.2443
 4536TIP3    H237804   4.190   6.868  18.532 -0.4444  0.5340  0.1921
 4537TIP3   OH237805   0.668   2.580  16.416  0.2392 -0.1221 -0.0437
 4537TIP3    H137806   0.575   2.591  16.400 -0.0925  1.1203  2.2287
 4537TIP3    H237807   0.691   2.497  16.374 -1.8928 -0.4744 -0.5989
 4538TIP3   OH237808   0.771   5.617  17.109 -0.4514 -0.4197  0.3149
 4538TIP3    H137809   0.679   5.590  17.117 -0.1197 -1.9422 -0.5808
 4538TIP3    H237810   0.821   5.536  17.120  0.7750  0.3152  0.3604
 4539TIP3   OH237811   0.739   6.863  17.550  0.1971  0.2856 -0.5438
 4539TIP3    H137812   0.734   6.807  17.627  1.7317 -0.2892 -0.8199
 4539TIP3    H237813   0.649   6.891  17.534 -0.3669 -0.8473  0.5207
 4540TIP3   OH237814   0.490   4.515  17.520  0.2587  0.4557  0.0825
 4540TIP3    H137815   0.520   4.465  17.444 -0.3326  1.8576 -1.1084
 4540TIP3    H237816   0.405   4.549  17.494  0.5359  1.8639  0.9455
 4541TIP3   OH237817   2.936   7.132  16.710  0.8416  0.3348  0.0012
 4541TIP3    H137818   2.929   7.038  16.727  0.0267  0.3890  0.0139
 4541TIP3    H237819   2.914   7.141  16.618  3.0003  0.2954 -0.5666
 4542TIP3   OH237820   3.971   6.583  17.794 -0.0918 -0.1483 -0.1917
 4542TIP3    H137821   3.988   6.493  17.822 -1.2570 -0.0959  0.7872
 4542TIP3    H237822   3.875   6.591  17.796 -0.0577  0.7700 -1.4122
 4543TIP3   OH237823   4.746   1.103  18.684  0.0536  0.1038 -0.6150
 4543TIP3    H137824   4.663   1.066  18.715 -0.0176  0.7461 -0.0150
 4543TIP3    H237825   4.810   1.080  18.751  0.2418  0.0958 -0.7958
 4544TIP3   OH237826   0.088   2.432  18.648 -0.3120 -0.1598 -0.4244
 4544TIP3    H137827  -0.002   2.460  18.632 -0.7290 -0.7897  0.7049
 4544TIP3    H237828   0.101   2.358  18.588 -0.6163 -0.1976 -0.4445
 4545TIP3   OH237829   2.272   4.924  18.806 -0.7007 -0.4253  0.8883
 4545TIP3    H137830   2.237   5.007  18.840  1.6838  0.8774  0.3349
 4545TIP3    H237831   2.203   4.891  18.748 -2.1965  0.5196  2.0516
 4546TIP3   OH237832   6.262   4.690  18.020  0.1241 -0.1304  0.8897
 4546TIP3    H137833   6.174   4.705  18.055 -0.2727 -0.4300  0.0712
 4546TIP3    H237834   6.301   4.777  18.013  0.2085 -0.0672  2.0310
 4547TIP3   OH237835   0.743   5.822  16.934  0.0169 -0.1741  0.2996
 4547TIP3    H137836   0.777   5.762  17.000 -0.6138  0.3581  1.1309
 4547TIP3    H237837   0.652   5.838  16.960  0.1440  1.0813  0.0667
 4548TIP3   OH237838   6.002   0.078  17.711  0.1332  0.2799  0.6713
 4548TIP3    H137839   5.994   0.158  17.659 -1.1061 -0.5688 -0.5063
 4548TIP3    H237840   6.096   0.064  17.719  0.3643  1.5033  0.3618
 4549TIP3   OH237841   2.791   4.660  16.623  0.4709  0.1047  0.7691
 4549TIP3    H137842   2.789   4.746  16.663 -0.3651  0.5787 -0.2313
 4549TIP3    H237843   2.743   4.603  16.683 -0.7152  0.7884  0.4978
 4550TIP3   OH237844   6.373   6.006  18.506  0.7165 -0.1245  0.0009
 4550TIP3    H137845   6.311   5.957  18.561  1.5415 -0.3984  0.7162
 4550TIP3    H237846   6.343   5.990  18.417 -0.2099 -0.2944  0.3294
 4551TIP3   OH237847   1.153   0.092  17.099 -0.0757 -0.8647 -0.0603
 4551TIP3    H137848   1.208   0.089  17.177  0.0606  0.8709 -0.0620
 4551TIP3    H237849   1.070   0.053  17.127  0.4878 -1.7289  0.4727
 4552TIP3   OH237850   0.747   0.583  16.943  0.5521  0.3165 -0.3420
 4552TIP3    H137851   0.820   0.553  16.889  1.8488  0.2595  1.3432
 4552TIP3    H237852   0.710   0.503  16.980  1.2430  0.4646  0.7323
 4553TIP3   OH237853   3.761   6.912  18.690 -0.4649  0.8669  0.3250
 4553TIP3    H137854   3.718   6.997  18.696 -0.6018  0.8777 -0.6816
 4553TIP3    H237855   3.692   6.853  18.659 -0.7771  0.0569  2.3594
 4554TIP3   OH237856   3.411   6.641  18.164 -0.0644 -0.5830 -0.3034
 4554TIP3    H137857   3.489   6.694  18.150  1.0191 -2.1593 -0.4944
 4554TIP3    H237858   3.432   6.556  18.125 -1.1028 -1.6966  1.4170
 4555TIP3   OH237859   4.910   4.100  17.009 -0.0937 -0.3873  0.2896
 4555TIP3    H137860   4.952   4.021  17.044  0.6146 -1.4520 -2.6099
 4555TIP3    H237861   4.939   4.103  16.918 -1.8514  2.0599 -0.2853
 4556TIP3   OH237862   2.005   5.436  16.826  0.1079  0.3667 -0.4158
 4556TIP3    H137863   2.062   5.391  16.887 -1.2704 -0.5544  0.2479
 4556TIP3    H237864   2.048   5.521  16.811  1.2927 -0.0356  0.5433
 4557TIP3   OH237865   0.169   5.448  17.101  0.2570 -0.2013 -0.7017
 4557TIP3    H137866   0.243   5.486  17.054 -0.0635  2.4636  0.7285
 4557TIP3    H237867   0.092   5.493  17.066  0.0153  1.9095  2.1694
 4558TIP3   OH237868   0.641   2.666  16.894  0.2783  0.4137  0.7814
 4558TIP3    H137869   0.683   2.736  16.945  0.2350  0.3324  0.9260
 4558TIP3    H237870   0.573   2.711  16.844  0.1361  0.4480  1.0061
 4559TIP3   OH237871   5.463   3.634  17.778 -0.5206 -0.4770  0.5254
 4559TIP3    H137872   5.542   3.595  17.740 -0.1565  1.5507 -0.9946
 4559TIP3    H237873   5.398   3.564  17.778  0.2122 -1.2282 -1.6530
 4560TIP3   OH237874   0.383   6.167  16.261 -0.0669  0.3124 -0.1105
 4560TIP3    H137875   0.296   6.134  16.280  0.2088 -0.3921 -0.0147
 4560TIP3    H237876   0.373   6.262  16.255 -0.8542  0.2271 -0.2188
 4561TIP3   OH237877   0.121   4.473  16.417 -0.0547 -0.5567 -0.0520
 4561TIP3    H137878   0.187   4.428  16.364  1.3031  0.5214  0.6682
 4561TIP3    H237879   0.146   4.566  16.413 -1.0322 -0.2280  0.9509
 4562TIP3   OH237880   1.314   0.605  18.170  0.1395  0.1034  0.0435
 4562TIP3    H137881   1.313   0.599  18.265  0.7638 -0.4862  0.0239
 4562TIP3    H237882   1.406   0.594  18.146 -0.1867 -1.3836 -0.6996
 4563TIP3   OH237883   5.620   1.648  17.869  0.0426  0.1584  0.7403
 4563TIP3    H137884   5.612   1.634  17.775  0.6877 -2.0691  0.9573
 4563TIP3    H237885   5.600   1.741  17.881  2.1421  1.0805 -1.8441
 4564TIP3   OH237886   2.973   3.241  17.205 -0.0737 -0.1427  0.2837
 4564TIP3    H137887   3.065   3.266  17.192 -0.3185  1.1849  0.9238
 4564TIP3    H237888   2.927   3.280  17.130 -0.0833 -1.0892 -0.2157
 4565TIP3   OH237889   7.113   2.006  18.161 -0.3917 -0.1718 -0.1255
 4565TIP3    H137890   7.202   2.000  18.126 -0.6205 -0.5976 -0.6342
 4565TIP3    H237891   7.108   1.936  18.226 -0.3173 -0.0746 -0.0159
 4566TIP3   OH237892   1.966   0.766  16.626  0.2837 -0.5416 -0.3673
 4566TIP3    H137893   2.044   0.712  16.613 -0.0138 -0.5328 -2.7238
 4566TIP3    H237894   1.895   0.703  16.637  0.2965 -0.5925 -0.5706
 4567TIP3   OH237895   6.290   2.052  17.091  0.3539  0.4845  0.1439
 4567TIP3    H137896   6.198   2.050  17.115  0.4902  0.1541  0.6448
 4567TIP3    H237897   6.296   1.998  17.012 -0.3236  2.6357 -1.4764
 4568TIP3   OH237898   6.368   4.502  17.799  0.7321 -0.0946 -0.0284
 4568TIP3    H137899   6.410   4.420  17.827  2.6620  0.8499 -0.0025
 4568TIP3    H237900   6.357   4.552  17.879  1.9105  0.6843 -0.3304
 4569TIP3   OH237901   3.073   1.271  17.304  0.0244  0.2841 -0.6468
 4569TIP3    H137902   2.988   1.235  17.330  0.0844  0.9963  0.6209
 4569TIP3    H237903   3.090   1.232  17.218 -0.7691 -1.2316 -0.1617
 4570TIP3   OH237904   5.869   0.653  16.401 -0.0942 -0.3634  0.6530
 4570TIP3    H137905   5.939   0.700  16.356 -1.8213  1.7162 -0.0185
 4570TIP3    H237906   5.852   0.576  16.346  0.6356 -0.0760  0.0200
 4571TIP3   OH237907   2.300   5.244  16.707  0.0903 -0.7183 -0.5849
 4571TIP3    H137908   2.211   5.216  16.730 -0.1044 -0.7754 -1.3643
 4571TIP3    H237909   2.297   5.257  16.612  0.1875  1.8716 -0.3004
 4572TIP3   OH237910   4.371   6.788  18.420 -0.4391 -0.2712  0.4530
 4572TIP3    H137911   4.418   6.750  18.494  1.4074 -0.0136 -0.5251
 4572TIP3    H237912   4.424   6.864  18.394 -1.0181 -0.3619 -1.1329
 4573TIP3   OH237913   5.163   0.477  18.762 -0.2552  0.5456  0.3518
 4573TIP3    H137914   5.162   0.381  18.759  1.8699  0.4788  0.1508
 4573TIP3    H237915   5.071   0.502  18.769 -0.9100 -1.4864 -0.2783
 4574TIP3   OH237916   3.620   1.274  16.711  0.4838 -0.4360 -0.2244
 4574TIP3    H137917   3.666   1.206  16.761  1.4654 -0.0312 -0.5441
 4574TIP3    H237918   3.566   1.226  16.649  2.2160 -0.9761 -1.3948
 4575TIP3   OH237919   0.317   0.440  18.506 -0.0843  0.3050 -0.4027
 4575TIP3    H137920   0.293   0.532  18.522 -0.2286  0.3958 -1.1130
 4575TIP3    H237921   0.246   0.405  18.453  0.0506 -0.1769 -0.2696
 4576TIP3   OH237922   1.024   7.593  16.728  0.3745 -0.6944  0.2801
 4576TIP3    H137923   1.080   7.584  16.806  2.6283 -1.9260 -1.3631
 4576TIP3    H237924   1.062   7.532  16.665 -1.3350  0.3306 -1.8474
 4577TIP3   OH237925   4.375   5.920  17.506  0.2092  0.2930  0.4308
 4577TIP3    H137926   4.383   6.001  17.556 -0.5044 -0.0460  1.1220
 4577TIP3    H237927   4.351   5.854  17.571  0.3892 -0.3917 -0.1832
 4578TIP3   OH237928   5.113   4.673  16.635 -0.0420  0.2279  0.5091
 4578TIP3    H137929   5.038   4.616  16.617  0.0551  0.8644 -2.2625
 4578TIP3    H237930   5.184   4.636  16.584  0.0604  2.6535 -1.3005
 4579TIP3   OH237931   7.485   2.745  16.423  0.3440  0.1417 -0.4567
 4579TIP3    H137932   7.447   2.693  16.493  1.8109  0.5158  0.6766
 4579TIP3    H237933   7.410   2.784  16.378 -0.6469 -0.5083  0.5852
 4580TIP3   OH237934   1.090   4.437  17.178 -0.5026  0.1931 -0.1343
 4580TIP3    H137935   1.026   4.508  17.173 -0.4316  0.2504 -0.2453
 4580TIP3    H237936   1.112   4.429  17.271 -0.6137  0.2232 -0.1076
 4581TIP3   OH237937   3.081   1.016  17.510  0.4463  0.1542  0.2033
 4581TIP3    H137938   3.009   1.061  17.466 -1.1003 -0.0435  2.3751
 4581TIP3    H237939   3.100   0.940  17.455 -1.3546 -0.0564 -0.1695
 4582TIP3   OH237940   0.639   6.323  17.701 -0.4803 -0.0560  0.5487
 4582TIP3    H137941   0.624   6.399  17.757 -1.2794  0.2603 -0.0698
 4582TIP3    H237942   0.722   6.286  17.732  0.4283  1.6319  0.2331
 4583TIP3   OH237943   5.352   4.460  17.312 -0.5454  0.0213 -0.2427
 4583TIP3    H137944   5.343   4.551  17.286 -0.7967 -0.3150 -1.3919
 4583TIP3    H237945   5.273   4.417  17.277  0.2162 -0.8856 -0.9071
 4584TIP3   OH237946   3.519   0.978  17.395  0.0748  0.1219 -0.4491
 4584TIP3    H137947   3.430   1.014  17.402  0.4592  1.3984 -1.5841
 4584TIP3    H237948   3.514   0.916  17.323  0.1500  0.3162 -0.6198
 4585TIP3   OH237949   1.121   5.524  17.348  0.0770 -0.3079  0.2313
 4585TIP3    H137950   1.128   5.608  17.302 -1.0499  0.5539  1.5765
 4585TIP3    H237951   1.126   5.547  17.441 -2.8221 -1.3752  0.7438
 4586TIP3   OH237952   4.272   1.027  18.081  0.5772  0.6581 -0.3301
 4586TIP3    H137953   4.294   1.091  18.149  0.7890  0.7205 -0.4564
 4586TIP3    H237954   4.213   1.073  18.022  1.6500  1.1251 -1.0758
 4587TIP3   OH237955   0.880   7.475  16.074  0.0717  0.2326  0.0495
 4587TIP3    H137956   0.809   7.496  16.014  1.0439  0.0210 -1.2153
 4587TIP3    H237957   0.837   7.431  16.147 -1.5359  3.1992  1.0377
 4588TIP3   OH237958   7.399   4.947  18.466 -0.1756 -0.0501 -0.6624
 4588TIP3    H137959   7.388   4.930  18.559  2.4961 -0.2586 -0.2941
 4588TIP3    H237960   7.385   4.862  18.424 -0.8259 -0.0715 -0.4162
 4589TIP3   OH237961   5.527   6.207  18.268 -0.6956 -0.0131  0.1231
 4589TIP3    H137962   5.570   6.256  18.339 -1.6398 -0.1092  0.7835
 4589TIP3    H237963   5.561   6.247  18.188  1.1450 -0.5493  0.5947
 4590TIP3   OH237964   1.694   1.877  17.337 -0.7833  0.0297 -0.3946
 4590TIP3    H137965   1.769   1.935  17.353 -0.7394 -0.1527  0.0617
 4590TIP3    H237966   1.618   1.935  17.344 -0.6634  0.3120 -1.3355
 4591TIP3   OH237967   1.782   4.283  18.589  0.0401 -0.2926  0.5419
 4591TIP3    H137968   1.717   4.219  18.561 -0.9369  1.4302 -1.4707
 4591TIP3    H237969   1.758   4.304  18.679 -1.6579 -0.3625  0.1384
 4592TIP3   OH237970   3.152   6.192  18.689 -0.1182 -0.1531 -0.2507
 4592TIP3    H137971   3.162   6.137  18.766  0.8581 -0.3419 -0.4955
 4592TIP3    H237972   3.058   6.211  18.684 -0.0772  0.7056  1.5469
 4593TIP3   OH237973   5.115   5.490  18.813  0.3869  0.4858 -0.1548
 4593TIP3    H137974   5.065   5.563  18.776 -0.7014 -0.4912 -0.6824
 4593TIP3    H237975   5.199   5.529  18.838 -0.7138  2.2644  1.0283
 4594TIP3   OH237976   0.674   7.570  15.906  0.2701  0.3107  0.9038
 4594TIP3    H137977   0.677   7.491  15.853  2.0411  0.0639  1.3265
 4594TIP3    H237978   0.582   7.580  15.930 -0.5640  0.3044 -1.9795
 4595TIP3   OH237979   6.207   5.106  16.825  0.3072  0.3478 -0.3392
 4595TIP3    H137980   6.174   5.165  16.893  3.8045  0.6831  1.2549
 4595TIP3    H237981   6.252   5.164  16.763 -0.7366 -0.2086 -1.6678
 4596TIP3   OH237982   5.381   3.145  16.883  0.6161  0.5605  0.5172
 4596TIP3    H137983   5.460   3.142  16.829  0.4446  1.1857  0.2327
 4596TIP3    H237984   5.361   3.053  16.900  0.4674  0.3378 -0.7776
 4597TIP3   OH237985   5.773   5.697  17.798  0.3251  0.5614 -0.0863
 4597TIP3    H137986   5.708   5.738  17.741 -0.5997  1.2546  1.4170
 4597TIP3    H237987   5.745   5.606  17.803  1.2224  0.1369 -1.8060
 4598TIP3   OH237988   1.660   1.174  16.515 -0.2232  0.1483 -0.3127
 4598TIP3    H137989   1.564   1.182  16.511 -0.1857  1.5262  0.7350
 4598TIP3    H237990   1.682   1.201  16.604  1.0195 -1.8452  0.0624
 4599TIP3   OH237991   4.983   2.737  17.408  0.7010  0.1478  0.6268
 4599TIP3    H137992   5.075   2.765  17.410  0.2425  2.1823 -1.4193
 4599TIP3    H237993   4.968   2.714  17.316 -1.6638  3.3978  0.0242
 4600TIP3   OH237994   4.363   5.056  18.608 -0.6377 -0.2316  0.5183
 4600TIP3    H137995   4.364   5.140  18.653  0.6572 -0.5845  1.2181
 4600TIP3    H237996   4.438   5.060  18.548 -1.3379 -0.4099 -0.3922
 4601TIP3   OH237997   4.122   0.598  16.375 -0.3459  0.6666  0.1750
 4601TIP3    H137998   4.045   0.640  16.413 -1.0287  0.1475 -0.5807
 4601TIP3    H237999   4.130   0.515  16.423 -0.3633  0.6427  0.1360
 4602TIP3   OH238000   6.044   5.384  17.454 -0.0615 -0.2755  0.3364
 4602TIP3    H138001   6.121   5.432  17.484  0.3323 -1.4699  1.3255
 4602TIP3    H238002   6.036   5.311  17.516 -2.1214 -0.0594  0.3665
 4603TIP3   OH238003   5.734   1.765  17.435 -1.5336  0.1898  0.4173
 4603TIP3    H138004   5.775   1.711  17.503  0.2872  0.1933 -0.6241
 4603TIP3    H238005   5.761   1.725  17.353 -2.8734  0.7841 -0.3486
 4604TIP3   OH238006   1.405   6.550  17.789  0.1740 -0.2955 -0.2753
 4604TIP3    H138007   1.463   6.520  17.859 -2.3738 -0.7845  1.7581
 4604TIP3    H238008   1.448   6.520  17.708  1.3571 -3.1134  1.2665
 4605TIP3   OH238009   7.011   2.921  18.256 -0.2593 -0.0159  0.4353
 4605TIP3    H138010   7.026   3.014  18.272 -1.2693  0.4981 -1.2654
 4605TIP3    H238011   7.095   2.888  18.224 -0.3833  0.8112 -0.8415
 4606TIP3   OH238012   1.298   0.452  18.585 -0.3179 -0.7544 -0.0945
 4606TIP3    H138013   1.288   0.362  18.553  2.4381 -1.3784  0.4968
 4606TIP3    H238014   1.311   0.442  18.679  0.5796  0.2030 -0.1052
 4607TIP3   OH238015   6.020   5.041  18.562  0.1582 -0.0798  0.0624
 4607TIP3    H138016   6.082   5.034  18.489  0.7651  0.9232  0.4637
 4607TIP3    H238017   5.993   5.133  18.562  0.5675  0.0651  1.4106
 4608TIP3   OH238018   1.071   7.226  18.621  0.4967 -0.4944  0.1523
 4608TIP3    H138019   1.154   7.184  18.596  0.0865 -0.3781 -1.5467
 4608TIP3    H238020   1.013   7.210  18.547 -0.7554  0.1355  0.9649
 4609TIP3   OH238021   5.367   3.307  17.453 -0.2411  0.4512  0.1791
 4609TIP3    H138022   5.360   3.216  17.423 -2.3979  0.9364 -0.9779
 4609TIP3    H238023   5.301   3.354  17.403 -0.0705  2.4334  1.6959
 4610TIP3   OH238024   2.257   3.089  16.687 -0.0861 -0.6117 -0.5044
 4610TIP3    H138025   2.257   3.128  16.599  0.9785 -2.0203 -1.1679
 4610TIP3    H238026   2.227   2.999  16.674 -0.0899 -0.7834  0.6108
 4611TIP3   OH238027   6.805   0.627  16.453 -0.9357 -0.0703 -0.5445
 4611TIP3    H138028   6.854   0.707  16.471 -2.3269  0.7038 -0.0544
 4611TIP3    H238029   6.785   0.632  16.359 -1.6988  0.5654 -0.3550
 4612TIP3   OH238030   3.967   3.985  17.300 -0.0506 -0.2488  0.1782
 4612TIP3    H138031   4.009   3.916  17.352  0.1454  0.2756  0.7299
 4612TIP3    H238032   3.988   4.066  17.347  0.2117  0.2497 -0.7754
 4613TIP3   OH238033   7.257   2.896  18.102 -0.6663 -0.3318  0.5333
 4613TIP3    H138034   7.194   2.857  18.041 -0.3319 -1.2716  0.7665
 4613TIP3    H238035   7.329   2.832  18.106  0.3477  0.7466  0.2105
 4614TIP3   OH238036   4.343   0.663  17.746 -0.4329  0.3924 -0.3619
 4614TIP3    H138037   4.383   0.576  17.754 -0.2032  0.5384  0.0744
 4614TIP3    H238038   4.324   0.690  17.836 -0.1675  0.9545 -0.4720
 4615TIP3   OH238039   7.208   1.948  18.681 -0.2365 -0.3161  0.1853
 4615TIP3    H138040   7.276   1.883  18.700 -1.3109 -1.3030  0.8005
 4615TIP3    H238041   7.246   2.032  18.708  1.2906 -0.6233 -0.8822
 4616TIP3   OH238042   1.764   4.798  18.756  0.1741 -0.5726 -0.5568
 4616TIP3    H138043   1.722   4.766  18.676 -2.2029 -0.0525  0.3994
 4616TIP3    H238044   1.723   4.884  18.771  1.1353 -0.3261  0.8026
 4617TIP3   OH238045   5.127   7.325  19.050  0.0091  0.3840 -0.8129
 4617TIP3    H138046   5.216   7.324  19.087  0.0269 -0.7461 -0.8328
 4617TIP3    H238047   5.091   7.240  19.074 -1.7128  1.4706  0.6825
 4618TIP3   OH238048   4.426   3.501  17.463 -0.1991 -0.2097  0.0187
 4618TIP3    H138049   4.363   3.482  17.394 -0.6697  2.0016 -0.2332
 4618TIP3    H238050   4.442   3.416  17.505 -2.1289 -1.0987 -0.9053
 4619TIP3   OH238051   4.393   1.371  17.933 -0.2312 -0.5499 -0.6006
 4619TIP3    H138052   4.313   1.366  17.985 -0.4890  0.0032 -0.9311
 4619TIP3    H238053   4.414   1.280  17.911 -0.5812 -0.7196 -0.2310
 4620TIP3   OH238054   4.940   2.253  17.533  0.1341  0.0605  0.5247
 4620TIP3    H138055   5.012   2.246  17.596 -0.6052 -0.7713  1.3253
 4620TIP3    H238056   4.955   2.183  17.470 -0.9709 -1.4271  1.8135
 4621TIP3   OH238057   5.632   1.395  18.269 -0.2003  0.4438 -0.1958
 4621TIP3    H138058   5.555   1.433  18.227 -0.7303  0.7323  0.9874
 4621TIP3    H238059   5.706   1.445  18.233 -0.5988  0.5011 -0.9667
 4622TIP3   OH238060   3.195   5.414  17.501 -0.0233 -0.0085  0.2662
 4622TIP3    H138061   3.184   5.471  17.425  0.7238 -1.4926 -1.0095
 4622TIP3    H238062   3.282   5.376  17.490 -0.9479 -2.3069  0.4024
 4623TIP3   OH238063   4.957   7.118  19.053 -0.0166  0.3749  0.9810
 4623TIP3    H138064   4.887   7.151  18.996  1.3190 -0.2254 -1.1583
 4623TIP3    H238065   4.995   7.046  19.004  0.1895 -1.2936  3.4404
 4624TIP3   OH238066   4.550   4.999  18.013  0.3924  0.4291  0.5455
 4624TIP3    H138067   4.509   5.007  18.099  1.5335 -0.6157  1.2217
 4624TIP3    H238068   4.643   4.995  18.031  0.5949 -1.1501 -0.6115
 4625TIP3   OH238069   0.042   6.804  17.139 -0.5236  0.3556 -0.4786
 4625TIP3    H138070   0.128   6.776  17.172 -1.7042 -2.0157  0.8411
 4625TIP3    H238071   0.028   6.749  17.062 -1.2079  0.1116 -0.1815
 4626TIP3   OH238072   4.638   4.788  18.825 -0.1082  0.5547 -0.8472
 4626TIP3    H138073   4.704   4.724  18.798 -1.4997 -0.5020 -1.8944
 4626TIP3    H238074   4.655   4.804  18.917  1.3453  0.0022 -1.0020
 4627TIP3   OH238075   3.826   5.244  16.511  0.1779 -0.0103 -0.5255
 4627TIP3    H138076   3.872   5.161  16.498 -2.1240 -1.3184 -0.9085
 4627TIP3    H238077   3.777   5.258  16.430 -1.2751  0.4851  0.3895
 4628TIP3   OH238078   2.985   5.131  18.432  0.3746 -0.5020  0.1689
 4628TIP3    H138079   3.031   5.208  18.397  2.1427 -1.7791 -0.4590
 4628TIP3    H238080   3.036   5.105  18.509 -0.5078 -0.7717  0.6838
 4629TIP3   OH238081   2.951   1.352  17.575  0.1110 -0.3830 -0.4525
 4629TIP3    H138082   2.875   1.372  17.520 -0.1867  0.0518  0.1021
 4629TIP3    H238083   3.023   1.398  17.533 -0.3471  0.9682  0.1677
 4630TIP3   OH238084   1.436   7.019  17.442  0.4226 -0.5901  0.3052
 4630TIP3    H138085   1.518   7.012  17.394  0.7153 -1.6746  0.9368
 4630TIP3    H238086   1.452   7.090  17.505 -0.9134  2.9322 -2.9191
 4631TIP3   OH238087   4.209   5.301  17.365  0.2473  0.2981 -0.0818
 4631TIP3    H138088   4.219   5.304  17.460 -0.0671 -0.2619 -0.0231
 4631TIP3    H238089   4.226   5.210  17.342  0.3478  0.4386 -0.5647
 4632TIP3   OH238090   2.909   6.478  17.495  0.3221  0.0834 -0.0582
 4632TIP3    H138091   2.982   6.515  17.446 -0.2969 -0.2989 -1.3110
 4632TIP3    H238092   2.831   6.499  17.443 -0.5794  1.1489  1.6255
 4633TIP3   OH238093   6.925   0.345  16.517 -0.1898  0.0622 -0.0383
 4633TIP3    H138094   6.864   0.401  16.566 -2.8409 -0.8169 -2.0667
 4633TIP3    H238095   7.011   0.379  16.538 -1.5467  4.4117 -0.5203
 4634TIP3   OH238096   4.446   3.743  16.808 -0.0721 -0.2664  1.0101
 4634TIP3    H138097   4.384   3.812  16.783  0.4831 -0.4113 -0.9370
 4634TIP3    H238098   4.416   3.666  16.759  0.3815 -0.9317  1.7602
 4635TIP3   OH238099   3.822   1.325  18.609  0.2945 -0.5210  0.1328
 4635TIP3    H138100   3.757   1.389  18.580  0.0678 -0.6036  0.4543
 4635TIP3    H238101   3.796   1.243  18.567 -0.2093 -0.7084  0.8069
 4636TIP3   OH238102   5.826   2.706  18.165  0.3403  0.2229  0.0373
 4636TIP3    H138103   5.822   2.620  18.205 -1.1348 -0.2200 -0.9667
 4636TIP3    H238104   5.918   2.717  18.140  0.2910 -1.7495 -1.2281
 4637TIP3   OH238105   0.275   5.346  18.394 -0.2960  0.0490  0.2608
 4637TIP3    H138106   0.192   5.325  18.352  0.3120  0.1721 -1.0357
 4637TIP3    H238107   0.312   5.261  18.419 -0.1806 -0.1031 -0.4089
 4638TIP3   OH238108   7.177   4.246  17.239 -0.2559 -0.2793  0.0602
 4638TIP3    H138109   7.187   4.282  17.150  0.2342 -0.0981  0.1830
 4638TIP3    H238110   7.267   4.240  17.272 -0.5375  2.0556  1.4823
 4639TIP3   OH238111   3.264   0.297  16.803  0.8668  0.1560  0.0644
 4639TIP3    H138112   3.356   0.295  16.830  0.9530  2.0757  0.0509
 4639TIP3    H238113   3.251   0.215  16.755  2.4133 -0.4031  0.5451
 4640TIP3   OH238114   3.544   6.881  18.384  0.0090  0.3251  0.2744
 4640TIP3    H138115   3.640   6.881  18.385  0.0339  1.0522  1.9021
 4640TIP3    H238116   3.520   6.973  18.373 -0.4372  0.4750  2.1021
 4641TIP3   OH238117   4.364   1.015  15.940 -0.0148 -0.0162  0.0742
 4641TIP3    H138118   4.441   1.064  15.912 -0.3083 -0.7270 -2.1391
 4641TIP3    H238119   4.292   1.078  15.931 -0.2246 -0.4593 -1.6695
 4642TIP3   OH238120   2.558   3.840  17.668  0.0879  0.1251  0.1257
 4642TIP3    H138121   2.644   3.878  17.647  0.4531 -0.4780  0.4811
 4642TIP3    H238122   2.579   3.764  17.723 -0.6661 -0.1722  0.0088
 4643TIP3   OH238123   0.669   7.665  17.563 -0.2085 -0.0369 -0.3056
 4643TIP3    H138124   0.642   7.674  17.472 -1.1261  0.4236  0.0034
 4643TIP3    H238125   0.687   7.754  17.592 -1.2349 -0.0389  0.3541
 4644TIP3   OH238126   3.037   7.192  17.887  0.3580 -0.4598 -0.3311
 4644TIP3    H138127   3.120   7.224  17.924  1.2279 -1.2600 -1.5220
 4644TIP3    H238128   3.063   7.127  17.822 -1.2870 -2.4586  0.8746
 4645TIP3   OH238129   0.556   0.726  16.820 -0.4016 -0.1289  0.1159
 4645TIP3    H138130   0.511   0.774  16.889  0.1396 -0.1537  0.4948
 4645TIP3    H238131   0.631   0.685  16.864 -0.9633 -1.4955 -0.1504
 4646TIP3   OH238132   0.477   3.241  15.929 -0.2680 -0.0380 -0.3180
 4646TIP3    H138133   0.432   3.319  15.962  0.2970  0.2244 -0.1636
 4646TIP3    H238134   0.443   3.169  15.982 -1.8036 -0.1248 -1.3457
 4647TIP3   OH238135   0.415   5.104  16.742 -0.0313 -0.2597  0.6737
 4647TIP3    H138136   0.436   5.038  16.676  0.1272  1.0556 -0.6577
 4647TIP3    H238137   0.385   5.054  16.818  2.0010 -1.9417  0.4583
 4648TIP3   OH238138   6.007   7.418  16.861 -0.3651  0.4081 -0.6278
 4648TIP3    H138139   5.938   7.416  16.927  0.9771 -0.0037  0.8225
 4648TIP3    H238140   6.027   7.326  16.845  1.5915  0.4806  0.9474
 4649TIP3   OH238141   5.559   2.621  18.763  0.1082  0.7899  0.4902
 4649TIP3    H138142   5.642   2.577  18.747  0.7812  1.9929  0.5833
 4649TIP3    H238143   5.575   2.713  18.741 -0.9337  1.2034  1.3394
 4650TIP3   OH238144   1.489   2.837  16.279 -0.9621 -0.2545  0.2482
 4650TIP3    H138145   1.454   2.898  16.343 -1.4445  0.3088 -0.5375
 4650TIP3    H238146   1.573   2.876  16.252 -1.5043  0.3406 -0.6223
 4651TIP3   OH238147   0.435   5.520  18.577 -0.5633 -0.0245 -0.0344
 4651TIP3    H138148   0.410   5.453  18.514  0.6013 -0.1722 -0.3659
 4651TIP3    H238149   0.526   5.500  18.600  0.1383  1.9197 -0.8286
 4652TIP3   OH238150   6.193   0.597  18.183 -0.3998 -0.6017  0.3124
 4652TIP3    H138151   6.186   0.665  18.250  2.1247 -0.5628  0.6426
 4652TIP3    H238152   6.164   0.640  18.102  1.2601  0.9640  0.4845
 4653TIP3   OH238153   2.162   6.972  18.143  0.1219 -0.6502 -0.0047
 4653TIP3    H138154   2.104   7.031  18.192 -0.8714 -1.6443  0.0701
 4653TIP3    H238155   2.105   6.935  18.075  0.6039 -1.8662  0.2427
 4654TIP3   OH238156   6.253   3.871  17.333  0.3988 -0.0970  0.0218
 4654TIP3    H138157   6.337   3.916  17.322  0.4070  0.2052  1.1867
 4654TIP3    H238158   6.276   3.778  17.338  0.5872 -0.0726 -0.3819
 4655TIP3   OH238159   7.382   4.704  17.662 -0.2365  0.3433  0.3626
 4655TIP3    H138160   7.337   4.620  17.660  1.5242 -0.6557  0.6001
 4655TIP3    H238161   7.399   4.724  17.570  0.5040 -0.2353  0.3648
 4656TIP3   OH238162   2.525   6.348  17.268 -0.0973  0.1965  0.0290
 4656TIP3    H138163   2.485   6.413  17.210  1.9908 -0.3725 -2.2030
 4656TIP3    H238164   2.608   6.387  17.294  0.5241 -0.9602 -0.1600
 4657TIP3   OH238165   3.840   2.746  16.484  0.0200  0.4009  0.2440
 4657TIP3    H138166   3.863   2.723  16.394 -0.1933  1.8750 -0.2112
 4657TIP3    H238167   3.910   2.708  16.537  2.2812  2.6848 -0.8935
 4658TIP3   OH238168   2.189   5.566  17.617  0.2952  0.2708  0.2275
 4658TIP3    H138169   2.260   5.502  17.615  0.1657  0.1425 -1.2537
 4658TIP3    H238170   2.113   5.517  17.651  1.0565  0.6112  2.5818
 4659TIP3   OH238171   6.215   1.540  18.493 -0.5826  0.3490  0.0424
 4659TIP3    H138172   6.175   1.626  18.492  1.1688  1.1982 -0.3082
 4659TIP3    H238173   6.308   1.556  18.479 -0.2126 -1.6009 -0.0558
 4660TIP3   OH238174   6.057   4.185  17.872  0.2760  0.2397  0.0065
 4660TIP3    H138175   6.152   4.182  17.860  0.2828  0.3019  0.0448
 4660TIP3    H238176   6.035   4.103  17.915  0.1068 -0.5338 -1.4842
 4661TIP3   OH238177   2.987   4.515  17.722 -0.2671  0.4774 -0.8408
 4661TIP3    H138178   2.931   4.449  17.683 -2.2342  0.2286  2.0999
 4661TIP3    H238179   2.933   4.594  17.724  0.2718  0.8395  0.0460
 4662TIP3   OH238180   4.214   5.136  17.599  0.2345 -0.2378  0.4868
 4662TIP3    H138181   4.234   5.043  17.594  1.1676 -0.0164 -0.2990
 4662TIP3    H238182   4.298   5.178  17.617 -0.0273  0.5057  0.0295
 4663TIP3   OH238183   2.354   0.167  18.409 -0.0713  0.3034  0.3536
 4663TIP3    H138184   2.434   0.165  18.356 -0.3055  0.9457 -0.0334
 4663TIP3    H238185   2.327   0.075  18.415 -0.7979  0.3294 -1.8104
 4664TIP3   OH238186   4.794   5.480  18.796 -0.0708 -0.1803 -0.0794
 4664TIP3    H138187   4.780   5.408  18.735 -2.2737  0.7691 -0.8116
 4664TIP3    H238188   4.860   5.535  18.754 -0.1541 -0.5390 -0.6923
 4665TIP3   OH238189   4.268   3.683  18.566 -0.4463 -0.0356  0.2816
 4665TIP3    H138190   4.271   3.628  18.644 -0.6750 -0.2041  0.1719
 4665TIP3    H238191   4.347   3.660  18.518 -0.7405 -0.5613  0.0390
 4666TIP3   OH238192   5.990   5.131  16.231  0.0301 -0.4025 -0.4458
 4666TIP3    H138193   5.948   5.114  16.316 -1.1124  1.7251 -0.5274
 4666TIP3    H238194   6.081   5.151  16.253 -0.3770  0.6477  0.3665
 4667TIP3   OH238195   1.210   0.602  17.248  0.2634  0.7245 -0.3317
 4667TIP3    H138196   1.156   0.613  17.326 -0.6535 -1.3754 -0.6073
 4667TIP3    H238197   1.285   0.660  17.263 -1.0844  2.2605  0.9345
 4668TIP3   OH238198   6.648   0.456  15.997 -0.3041  0.5508  0.6639
 4668TIP3    H138199   6.729   0.415  15.965  0.4464  2.8736 -0.6492
 4668TIP3    H238200   6.586   0.445  15.925 -0.8362 -0.2610  1.2337
 4669TIP3   OH238201   1.757   0.804  16.990  0.0107 -0.4478  0.6797
 4669TIP3    H138202   1.763   0.714  16.958  0.0317 -0.7154  1.4147
 4669TIP3    H238203   1.833   0.848  16.952 -0.3865 -0.5527 -0.2579
 4670TIP3   OH238204   2.839   3.922  17.647 -0.0679  0.1222  0.0753
 4670TIP3    H138205   2.907   3.962  17.702  0.9614  0.2878 -1.2603
 4670TIP3    H238206   2.871   3.834  17.630 -0.0986  0.2569 -0.7049
 4671TIP3   OH238207   0.471   6.851  17.562  0.2273 -0.4448  0.0479
 4671TIP3    H138208   0.478   6.813  17.474  0.6329 -1.0617  0.3356
 4671TIP3    H238209   0.453   6.776  17.618 -1.2734  0.1139  0.3410
 4672TIP3   OH238210   3.035   6.275  16.515  0.6786 -0.1460  0.2114
 4672TIP3    H138211   3.003   6.240  16.599  2.3694 -0.2772  0.8382
 4672TIP3    H238212   3.017   6.205  16.452 -0.4086 -0.1345  0.4790
 4673TIP3   OH238213   0.936   6.055  19.008 -0.8367 -0.5612 -0.5426
 4673TIP3    H138214   0.890   6.019  19.084 -0.8101 -0.4754 -0.4863
 4673TIP3    H238215   0.917   6.148  19.011  1.8804  0.0675  1.3166
 4674TIP3   OH238216   2.692   6.513  17.738  0.4875  0.4281  0.1673
 4674TIP3    H138217   2.783   6.542  17.747  0.9188 -0.6472 -0.4925
 4674TIP3    H238218   2.651   6.580  17.684  1.2609  0.2297 -0.6924
 4675TIP3   OH238219   7.083   6.192  18.773 -0.3889  0.9211 -0.0375
 4675TIP3    H138220   7.128   6.276  18.772  0.6087  0.4335  1.0611
 4675TIP3    H238221   6.995   6.211  18.742 -0.2669  2.4093  0.4711
 4676TIP3   OH238222   0.776   4.649  18.338  0.4124  0.3877  0.4428
 4676TIP3    H138223   0.781   4.722  18.276  0.0559 -0.2446 -0.3616
 4676TIP3    H238224   0.846   4.590  18.310  1.0191  0.6508  1.3956
 4677TIP3   OH238225   4.026   3.246  17.551  0.0831 -0.9008  0.4422
 4677TIP3    H138226   4.098   3.287  17.599 -0.5177  0.0409  0.5590
 4677TIP3    H238227   4.001   3.310  17.485 -0.1715 -1.5231 -0.0697
 4678TIP3   OH238228   0.832   3.964  18.386  0.0312  0.0642  0.9882
 4678TIP3    H138229   0.792   4.044  18.352  0.1460 -0.4308 -0.3684
 4678TIP3    H238230   0.819   3.969  18.481 -1.5608  0.8321  0.7670
 4679TIP3   OH238231   7.670   5.021  18.790 -0.2171 -0.9274 -0.0898
 4679TIP3    H138232   7.701   4.969  18.864 -0.3596 -1.2808 -0.2692
 4679TIP3    H238233   7.619   5.091  18.829 -1.2954 -1.7894  0.1117
 4680TIP3   OH238234   5.517   0.018  16.086 -0.4105 -0.2167 -0.2318
 4680TIP3    H138235   5.538   0.000  15.994 -3.8543  0.4293 -1.2805
 4680TIP3    H238236   5.422   0.025  16.088 -0.6112 -1.5102  3.6653
 4681TIP3   OH238237   3.786   1.144  17.972  0.0428 -0.1787  0.2882
 4681TIP3    H138238   3.843   1.159  17.896  1.0662 -0.5047  0.9767
 4681TIP3    H238239   3.697   1.143  17.935  0.3675  1.4909 -0.6461
 4682TIP3   OH238240   6.011   3.767  17.430 -0.1871  0.6532 -0.1406
 4682TIP3    H138241   6.071   3.697  17.457 -1.0394  0.0385  0.2240
 4682TIP3    H238242   6.064   3.825  17.376  0.6193 -0.1237 -0.2085
 4683TIP3   OH238243   6.696   6.537  18.127 -1.0715 -0.3995  0.2843
 4683TIP3    H138244   6.757   6.542  18.052 -0.2406 -0.2203  0.9542
 4683TIP3    H238245   6.644   6.458  18.110  0.3149 -1.3747  0.3948
 4684TIP3   OH238246   1.448   1.231  17.909  0.1219  0.0546  0.2711
 4684TIP3    H138247   1.516   1.289  17.944 -0.0485 -0.0163  0.7154
 4684TIP3    H238248   1.493   1.148  17.894  0.4961  0.4371 -0.8570
 4685TIP3   OH238249   0.405   4.460  18.784  0.0835  0.0644 -0.0225
 4685TIP3    H138250   0.403   4.365  18.768 -2.0459 -0.4575  2.7642
 4685TIP3    H238251   0.319   4.491  18.756 -0.5321  0.5277  2.2294
 4686TIP3   OH238252   6.940   5.853  16.971  0.0808  0.0089 -0.4090
 4686TIP3    H138253   6.947   5.861  16.876 -0.6559 -0.3129 -0.4975
 4686TIP3    H238254   6.855   5.812  16.985  0.9923 -1.7144  0.3138
 4687TIP3   OH238255   2.753   5.458  17.593 -0.2348  0.3386 -0.0854
 4687TIP3    H138256   2.781   5.427  17.506  0.9151 -1.2656  0.8113
 4687TIP3    H238257   2.684   5.521  17.574 -1.1414 -1.1489 -2.1297
 4688TIP3   OH238258   0.593   3.821  18.421  0.1155  0.3316 -0.1582
 4688TIP3    H138259   0.552   3.743  18.384  0.6934  0.5606 -1.3255
 4688TIP3    H238260   0.684   3.817  18.393  0.6407  0.4392  1.4140
 4689TIP3   OH238261   0.306   3.446  18.152 -0.2176  0.2651  0.3696
 4689TIP3    H138262   0.323   3.438  18.058  0.0904  1.0792  0.3529
 4689TIP3    H238263   0.285   3.357  18.180 -1.0542  0.1305 -0.6152
 4690TIP3   OH238264   2.885   6.171  17.933 -0.4503  0.5762  0.7638
 4690TIP3    H138265   2.873   6.233  18.005 -2.1933  0.0376  0.9914
 4690TIP3    H238266   2.922   6.094  17.974 -1.2279  0.3531  1.0678
 4691TIP3   OH238267   3.482   4.298  18.638 -0.0539 -0.2890  0.1716
 4691TIP3    H138268   3.539   4.349  18.580  0.7241 -2.2698 -0.9468
 4691TIP3    H238269   3.505   4.326  18.726  2.7042 -0.9424 -0.2380
 4692TIP3   OH238270   3.163   3.870  16.764  0.8423 -0.3563  0.7870
 4692TIP3    H138271   3.079   3.854  16.721  2.2605  0.5316 -2.6495
 4692TIP3    H238272   3.216   3.794  16.742  1.7169  0.2784  0.6607
 4693TIP3   OH238273   7.375   6.945  18.025  0.1931 -0.0352 -0.2649
 4693TIP3    H138274   7.402   7.033  18.050  0.8510  0.2810 -1.9675
 4693TIP3    H238275   7.405   6.935  17.935 -0.9913 -1.5418 -0.5406
 4694TIP3   OH238276   1.106   3.984  17.445 -0.1006  0.4372 -0.1852
 4694TIP3    H138277   1.133   3.953  17.358  1.2333  0.7293  0.0950
 4694TIP3    H238278   1.181   4.035  17.475  0.2970 -1.2512  1.9420
 4695TIP3   OH238279   6.917   6.408  17.730  0.0075  0.4229  0.0796
 4695TIP3    H138280   6.944   6.475  17.668 -0.1632 -0.7792 -1.3675
 4695TIP3    H238281   6.992   6.396  17.788  0.4677  1.0450 -0.3815
 4696TIP3   OH238282   7.359   0.051  16.732  0.1341 -0.2014  0.5121
 4696TIP3    H138283   7.425   0.106  16.773  1.3864 -2.0706  1.1059
 4696TIP3    H238284   7.405   0.007  16.661 -0.7559 -0.7318  0.2487
 4697TIP3   OH238285   6.463   2.228  17.894  0.4449  0.1184 -0.1369
 4697TIP3    H138286   6.465   2.145  17.846  1.1345 -0.1727  0.3858
 4697TIP3    H238287   6.546   2.231  17.941 -0.2353  0.3473  1.1111
 4698TIP3   OH238288   6.504   7.662  17.258 -0.0495 -0.1106 -0.3872
 4698TIP3    H138289   6.512   7.713  17.177 -1.1031 -0.5890 -0.8023
 4698TIP3    H238290   6.489   7.572  17.230  1.4375 -0.6263  0.3467
 4699TIP3   OH238291   6.504   6.463  18.402  0.4304 -0.6605 -0.1564
 4699TIP3    H138292   6.502   6.386  18.459  1.0658 -1.7287 -1.5078
 4699TIP3    H238293   6.536   6.533  18.458 -2.8984 -0.5824  1.9298
 4700TIP3   OH238294   1.814   2.300  17.664  0.5394  0.3318 -0.4230
 4700TIP3    H138295   1.769   2.368  17.613  0.3286  0.3798 -0.1758
 4700TIP3    H238296   1.820   2.336  17.752 -0.8099 -0.5092  0.0570
 4701TIP3   OH238297   4.549   7.591  16.629  0.2170 -0.4460 -0.5538
 4701TIP3    H138298   4.467   7.619  16.670  1.4954  3.0518 -0.0721
 4701TIP3    H238299   4.601   7.555  16.700  0.2793  0.3133 -0.2078
 4702TIP3   OH238300   6.052   3.948  18.430 -0.5727 -0.4170  0.5256
 4702TIP3    H138301   6.080   4.032  18.394  0.7750  0.5388  3.5236
 4702TIP3    H238302   5.959   3.960  18.450 -1.1963 -0.7788 -1.8865
 4703TIP3   OH238303   7.139   5.251  16.540 -0.7371  0.4244 -0.0026
 4703TIP3    H138304   7.171   5.338  16.566 -0.1522 -0.5172  2.8475
 4703TIP3    H238305   7.203   5.191  16.579 -2.3243 -1.3175 -0.0032
 4704TIP3   OH238306   5.945   6.686  18.788  0.6336  0.5010  0.1403
 4704TIP3    H138307   5.884   6.760  18.789  0.6936  0.5484  0.8883
 4704TIP3    H238308   5.911   6.628  18.719  0.6270  1.2462 -0.4967
 4705TIP3   OH238309   7.044   4.033  17.155  0.2534 -0.2507 -0.2555
 4705TIP3    H138310   7.117   3.999  17.102  0.1622  1.3316 -1.4725
 4705TIP3    H238311   7.086   4.076  17.229  0.4350 -1.4552  0.3554
 4706TIP3   OH238312   0.797   2.441  16.894  0.0549 -0.2777  0.3526
 4706TIP3    H138313   0.742   2.373  16.932 -0.8345  1.6086  2.7323
 4706TIP3    H238314   0.736   2.510  16.869  0.8485 -0.5703 -2.7461
 4707TIP3   OH238315   4.374   4.342  17.582 -0.1178 -0.8572  0.3935
 4707TIP3    H138316   4.402   4.256  17.614  0.7561 -0.8633 -0.3568
 4707TIP3    H238317   4.357   4.393  17.661  2.5519 -0.6916  0.9440
 4708TIP3   OH238318   0.670   0.964  18.365  0.9832 -0.2945  0.4182
 4708TIP3    H138319   0.599   0.950  18.427  0.3989  0.3830 -0.0754
 4708TIP3    H238320   0.741   0.908  18.396 -0.3375 -2.3643 -0.0573
 4709TIP3   OH238321   4.578   0.283  17.625 -0.0640 -0.5550 -0.5510
 4709TIP3    H138322   4.616   0.199  17.652 -0.3464 -0.5230 -0.0406
 4709TIP3    H238323   4.506   0.259  17.567 -1.1186 -0.7455  0.7904
 4710TIP3   OH238324   4.758   3.352  17.214 -0.0873  0.1087  0.0464
 4710TIP3    H138325   4.724   3.441  17.215  1.8563  0.9027  0.0947
 4710TIP3    H238326   4.740   3.320  17.126 -1.2061  0.3556  0.1680
 4711TIP3   OH238327   0.996   0.693  18.231 -0.4225  0.1711  0.1846
 4711TIP3    H138328   1.004   0.633  18.157 -0.0230 -0.7652  0.9675
 4711TIP3    H238329   1.079   0.741  18.233  0.2327 -0.9611  0.9946
 4712TIP3   OH238330   1.859   7.017  17.907  0.1651  0.7420 -0.8402
 4712TIP3    H138331   1.876   6.981  17.820 -2.0673 -1.3680 -0.5157
 4712TIP3    H238332   1.876   6.944  17.966  1.3500  2.0641  0.5228
 4713TIP3   OH238333   7.433   4.424  18.624  0.3674  0.2031 -0.0815
 4713TIP3    H138334   7.357   4.428  18.567  0.9327  1.3536 -0.7867
 4713TIP3    H238335   7.506   4.454  18.570  1.2021 -0.1598  0.7986
 4714TIP3   OH238336   0.447   7.033  17.851  0.2335 -0.3538  0.4670
 4714TIP3    H138337   0.426   6.940  17.840  0.7019 -0.5386  1.0719
 4714TIP3    H238338   0.470   7.041  17.943 -0.0498  0.4199  0.4750
 4715TIP3   OH238339   5.360   0.450  17.875 -0.1837  0.3646 -0.9390
 4715TIP3    H138340   5.436   0.501  17.903  0.9108 -1.4667 -0.4711
 4715TIP3    H238341   5.306   0.514  17.828 -0.4604  2.7464  2.2553
 4716TIP3   OH238342   4.950   6.454  15.990 -0.8088 -0.6450 -0.1341
 4716TIP3    H138343   5.002   6.518  15.941  0.1613 -0.4686  1.0699
 4716TIP3    H238344   4.989   6.370  15.969 -0.6641 -0.6154  0.0219
 4717TIP3   OH238345   6.987   3.832  19.013  0.3525 -0.2759 -0.2340
 4717TIP3    H138346   6.989   3.820  18.918 -0.8760  0.3557 -0.3470
 4717TIP3    H238347   6.927   3.905  19.028 -1.9597 -2.2998  1.1893
 4718TIP3   OH238348   6.991   3.824  18.757  0.2238 -0.2019 -0.0730
 4718TIP3    H138349   6.958   3.901  18.712  0.4048 -0.0572  0.0405
 4718TIP3    H238350   7.076   3.807  18.716 -0.1951 -0.8623 -0.7062
 4719TIP3   OH238351   7.400   2.140  17.243  0.2548 -0.2756  0.3256
 4719TIP3    H138352   7.477   2.197  17.244  1.5849 -1.9017 -1.6157
 4719TIP3    H238353   7.435   2.054  17.268 -0.6963 -1.2454 -1.4976
 4720TIP3   OH238354   2.971   4.054  17.379  0.1160  0.0224 -0.1016
 4720TIP3    H138355   3.006   4.078  17.464  0.3006 -0.0024 -0.1705
 4720TIP3    H238356   3.026   4.101  17.316 -0.2327  0.3090 -0.1952
 4721TIP3   OH238357   2.729   1.663  16.985 -0.4092 -0.1677 -0.3957
 4721TIP3    H138358   2.728   1.715  17.065  0.4481 -0.3534 -0.2552
 4721TIP3    H238359   2.793   1.594  17.002 -2.4334 -2.1136 -0.0544
 4722TIP3   OH238360   3.019   5.243  17.654 -0.2988 -0.1408 -0.0889
 4722TIP3    H138361   3.081   5.280  17.591 -1.8097  0.3636 -1.3582
 4722TIP3    H238362   3.052   5.155  17.672  0.4330 -0.1225 -1.2371
 4723TIP3   OH238363   5.140   7.522  17.872  0.1906 -0.6725 -0.0768
 4723TIP3    H138364   5.124   7.544  17.963 -0.8722 -0.0559 -0.3922
 4723TIP3    H238365   5.144   7.426  17.870  0.6833 -0.6732  0.6774
 4724TIP3   OH238366   5.549   0.458  18.606 -0.2561  0.4656 -0.4361
 4724TIP3    H138367   5.486   0.513  18.653 -0.2098  0.5559 -0.4803
 4724TIP3    H238368   5.495   0.391  18.564 -0.3027  0.4192 -0.3009
 4725TIP3   OH238369   1.585   5.092  16.194 -0.3351  0.6838 -0.2128
 4725TIP3    H138370   1.630   5.041  16.126 -0.6731 -0.8033  0.6429
 4725TIP3    H238371   1.499   5.112  16.156 -2.1659 -3.6222  1.1150
 4726TIP3   OH238372   4.449   3.185  18.251  0.2218 -0.1141 -0.0176
 4726TIP3    H138373   4.396   3.153  18.178  1.9043 -0.5355 -1.1158
 4726TIP3    H238374   4.398   3.163  18.329 -0.8686 -1.1397 -0.9736
 4727TIP3   OH238375   6.155   2.569  18.636  0.2199 -0.1646  0.8282
 4727TIP3    H138376   6.197   2.624  18.702  1.3843  0.4142 -0.3393
 4727TIP3    H238377   6.205   2.487  18.638 -1.7391 -1.4380  2.8206
 4728TIP3   OH238378   2.453   7.408  16.447 -0.5850  0.0629 -0.9260
 4728TIP3    H138379   2.384   7.367  16.394 -1.5688 -1.1640  1.1674
 4728TIP3    H238380   2.423   7.499  16.458 -2.0529 -0.5103  0.1560
 4729TIP3   OH238381   5.339   0.516  17.444 -0.2515  0.1111  0.1475
 4729TIP3    H138382   5.263   0.491  17.497  0.0938 -0.2316  0.4898
 4729TIP3    H238383   5.408   0.456  17.472  0.6839  1.6171  1.2100
 4730TIP3   OH238384   1.359   5.778  18.479  0.3560  0.2357  0.3488
 4730TIP3    H138385   1.444   5.810  18.509  0.0022  0.4714  1.1286
 4730TIP3    H238386   1.377   5.691  18.443  0.9575  0.3635  0.3331
 4731TIP3   OH238387   0.357   1.522  18.181 -0.4262  0.0419 -0.0692
 4731TIP3    H138388   0.387   1.478  18.260 -1.2030  1.2774  0.9377
 4731TIP3    H238389   0.296   1.459  18.141 -1.7845  0.2558  1.5289
 4732TIP3   OH238390   0.045   3.028  18.235 -0.6863  0.4847  0.4553
 4732TIP3    H138391   0.062   3.104  18.179  1.7433  1.0561  1.8312
 4732TIP3    H238392   0.122   2.972  18.225 -1.3244 -0.6140  1.3430
 4733TIP3   OH238393   3.597   6.330  17.379  0.0226 -0.0078 -0.1701
 4733TIP3    H138394   3.674   6.387  17.379 -0.0084  0.0370  0.3134
 4733TIP3    H238395   3.627   6.249  17.420  0.4818 -0.9295 -2.1773
 4734TIP3   OH238396   7.195   5.796  18.505 -0.2265  0.4376  0.0065
 4734TIP3    H138397   7.272   5.780  18.449 -1.5557  0.6463 -1.9871
 4734TIP3    H238398   7.229   5.849  18.577  1.5328  0.3958 -0.7224
 4735TIP3   OH238399   2.469   1.736  16.923 -0.1472  0.1684  0.9195
 4735TIP3    H138400   2.452   1.735  16.829 -1.6250  0.2962  1.1689
 4735TIP3    H238401   2.545   1.679  16.934 -0.6384 -0.7427 -0.2246
 4736TIP3   OH238402   7.087   3.292  17.419  0.7917 -0.2687 -0.4921
 4736TIP3    H138403   7.122   3.203  17.417  1.1675 -0.1241 -0.4411
 4736TIP3    H238404   7.126   3.335  17.343  0.6495 -0.1351 -0.4910
 4737TIP3   OH238405   0.068   0.526  16.132  0.2568  0.5961  0.2906
 4737TIP3    H138406  -0.004   0.586  16.150  0.9704  0.8145  2.6528
 4737TIP3    H238407   0.145   0.581  16.124  0.4685  0.2110 -0.4555
 4738TIP3   OH238408   6.939   7.446  17.516 -0.5016 -0.4727  0.5889
 4738TIP3    H138409   7.022   7.413  17.480 -0.6930 -2.5111  1.8749
 4738TIP3    H238410   6.953   7.541  17.524  0.3916 -0.2205 -2.4986
 4739TIP3   OH238411   2.352   0.515  16.964  0.1379 -0.6231 -0.1453
 4739TIP3    H138412   2.379   0.468  17.043  2.0165  0.3490 -0.1400
 4739TIP3    H238413   2.334   0.447  16.900  0.0384 -1.3916  0.6791
 4740TIP3   OH238414   6.670   7.068  16.055  0.0123 -0.1770  0.4641
 4740TIP3    H138415   6.620   7.125  15.997 -1.5482 -0.5138  1.4021
 4740TIP3    H238416   6.643   6.979  16.032  0.1361 -0.3634  1.0095
 4741TIP3   OH238417   4.285   6.650  17.241  0.5109  0.3810 -0.0722
 4741TIP3    H138418   4.244   6.698  17.313  2.1640  1.0813  0.4535
 4741TIP3    H238419   4.216   6.593  17.207 -0.6734  1.0101  1.2011
 4742TIP3   OH238420   7.279   3.615  18.437 -0.2356 -0.4949 -0.2324
 4742TIP3    H138421   7.272   3.544  18.502 -0.6619 -0.1031  0.1526
 4742TIP3    H238422   7.239   3.691  18.480  1.7200  0.4484  0.0196
 4743TIP3   OH238423   6.382   5.422  18.931  0.2072  1.0179 -0.0883
 4743TIP3    H138424   6.359   5.508  18.967 -1.9317  0.3328  0.3659
 4743TIP3    H238425   6.356   5.428  18.839  1.8236  1.4305 -0.5469
 4744TIP3   OH238426   5.712   2.484  17.753 -1.0429  0.4173  0.4740
 4744TIP3    H138427   5.804   2.502  17.737 -0.1362 -2.0962  2.1248
 4744TIP3    H238428   5.686   2.547  17.821 -0.2851  0.5748  0.6215
 4745TIP3   OH238429   0.621   4.728  17.280  0.1855  0.0398  0.0938
 4745TIP3    H138430   0.687   4.789  17.314  0.5170  0.7229 -1.6419
 4745TIP3    H238431   0.542   4.747  17.330  0.7747  0.6065  0.8403
 4746TIP3   OH238432   3.146   0.848  18.685  0.4012  0.3678 -0.0138
 4746TIP3    H138433   3.156   0.817  18.595  2.5727 -0.1668  0.3756
 4746TIP3    H238434   3.066   0.902  18.683 -0.9174 -1.5115 -1.7101
 4747TIP3   OH238435   0.766   1.095  17.887  0.0057  0.8254  0.3702
 4747TIP3    H138436   0.776   1.023  17.950 -1.5289 -1.0932 -1.4066
 4747TIP3    H238437   0.831   1.075  17.819  0.2860  1.7496  0.3556
 4748TIP3   OH238438   0.068   4.464  17.930 -0.2611  0.4160 -0.0910
 4748TIP3    H138439   0.060   4.494  17.839  1.4309  0.1929 -0.3461
 4748TIP3    H238440   0.148   4.412  17.931 -1.1573 -1.0249  1.1784
 4749TIP3   OH238441   5.381   1.077  16.004 -0.3523 -0.3035  0.4517
 4749TIP3    H138442   5.475   1.091  16.011 -0.0039 -0.4364 -2.5905
 4749TIP3    H238443   5.373   0.991  15.962 -1.7524  0.3689 -0.7406
 4750TIP3   OH238444   6.811   3.644  19.119  0.0981 -0.2244 -0.0165
 4750TIP3    H138445   6.863   3.719  19.088  0.0128  0.2917  1.0378
 4750TIP3    H238446   6.843   3.627  19.207 -1.6282  0.2369  0.7491
 4751TIP3   OH238447   0.242   1.800  17.776 -0.5892 -0.3864 -0.6920
 4751TIP3    H138448   0.273   1.884  17.739 -2.4140  0.8022  0.3405
 4751TIP3    H238449   0.216   1.749  17.700 -0.5452  0.4359 -1.2782
 4752TIP3   OH238450   2.084   5.987  18.363 -0.2487  0.3140  0.0032
 4752TIP3    H138451   2.063   5.932  18.439  1.0112 -0.0580  0.0974
 4752TIP3    H238452   2.124   5.927  18.300 -0.5785  0.7711 -0.6635
 4753TIP3   OH238453   0.537   1.112  17.588  0.2826 -0.5530 -0.8437
 4753TIP3    H138454   0.592   1.045  17.629 -0.3289 -1.6763 -1.7919
 4753TIP3    H238455   0.595   1.188  17.581  0.4632 -0.3495  1.8517
 4754TIP3   OH238456   3.108   4.791  18.579 -0.4105  0.0986 -0.3290
 4754TIP3    H138457   3.055   4.810  18.502  1.8379 -1.2598 -2.3266
 4754TIP3    H238458   3.165   4.867  18.589 -1.0046  0.4756  0.3303
 4755TIP3   OH238459   5.123   4.012  18.545 -0.0662 -0.2936 -0.9114
 4755TIP3    H138460   5.069   4.044  18.472  0.2792  1.1719 -0.5475
 4755TIP3    H238461   5.213   4.035  18.521  0.0437  0.2871  0.0049
 4756TIP3   OH238462   4.422   1.149  17.016 -0.4615  0.0953 -0.3038
 4756TIP3    H138463   4.362   1.075  17.027 -0.2918 -0.1261 -0.8681
 4756TIP3    H238464   4.466   1.157  17.101  1.1952 -1.9189 -0.9103
 4757TIP3   OH238465   2.055   3.933  18.144  0.0803 -0.3348  0.6735
 4757TIP3    H138466   2.095   3.849  18.164 -0.6673 -0.8902 -0.0814
 4757TIP3    H238467   2.069   3.945  18.050  0.8176  0.7448  0.9017
 4758TIP3   OH238468   4.074   6.277  16.499 -0.0263 -0.4192 -0.5750
 4758TIP3    H138469   3.980   6.281  16.520  0.0386 -0.5002 -0.2598
 4758TIP3    H238470   4.078   6.228  16.417 -0.3180  0.2541 -0.9986
 4759TIP3   OH238471   0.270   6.050  16.867 -0.1424  0.0236  0.2292
 4759TIP3    H138472   0.216   5.971  16.874 -0.8758  0.2803 -1.8165
 4759TIP3    H238473   0.356   6.023  16.900 -0.7804 -1.2018  0.9434
 4760TIP3   OH238474   4.498   0.721  16.127 -0.2474  0.4667  0.5487
 4760TIP3    H138475   4.590   0.709  16.150 -0.2024  2.4976  1.7409
 4760TIP3    H238476   4.471   0.798  16.178 -2.0584  1.1178 -1.2412
 4761TIP3   OH238477   2.939   5.995  17.467 -0.5418  0.2451  0.3039
 4761TIP3    H138478   2.865   5.992  17.528 -0.4282  0.7864  0.4772
 4761TIP3    H238479   2.996   6.063  17.503 -0.9242  1.2646 -0.9139
 4762TIP3   OH238480   3.130   5.688  16.861 -0.0295 -0.3785 -0.1335
 4762TIP3    H138481   3.077   5.665  16.938  2.2821 -0.6548  1.4806
 4762TIP3    H238482   3.183   5.610  16.845  0.7704  0.3172 -0.9281
 4763TIP3   OH238483   4.792   1.372  17.290  0.0134 -0.4010  0.2085
 4763TIP3    H138484   4.845   1.407  17.219  0.7824 -1.7321  0.0947
 4763TIP3    H238485   4.759   1.288  17.257 -2.9674  0.7397 -0.0705
 4764TIP3   OH238486   5.763   1.418  18.689  0.2838  0.5565  0.2544
 4764TIP3    H138487   5.846   1.423  18.642 -0.0367 -1.2970 -0.6049
 4764TIP3    H238488   5.787   1.411  18.781  1.0826 -0.1374 -0.0057
 4765TIP3   OH238489   5.559   6.736  18.739 -0.3617 -0.3389 -0.7447
 4765TIP3    H138490   5.537   6.771  18.653 -1.5242 -0.1227 -0.3828
 4765TIP3    H238491   5.518   6.650  18.741 -0.2042 -0.4079 -0.4779
 4766TIP3   OH238492   4.654   1.456  17.522  0.3058 -0.2874 -0.5806
 4766TIP3    H138493   4.716   1.411  17.580  0.9143  0.5721 -0.5528
 4766TIP3    H238494   4.690   1.443  17.435  0.4993  0.1543 -0.5704
 4767TIP3   OH238495   3.050   3.402  16.750 -0.6271 -0.3053  0.3804
 4767TIP3    H138496   3.028   3.494  16.733  0.1054 -0.3606 -1.0591
 4767TIP3    H238497   2.987   3.353  16.697 -0.2191 -0.5906  0.1595
 4768TIP3   OH238498   2.354   2.922  18.086  0.1924 -0.6015 -0.5096
 4768TIP3    H138499   2.335   2.877  18.169  1.3837  0.7358  0.5460
 4768TIP3    H238500   2.274   2.915  18.036 -1.8643  1.5210  2.1603
 4769TIP3   OH238501   2.935   5.310  17.982  0.1494  0.0051 -0.4337
 4769TIP3    H138502   3.007   5.251  18.000 -1.3869 -1.3761  1.6532
 4769TIP3    H238503   2.922   5.358  18.064 -0.8942  0.6630 -0.9547
 4770TIP3   OH238504   1.383   2.349  16.903 -0.5402 -0.1957 -0.2238
 4770TIP3    H138505   1.427   2.351  16.988  0.1921  0.9039 -0.6123
 4770TIP3    H238506   1.302   2.397  16.918  0.6032  2.0091 -0.6488
 4771TIP3   OH238507   5.287   7.022  17.651 -0.2326  0.0194 -0.2933
 4771TIP3    H138508   5.356   7.004  17.715 -0.1377 -0.6891 -0.5838
 4771TIP3    H238509   5.222   6.952  17.665  1.0165 -1.7681 -2.6899
 4772TIP3   OH238510   3.178   6.797  17.530 -0.3961 -0.3858 -0.1571
 4772TIP3    H138511   3.269   6.778  17.553 -0.4960  0.4949  1.0881
 4772TIP3    H238512   3.168   6.763  17.441  0.3795 -2.8969  0.6385
 4773TIP3   OH238513   4.202   2.547  18.224  0.4636  0.2743  0.4705
 4773TIP3    H138514   4.211   2.491  18.147  0.2149 -0.3351  0.8825
 4773TIP3    H238515   4.124   2.599  18.207  0.3554  0.0734  0.3475
 4774TIP3   OH238516   6.832   4.052  19.023 -0.0790 -0.3268  0.1821
 4774TIP3    H138517   6.807   4.086  18.937 -1.7707 -2.1121 -0.1282
 4774TIP3    H238518   6.873   4.125  19.067 -0.4996  1.0739 -1.6187
 4775TIP3   OH238519   6.230   4.455  18.667  0.0828  0.4572 -0.3612
 4775TIP3    H138520   6.195   4.544  18.670 -0.0195  0.4250 -0.5805
 4775TIP3    H238521   6.155   4.399  18.687 -0.7824  0.1916 -3.6538
 4776TIP3   OH238522   7.622   2.432  17.754 -0.0612 -0.0952  0.1167
 4776TIP3    H138523   7.679   2.494  17.709 -0.7897  0.1633 -0.4740
 4776TIP3    H238524   7.584   2.379  17.684  0.3818 -1.0676  0.6013
 4777TIP3   OH238525   2.582   4.088  18.721  0.1833 -0.0954  0.1819
 4777TIP3    H138526   2.531   4.008  18.735  1.7415 -1.0267  0.7852
 4777TIP3    H238527   2.539   4.131  18.647 -0.9794 -1.2375  0.1503
 4778TIP3   OH238528   2.382   4.003  16.860  0.2616  0.6748  0.0796
 4778TIP3    H138529   2.411   4.074  16.803 -1.6967 -0.0009 -1.8711
 4778TIP3    H238530   2.443   3.931  16.843  0.3400  0.8352 -0.3128
 4779TIP3   OH238531   0.203   0.975  18.571 -0.1830  0.1486  0.1617
 4779TIP3    H138532   0.255   1.014  18.501 -1.2300  1.8860  0.2942
 4779TIP3    H238533   0.154   1.048  18.608 -2.2989 -1.3214  0.4111
 4780TIP3   OH238534   1.870   1.643  17.337 -0.0538  0.5349  0.4163
 4780TIP3    H138535   1.903   1.677  17.420  0.9174  2.0169 -0.5063
 4780TIP3    H238536   1.834   1.720  17.292  0.5296  0.0195 -1.0167
 4781TIP3   OH238537   5.551   0.023  15.799 -0.1528  0.2737  0.0987
 4781TIP3    H138538   5.631  -0.031  15.797 -1.1516 -1.3112  0.7706
 4781TIP3    H238539   5.582   0.112  15.788  1.9416 -0.0556  2.3748
 4782TIP3   OH238540   6.440   0.203  17.400  0.1141  0.5696 -0.5087
 4782TIP3    H138541   6.452   0.274  17.337  3.7750  0.1288 -0.5466
 4782TIP3    H238542   6.467   0.124  17.353 -0.5487 -0.3179  0.5581
 4783TIP3   OH238543   2.489   6.558  16.737 -0.0281 -0.3053 -0.2616
 4783TIP3    H138544   2.456   6.636  16.781 -0.0527 -0.3347 -0.2271
 4783TIP3    H238545   2.453   6.563  16.649 -0.0653 -0.3014 -0.2468
 4784TIP3   OH238546   0.092   6.704  18.936 -0.3282  0.4886  0.4845
 4784TIP3    H138547   0.004   6.707  18.974 -0.8099  1.1159 -0.6613
 4784TIP3    H238548   0.078   6.704  18.842  0.9187  0.8270  0.2827
 4785TIP3   OH238549   4.423   2.908  18.083  0.1729  0.1970  0.1516
 4785TIP3    H138550   4.470   2.898  18.165 -0.5810 -3.1474  0.3473
 4785TIP3    H238551   4.461   2.841  18.026 -0.3986  1.3760 -1.6884
 4786TIP3   OH238552   4.895   4.020  16.699 -0.2504 -0.1251 -0.0395
 4786TIP3    H138553   4.809   3.982  16.717 -0.3793 -0.3273 -1.0037
 4786TIP3    H238554   4.876   4.098  16.646  0.0632  0.8200  1.1937
 4787TIP3   OH238555   2.898   6.838  16.862 -0.2564  0.7743  0.0502
 4787TIP3    H138556   2.887   6.764  16.801 -0.2808  0.7948  0.0297
 4787TIP3    H238557   2.993   6.844  16.874 -0.3303 -0.7290  1.8580
 4788TIP3   OH238558   1.511   5.372  16.954  0.2234  0.1336  0.3095
 4788TIP3    H138559   1.481   5.295  16.907  0.6765 -0.0404  0.2946
 4788TIP3    H238560   1.607   5.367  16.949  0.2556  1.0373 -0.2435
 4789TIP3   OH238561   2.745   4.671  17.766 -0.8556 -0.0454  0.8641
 4789TIP3    H138562   2.723   4.586  17.728 -1.1256  0.2223  0.4067
 4789TIP3    H238563   2.663   4.703  17.803 -0.9154  0.3166  0.4292
 4790TIP3   OH238564   1.040   6.446  18.749  0.3606 -0.2335  0.9293
 4790TIP3    H138565   1.007   6.536  18.744 -1.1319 -0.8086 -0.2797
 4790TIP3    H238566   1.007   6.404  18.670  2.1185 -1.5187  0.8249
 4791TIP3   OH238567   6.163   0.331  16.564 -0.3721 -0.1117 -1.0847
 4791TIP3    H138568   6.258   0.331  16.564 -0.2820  1.3497  1.6195
 4791TIP3    H238569   6.139   0.255  16.510  2.3166 -1.4742 -0.5221
 4792TIP3   OH238570   3.397   5.433  18.772  0.3497  0.5734  0.0706
 4792TIP3    H138571   3.450   5.472  18.702  0.7486  2.4585  1.3623
 4792TIP3    H238572   3.460   5.402  18.836 -0.0398 -0.3486  0.0239
 4793TIP3   OH238573   4.464   6.158  18.366 -0.4898  0.1670 -0.0800
 4793TIP3    H138574   4.502   6.213  18.297  0.2578  0.9870  0.9441
 4793TIP3    H238575   4.391   6.209  18.401 -0.6569 -0.0946 -0.0401
 4794TIP3   OH238576   7.298   0.450  17.367  0.2174  0.3154 -0.2044
 4794TIP3    H138577   7.365   0.386  17.393  0.0410  0.3051  0.2364
 4794TIP3    H238578   7.293   0.443  17.272 -0.9552 -1.4988 -0.0608
 4795TIP3   OH238579   3.491   4.766  18.409 -0.0412 -0.0679 -0.3841
 4795TIP3    H138580   3.427   4.708  18.450  0.2247 -1.2766 -1.6030
 4795TIP3    H238581   3.555   4.707  18.368 -0.1798  1.0283 -2.3254
 4796TIP3   OH238582   3.552   5.902  17.982 -0.3190 -0.4069 -0.0308
 4796TIP3    H138583   3.527   5.875  18.070  0.3639 -0.6736  0.0831
 4796TIP3    H238584   3.470   5.901  17.932 -0.5402 -1.2572  0.3394
 4797TIP3   OH238585   6.237   1.378  17.029  0.2905  0.0741  0.1715
 4797TIP3    H138586   6.268   1.412  16.945 -3.0438  2.6452 -0.2389
 4797TIP3    H238587   6.234   1.454  17.086 -1.1069 -0.8415  1.4100
 4798TIP3   OH238588   1.164   5.998  17.749  0.1344  0.1703 -0.1430
 4798TIP3    H138589   1.072   5.973  17.745  0.0347  0.1450  1.4888
 4798TIP3    H238590   1.171   6.075  17.694 -0.5463 -0.6526 -1.4432
 4799TIP3   OH238591   2.892   1.771  17.710  0.0090 -0.4728 -0.1074
 4799TIP3    H138592   2.812   1.761  17.659 -0.7820  0.9569  0.7714
 4799TIP3    H238593   2.914   1.864  17.702  1.0610 -0.6573  0.4184
 4800TIP3   OH238594   0.614   6.046  16.174  0.0785 -0.2478  0.2080
 4800TIP3    H138595   0.689   6.104  16.164  0.2009 -0.6699 -1.7284
 4800TIP3    H238596   0.538   6.105  16.168  0.2284 -0.0649  0.0676
 4801TIP3   OH238597   6.108   1.249  16.106  0.5016  0.6741 -0.1165
 4801TIP3    H138598   6.023   1.210  16.086  0.7488 -0.6459  1.2378
 4801TIP3    H238599   6.169   1.207  16.046  0.9399 -1.9375  1.9711
 4802TIP3   OH238600   3.938   5.419  16.206 -0.7877 -0.1450 -0.3736
 4802TIP3    H138601   3.959   5.471  16.129 -0.8943 -1.2296 -1.1490
 4802TIP3    H238602   3.963   5.475  16.280 -1.4432  1.2312 -1.1597
 4803TIP3   OH238603   7.274   5.471  18.516 -0.0621  0.1098 -1.2185
 4803TIP3    H138604   7.362   5.475  18.478  0.7486 -0.5455  0.4888
 4803TIP3    H238605   7.269   5.385  18.556  0.2010  1.6273  2.4349
 4804TIP3   OH238606   5.561   2.495  18.222 -0.4735  0.5918 -0.3469
 4804TIP3    H138607   5.619   2.502  18.298 -2.3118  2.4625  0.9720
 4804TIP3    H238608   5.535   2.403  18.219  1.8704 -0.1345 -0.5304
 4805TIP3   OH238609   6.913   4.651  19.140 -0.2104  0.7081  0.3168
 4805TIP3    H138610   6.904   4.736  19.096 -0.7048  0.8442  0.6722
 4805TIP3    H238611   6.833   4.642  19.192 -1.8040 -1.4887 -2.2821
 4806TIP3   OH238612   5.386   4.355  19.024 -0.0537 -0.6975 -0.4275
 4806TIP3    H138613   5.389   4.307  19.106  0.2729  0.5355  0.2988
 4806TIP3    H238614   5.336   4.298  18.965 -1.3278 -1.0871  0.9608
 4807TIP3   OH238615   6.270   5.208  17.764 -0.1219 -0.3147 -0.4466
 4807TIP3    H138616   6.283   5.128  17.815  1.3291 -0.9902 -1.7946
 4807TIP3    H238617   6.177   5.207  17.741 -0.1377 -1.5597 -0.3621
 4808TIP3   OH238618   5.462   5.949  18.480 -0.0362 -0.3622 -0.4854
 4808TIP3    H138619   5.400   6.020  18.493 -0.8832 -1.4397  2.1235
 4808TIP3    H238620   5.529   5.963  18.547  1.1163 -0.6751 -1.5454
 4809TIP3   OH238621   6.176   5.364  16.930  0.4098 -0.0241 -0.0642
 4809TIP3    H138622   6.169   5.421  16.853  0.1717  0.2272  0.1411
 4809TIP3    H238623   6.085   5.353  16.959  0.4188 -0.7669 -0.2892
 4810TIP3   OH238624   0.798   2.019  16.395  0.3115 -0.0868 -0.3390
 4810TIP3    H138625   0.714   2.029  16.350 -0.6771 -2.8762  0.6642
 4810TIP3    H238626   0.854   2.086  16.356 -1.7912  0.5964 -2.4520
 4811TIP3   OH238627   6.524   1.831  18.394  0.2565 -0.3032 -1.3275
 4811TIP3    H138628   6.612   1.866  18.406  0.7600 -1.3552 -1.7658
 4811TIP3    H238629   6.494   1.871  18.312 -0.2944  1.2402 -0.3922
 4812TIP3   OH238630   5.258   7.446  18.134  0.2428  0.1965  0.3338
 4812TIP3    H138631   5.172   7.427  18.172 -1.9698  2.8340 -2.7650
 4812TIP3    H238632   5.290   7.522  18.184 -0.1645  0.4033  0.2863
 4813TIP3   OH238633   7.152   3.419  17.202  0.1959  0.0237  0.0754
 4813TIP3    H138634   7.142   3.338  17.153 -4.2200  1.7092 -2.4315
 4813TIP3    H238635   7.220   3.468  17.155  1.7563 -1.4990  0.6675
 4814TIP3   OH238636   3.344   0.015  18.782  0.0396 -0.4639 -0.1112
 4814TIP3    H138637   3.250   0.010  18.762 -0.3958 -0.3736  1.7066
 4814TIP3    H238638   3.371  -0.076  18.792  0.1374 -0.4856 -0.5390
 4815TIP3   OH238639   4.480   0.124  17.212 -0.1501  0.0530  0.2533
 4815TIP3    H138640   4.496   0.206  17.165 -2.8165 -1.3768 -3.5481
 4815TIP3    H238641   4.555   0.069  17.190  1.4644  1.1575  2.5272
 4816TIP3   OH238642   6.100   0.643  15.708  0.3345 -0.2142 -0.1787
 4816TIP3    H138643   6.177   0.697  15.727  0.2941 -0.1623 -0.1623
 4816TIP3    H238644   6.123   0.556  15.742 -0.3260  0.2344  1.5216
 4817TIP3   OH238645   1.717   6.272  18.029 -0.0703  0.1226  0.0565
 4817TIP3    H138646   1.796   6.227  17.998 -0.6781 -0.5604 -0.5462
 4817TIP3    H238647   1.661   6.202  18.063 -0.2315  0.6543  0.9151
 4818TIP3   OH238648   0.887   1.242  16.589 -0.2594  0.4631 -0.5582
 4818TIP3    H138649   0.966   1.290  16.564  1.7871 -1.0244  2.4066
 4818TIP3    H238650   0.901   1.154  16.553  0.0879 -0.1433  0.9846
 4819TIP3   OH238651   5.043   2.470  17.787 -1.2508  0.4894  0.1633
 4819TIP3    H138652   5.022   2.505  17.873  1.1439 -1.4526  1.6635
 4819TIP3    H238653   5.053   2.376  17.801  1.5352  0.3908 -1.6508
 4820TIP3   OH238654   0.080   6.053  17.778  0.0834  0.4349 -0.1941
 4820TIP3    H138655   0.003   6.010  17.740  0.5500  0.2638 -0.9552
 4820TIP3    H238656   0.126   5.983  17.825 -0.1262  0.5000  0.1123
 4821TIP3   OH238657   6.859   3.420  17.493 -0.2792  0.0240 -0.6224
 4821TIP3    H138658   6.890   3.447  17.579 -0.3052  2.5918 -1.3465
 4821TIP3    H238659   6.939   3.403  17.443 -0.2386 -0.4065 -0.4152
 4822TIP3   OH238660   7.012   0.770  18.264  0.1463 -0.2060 -0.6109
 4822TIP3    H138661   7.062   0.845  18.231  0.7085 -0.0414  0.5515
 4822TIP3    H238662   6.932   0.809  18.301  1.0068  0.0095  1.1366
 4823TIP3   OH238663   3.453   4.865  18.902 -0.4493 -1.0208 -0.5058
 4823TIP3    H138664   3.512   4.791  18.917  0.1390 -0.6486 -0.9500
 4823TIP3    H238665   3.511   4.939  18.883 -1.0012 -0.3107  0.4324
 4824TIP3   OH238666   1.773   3.811  18.341  0.0038  0.0976 -0.0037
 4824TIP3    H138667   1.816   3.883  18.389 -0.9135  0.3608  0.4547
 4824TIP3    H238668   1.839   3.743  18.336  0.7410  0.7940 -0.0244
 4825TIP3   OH238669   7.550   6.936  16.476  0.3949  0.7207 -0.8051
 4825TIP3    H138670   7.521   6.993  16.406 -0.8593 -0.8814 -1.6610
 4825TIP3    H238671   7.643   6.923  16.460 -0.1267 -0.7803 -3.1357
 4826TIP3   OH238672   5.082   4.626  19.367  0.1447 -0.4327 -0.1109
 4826TIP3    H138673   5.046   4.554  19.315 -1.4005  0.0502  0.2239
 4826TIP3    H238674   5.149   4.586  19.422  0.4047 -1.3161 -1.0525
 4827TIP3   OH238675   2.773   1.382  18.161 -0.2153  0.5752  0.1912
 4827TIP3    H138676   2.719   1.374  18.240 -0.1316 -1.2556  0.1015
 4827TIP3    H238677   2.710   1.389  18.089 -0.2923  1.9565  0.3748
 4828TIP3   OH238678   1.363   0.704  16.502  0.4685 -0.0050 -0.4509
 4828TIP3    H138679   1.310   0.782  16.489  1.0789  0.4060 -0.4800
 4828TIP3    H238680   1.379   0.671  16.413 -1.3030 -1.2060 -0.3801
 4829TIP3   OH238681   0.613   4.907  16.950  0.7839  0.2707 -0.0589
 4829TIP3    H138682   0.636   4.867  16.866  0.9153  0.7196 -0.2420
 4829TIP3    H238683   0.694   4.949  16.979  0.9310 -0.4637  0.6307
 4830TIP3   OH238684   7.048   1.566  16.041  0.4896 -0.2450 -0.6444
 4830TIP3    H138685   7.028   1.490  15.987  0.4565 -0.3902 -0.4297
 4830TIP3    H238686   6.968   1.581  16.091  0.1915  0.4556 -1.3016
 4831TIP3   OH238687   5.042   6.070  18.525 -0.3567 -0.0542 -0.1904
 4831TIP3    H138688   4.959   6.046  18.483  0.3955 -0.0733 -1.7343
 4831TIP3    H238689   5.105   6.073  18.453  0.9508  0.1455  0.9286
 4832TIP3   OH238690   7.156   0.282  18.149 -0.4617 -0.0251  0.1680
 4832TIP3    H138691   7.154   0.291  18.244  0.9080 -1.0365  0.3308
 4832TIP3    H238692   7.116   0.362  18.115  0.4045  1.0166  1.5661
 4833TIP3   OH238693   4.916   2.488  18.374  0.0678  0.2811  0.9085
 4833TIP3    H138694   5.001   2.483  18.418 -0.2823  2.6344  1.9786
 4833TIP3    H238695   4.853   2.460  18.440 -0.1854  0.7108  0.8472
 4834TIP3   OH238696   4.501   1.353  16.837 -0.1896  0.3606  0.4683
 4834TIP3    H138697   4.501   1.324  16.746  0.3488  0.8955  0.2868
 4834TIP3    H238698   4.485   1.274  16.888 -0.7155  0.0932 -0.1016
 4835TIP3   OH238699   2.015   7.028  17.423 -0.4626 -0.3376 -0.1548
 4835TIP3    H138700   2.084   7.093  17.434 -0.9207  0.3264 -1.1781
 4835TIP3    H238701   1.934   7.078  17.421 -0.6997 -0.7157 -2.8429
 4836TIP3   OH238702   1.830   3.402  16.919  0.9565 -0.8435  0.2773
 4836TIP3    H138703   1.787   3.481  16.953  2.1109 -0.4548  0.8703
 4836TIP3    H238704   1.758   3.341  16.903 -0.2503  1.1266 -2.4860
 4837TIP3   OH238705   6.080   1.767  18.482  0.1002 -0.6331 -0.3978
 4837TIP3    H138706   6.027   1.794  18.407 -1.8109 -2.2497  0.2859
 4837TIP3    H238707   6.096   1.848  18.531  0.3267  0.2436 -1.8747
 4838TIP3   OH238708   0.670   2.211  17.030  0.0902 -0.4516  0.5904
 4838TIP3    H138709   0.634   2.206  17.118 -0.9542 -1.9030  0.1324
 4838TIP3    H238710   0.622   2.143  16.981 -0.2343  1.1120 -1.3890
 4839TIP3   OH238711   3.966   5.877  16.824  0.0480  0.2174 -0.3680
 4839TIP3    H138712   3.937   5.930  16.749  0.0296 -0.8516 -1.1304
 4839TIP3    H238713   3.909   5.905  16.896  0.5064  1.7434 -0.5491
 4840TIP3   OH238714   7.016   3.209  18.216  0.4405 -0.2621 -0.1760
 4840TIP3    H138715   6.984   3.205  18.126  0.4247 -2.8565 -0.1098
 4840TIP3    H238716   6.936   3.206  18.270  0.5163 -0.1341 -0.0553
 4841TIP3   OH238717   2.840   4.799  18.753  0.4188  0.5029  0.0513
 4841TIP3    H138718   2.827   4.860  18.680 -0.2429  0.6856  0.3065
 4841TIP3    H238719   2.759   4.805  18.804 -0.2043 -1.5292 -0.6052
 4842TIP3   OH238720   5.033   5.692  17.528 -0.0918 -0.1492  0.0725
 4842TIP3    H138721   4.965   5.652  17.473 -0.0890  0.1245 -0.1365
 4842TIP3    H238722   4.984   5.732  17.600 -0.1862  0.3364 -0.2561
 4843TIP3   OH238723   1.685   2.462  17.467 -0.2510 -0.2725  0.1195
 4843TIP3    H138724   1.688   2.555  17.446 -3.7131 -0.2965 -1.1502
 4843TIP3    H238725   1.591   2.443  17.476  0.4344 -3.1325  2.8705
 4844TIP3   OH238726   4.707   6.329  18.550 -0.3666 -0.2489 -0.3840
 4844TIP3    H138727   4.647   6.378  18.495 -0.7810  0.2840  0.5219
 4844TIP3    H238728   4.787   6.381  18.552 -1.4635  1.5032  2.1984
 4845TIP3   OH238729   4.868   3.375  18.471 -0.9498 -0.1658  0.0825
 4845TIP3    H138730   4.891   3.462  18.438 -0.6728  0.3407  1.5665
 4845TIP3    H238731   4.952   3.332  18.485 -1.0374 -0.1301  0.7461
 4846TIP3   OH238732   1.465   5.774  16.953 -0.4999  0.4931  0.3069
 4846TIP3    H138733   1.552   5.733  16.954 -0.7743 -0.0932  1.3349
 4846TIP3    H238734   1.430   5.757  17.040 -1.6541  0.7350 -0.1020
 4847TIP3   OH238735   6.568   1.988  17.825 -0.2557  0.0320  0.0747
 4847TIP3    H138736   6.630   1.988  17.898  0.2826  2.2620 -0.3236
 4847TIP3    H238737   6.528   1.901  17.829 -0.0315 -0.0568  2.8260
 4848TIP3   OH238738   0.323   1.060  18.343  0.6303  0.3342 -0.3289
 4848TIP3    H138739   0.319   0.978  18.294  0.7127  1.1775 -1.8244
 4848TIP3    H238740   0.396   1.108  18.303  0.4927  1.2012  0.4227
 4849TIP3   OH238741   3.272   5.673  18.841 -0.1775  0.3999 -0.2325
 4849TIP3    H138742   3.329   5.610  18.798  0.8807 -1.3234  3.2569
 4849TIP3    H238743   3.191   5.624  18.858 -0.7394  1.1710 -0.6567
 4850TIP3   OH238744   5.240   0.941  16.655  0.2041 -0.2726 -0.4964
 4850TIP3    H138745   5.204   1.014  16.605 -1.1846  0.0939  0.9588
 4850TIP3    H238746   5.215   0.959  16.746  2.0480 -1.2693  0.2608
 4851TIP3   OH238747   0.997   1.331  17.899  0.6736  0.3728  0.6609
 4851TIP3    H138748   0.970   1.380  17.822  1.0757  0.6804  0.7120
 4851TIP3    H238749   1.072   1.279  17.870 -0.8210 -1.5976  0.1302
 4852TIP3   OH238750   6.561   2.076  16.800 -0.0002 -0.1185  0.1155
 4852TIP3    H138751   6.629   2.095  16.734  0.4459 -2.2900 -0.1191
 4852TIP3    H238752   6.523   1.993  16.771 -1.5156  0.1475  1.2681
 4853TIP3   OH238753   3.227   6.221  16.876  0.3010  0.3651  0.1674
 4853TIP3    H138754   3.210   6.127  16.882  2.0473  0.0754  1.1020
 4853TIP3    H238755   3.225   6.252  16.966 -0.4711  1.2928 -0.1501
 4854TIP3   OH238756   5.318   3.790  17.105  0.5558 -0.8220 -0.2056
 4854TIP3    H138757   5.395   3.753  17.063  1.8084 -0.0479  1.3337
 4854TIP3    H238758   5.351   3.838  17.180 -1.1967  1.5503 -0.8014
 4855TIP3   OH238759   6.527   0.375  16.876  0.0238  0.3177 -0.0080
 4855TIP3    H138760   6.546   0.425  16.955 -1.9212  0.9971  0.0974
 4855TIP3    H238761   6.568   0.424  16.805  0.6079  0.4559  0.4260
 4856TIP3   OH238762   4.510   1.422  16.532 -0.8378  0.1854 -0.3617
 4856TIP3    H138763   4.447   1.395  16.465  0.1083 -0.2318 -1.1163
 4856TIP3    H238764   4.570   1.347  16.540 -0.5600  0.4830  0.4955
 4857TIP3   OH238765   2.154   1.372  18.528  0.1861  0.3185 -0.0909
 4857TIP3    H138766   2.110   1.432  18.588  1.6731 -0.2833  1.6718
 4857TIP3    H238767   2.191   1.429  18.460 -0.6909  1.1024  0.0712
 4858TIP3   OH238768   1.265   0.469  16.570  0.0848 -0.6871  0.6569
 4858TIP3    H138769   1.306   0.555  16.563  0.5664 -1.0285 -2.2144
 4858TIP3    H238770   1.180   0.479  16.527 -0.5630 -1.2844  1.7542
 4859TIP3   OH238771   6.305   6.564  17.239 -0.0553 -0.2795 -0.0741
 4859TIP3    H138772   6.247   6.586  17.166  0.3715  0.9955 -0.0589
 4859TIP3    H238773   6.393   6.563  17.200 -0.1439 -4.2776 -0.5791
 4860TIP3   OH238774   2.457   5.088  18.687 -0.1456 -0.0838 -0.1015
 4860TIP3    H138775   2.511   5.010  18.701 -0.7030 -0.6111 -0.8213
 4860TIP3    H238776   2.420   5.107  18.773  2.5198  1.3510  0.8548
 4861TIP3   OH238777   5.902   4.036  17.200 -0.0563  0.5212 -0.1920
 4861TIP3    H138778   5.834   3.997  17.144  0.0705 -0.6393  0.4298
 4861TIP3    H238779   5.877   4.010  17.289  1.7768 -0.8929 -0.0345
 4862TIP3   OH238780   1.022   7.119  16.581 -0.1451  0.3840 -0.1047
 4862TIP3    H138781   0.932   7.141  16.605 -1.0992 -0.2733 -2.7529
 4862TIP3    H238782   1.051   7.058  16.649 -1.9720  0.0272  0.3968
 4863TIP3   OH238783   4.786   3.707  18.473 -0.2347 -0.3061 -0.7178
 4863TIP3    H138784   4.869   3.664  18.451  0.1422  0.8331 -1.5942
 4863TIP3    H238785   4.719   3.643  18.449  0.3791 -1.9450  1.5575
 4864TIP3   OH238786   7.370   1.960  17.768 -0.1275 -0.2181 -0.3817
 4864TIP3    H138787   7.352   2.047  17.802  0.4348  0.1389 -0.9730
 4864TIP3    H238788   7.465   1.959  17.753  0.1172 -1.4176  0.9503
 4865TIP3   OH238789   4.472   7.383  18.002  0.1485 -0.5128 -0.3440
 4865TIP3    H138790   4.450   7.334  17.923  0.0123  0.2310 -0.7759
 4865TIP3    H238791   4.499   7.316  18.065 -0.3543 -1.1698 -0.8119
 4866TIP3   OH238792   4.183   1.027  16.247  0.5423 -0.6548  0.0729
 4866TIP3    H138793   4.123   1.042  16.173  2.1368  1.9076 -0.8301
 4866TIP3    H238794   4.126   1.025  16.324 -0.9014 -0.6449 -0.9484
 4867TIP3   OH238795   6.165   5.857  17.481 -0.2164 -0.3263  0.2242
 4867TIP3    H138796   6.245   5.805  17.472  0.6989  1.0785 -0.0882
 4867TIP3    H238797   6.122   5.821  17.558  1.6194  0.0349  1.4796
 4868TIP3   OH238798   1.020   6.281  18.498 -0.0637 -1.0437 -1.0828
 4868TIP3    H138799   1.083   6.233  18.552  0.1963  0.8933  0.4187
 4868TIP3    H238800   0.936   6.269  18.542  0.2516  1.0558  0.1911
 4869TIP3   OH238801   1.087   1.922  18.384  0.3868 -0.4250  0.3849
 4869TIP3    H138802   1.048   1.954  18.303  1.5598  1.7650  0.5854
 4869TIP3    H238803   1.129   1.839  18.361  1.7256  0.7312 -1.6054
 4870TIP3   OH238804   1.315   2.401  18.535  0.2727  0.0391 -0.0339
 4870TIP3    H138805   1.231   2.357  18.524 -0.3407  0.6228  1.9334
 4870TIP3    H238806   1.377   2.331  18.551  0.2164 -0.4022 -1.5550
 4871TIP3   OH238807   7.476   6.537  17.747  0.9185  0.1849 -0.0401
 4871TIP3    H138808   7.483   6.592  17.669 -0.1217  0.0126 -0.2772
 4871TIP3    H238809   7.555   6.484  17.747  1.0310  0.3394 -0.8564
 4872TIP3   OH238810   0.027   5.540  17.402  0.2492  0.3202  0.3810
 4872TIP3    H138811   0.005   5.453  17.371 -2.4600  0.8047  0.7332
 4872TIP3    H238812   0.101   5.527  17.462 -0.7877 -1.8766  1.2651
 4873TIP3   OH238813   3.015   3.766  17.026  0.4422 -0.4293  0.4603
 4873TIP3    H138814   3.074   3.720  17.086 -0.6326  0.9160  2.6576
 4873TIP3    H238815   2.951   3.808  17.083 -1.3148  0.0185 -1.7322
 4874TIP3   OH238816   1.170   1.871  16.226 -0.2698 -0.1549 -0.0854
 4874TIP3    H138817   1.192   1.961  16.252 -2.0142  0.5239 -0.7764
 4874TIP3    H238818   1.243   1.844  16.171 -0.1940  1.2642 -0.7409
 4875TIP3   OH238819   4.274   1.851  18.233  0.1620 -0.2980 -0.0500
 4875TIP3    H138820   4.203   1.906  18.202 -1.1521 -2.2627 -0.6879
 4875TIP3    H238821   4.351   1.880  18.184 -0.7380  0.2299 -1.1693
 4876TIP3   OH238822   5.747   6.957  16.946  0.6236  0.7195 -0.2745
 4876TIP3    H138823   5.696   6.879  16.971  1.1016 -0.4288 -2.5777
 4876TIP3    H238824   5.836   6.937  16.974  0.5929  0.8005 -0.1212
 4877TIP3   OH238825   6.424   5.130  18.189 -0.5633  0.3286 -0.0542
 4877TIP3    H138826   6.388   5.074  18.120  0.1356 -0.6439  0.3486
 4877TIP3    H238827   6.428   5.073  18.266  0.3626  0.8642  0.3075
 4878TIP3   OH238828   4.842   0.691  18.028  0.4803 -0.2974 -1.2046
 4878TIP3    H138829   4.761   0.678  17.979 -1.4819  0.8887  1.5236
 4878TIP3    H238830   4.851   0.612  18.082  0.0425  0.4062 -0.0751
 4879TIP3   OH238831   6.106   5.743  18.912  0.7329  0.2465  0.4266
 4879TIP3    H138832   6.095   5.665  18.857 -0.0853 -0.3475  1.3958
 4879TIP3    H238833   6.065   5.719  18.995  2.3117  0.9600  1.4535
 4880TIP3   OH238834   7.640   0.309  17.085 -0.2207  0.6202 -0.1263
 4880TIP3    H138835   7.685   0.243  17.137  1.7045  0.5416 -1.7952
 4880TIP3    H238836   7.553   0.271  17.070 -1.1065  0.8893  3.3648
 4881TIP3   OH238837   4.850   7.481  16.945  0.2063  0.1409 -0.4932
 4881TIP3    H138838   4.889   7.396  16.924  1.1134  0.4702 -0.1874
 4881TIP3    H238839   4.920   7.544  16.928  0.4859  0.5820  1.9697
 4882TIP3   OH238840   5.438   1.087  18.555 -0.2249  0.1712  0.1220
 4882TIP3    H138841   5.357   1.066  18.600  1.7133 -2.1189  2.9303
 4882TIP3    H238842   5.471   1.002  18.524  0.6966  1.1505 -1.7641
 4883TIP3   OH238843   3.209   7.411  17.583 -0.4763 -0.3617  0.1027
 4883TIP3    H138844   3.245   7.322  17.581 -0.5397 -0.3723 -1.3560
 4883TIP3    H238845   3.257   7.454  17.654  0.7293 -1.0810 -0.2343
 4884TIP3   OH238846   6.620   1.633  17.278 -0.1147  0.3559  0.1620
 4884TIP3    H138847   6.681   1.671  17.342 -0.2555  0.2980  0.3302
 4884TIP3    H238848   6.569   1.708  17.247  0.9003  0.6334 -0.9376
 4885TIP3   OH238849   3.615   1.232  17.599  0.1618 -0.0486 -0.0766
 4885TIP3    H138850   3.547   1.187  17.548  1.2047 -1.9986  0.1595
 4885TIP3    H238851   3.631   1.313  17.551  0.5508 -1.4406 -2.4528
 4886TIP3   OH238852   1.250   2.406  18.216  0.0225 -0.1066 -0.1122
 4886TIP3    H138853   1.275   2.391  18.307  0.9334 -0.3043 -0.3898
 4886TIP3    H238854   1.230   2.319  18.182  1.6197 -0.2922 -0.6487
 4887TIP3   OH238855   4.998   2.846  16.456 -0.4430  0.5494 -0.5665
 4887TIP3    H138856   4.948   2.921  16.422  0.1041  0.9746 -0.4462
 4887TIP3    H238857   5.089   2.873  16.448 -0.0470 -1.1910 -3.1328
 4888TIP3   OH238858   6.897   2.180  18.264 -0.1562 -0.3726 -0.1498
 4888TIP3    H138859   6.958   2.107  18.253 -0.6395 -1.0934  1.6595
 4888TIP3    H238860   6.881   2.185  18.358 -1.9365  0.5873 -0.4525
 4889TIP3   OH238861   2.103   2.007  17.184  0.2493  0.2160 -0.3953
 4889TIP3    H138862   2.069   2.094  17.163  2.1609  1.4919  1.3852
 4889TIP3    H238863   2.184   2.000  17.134  0.0604 -0.5967 -0.6026
 4890TIP3   OH238864   6.230   1.038  16.904 -0.1130  0.2092  0.3981
 4890TIP3    H138865   6.196   1.047  16.994  0.7638  0.3144  0.7292
 4890TIP3    H238866   6.240   0.944  16.891  1.6287  0.2547  1.1517
 4891TIP3   OH238867   3.819   6.956  17.196  0.7381 -0.4155 -0.1665
 4891TIP3    H138868   3.775   6.871  17.188  1.9007 -0.9601 -1.0719
 4891TIP3    H238869   3.819   6.992  17.107 -0.7367  1.0801  0.3910
 4892TIP3   OH238870   5.208   5.711  16.924 -0.0511 -0.2616 -0.0861
 4892TIP3    H138871   5.280   5.699  16.862 -0.6339 -0.0748 -0.8184
 4892TIP3    H238872   5.130   5.720  16.868 -0.6328 -0.4168  0.6878
 4893TIP3   OH238873   7.250   1.633  16.838 -0.2058  0.3942 -0.5841
 4893TIP3    H138874   7.275   1.682  16.760  1.2882  0.3805 -0.1477
 4893TIP3    H238875   7.162   1.666  16.860 -0.4097  0.8069 -1.9179
 4894TIP3   OH238876   3.378   3.094  18.201  0.4690 -0.2363 -0.5619
 4894TIP3    H138877   3.364   3.005  18.169  1.7382 -1.4556  1.9300
 4894TIP3    H238878   3.359   3.089  18.295  0.2690  2.2241 -0.3996
 4895TIP3   OH238879   4.646   2.353  18.429 -0.1750  0.1546  0.8269
 4895TIP3    H138880   4.579   2.408  18.470  1.1209  1.4552  1.2976
 4895TIP3    H238881   4.635   2.369  18.335 -0.2022  0.7702  0.9274
 4896TIP3   OH238882   6.660   0.945  16.755  0.0610  0.0832  0.5468
 4896TIP3    H138883   6.740   0.983  16.720  0.1882 -0.7707 -0.1312
 4896TIP3    H238884   6.611   0.917  16.678 -1.0114  0.8290  0.9464
 4897TIP3   OH238885   5.031   3.973  17.667  0.5023 -0.5289  0.6905
 4897TIP3    H138886   5.106   3.916  17.650 -0.7041 -1.5335 -2.0347
 4897TIP3    H238887   5.068   4.053  17.703  2.8411 -1.0930 -0.2949
 4898TIP3   OH238888   4.265   6.350  18.492 -0.1589 -0.3705 -0.7343
 4898TIP3    H138889   4.175   6.326  18.473 -0.7650  1.2040 -0.0533
 4898TIP3    H238890   4.271   6.443  18.468  1.2014 -0.3856 -0.5386
 4899TIP3   OH238891   3.636   6.362  18.894 -0.6620 -1.0742  0.1122
 4899TIP3    H138892   3.550   6.372  18.936  0.1193  0.5685  1.4768
 4899TIP3    H238893   3.618   6.313  18.814 -2.7719 -1.3244  0.6637
 4900TIP3   OH238894   1.731   5.932  18.529  0.4865  0.0459 -0.0145
 4900TIP3    H138895   1.787   5.894  18.461  0.2059 -0.8012  0.2083
 4900TIP3    H238896   1.694   6.010  18.489  0.4164 -0.3776 -0.7995
 4901TIP3   OH238897   3.308   0.052  17.219 -0.5805 -0.5852  0.0272
 4901TIP3    H138898   3.222   0.040  17.258 -0.6950 -0.7527 -0.2771
 4901TIP3    H238899   3.319   0.147  17.213 -0.2512 -0.5316  1.1505
 4902TIP3   OH238900   6.653   2.909  17.432  0.1370  0.4040 -0.0337
 4902TIP3    H138901   6.627   2.851  17.360  0.2804 -1.5492  1.3812
 4902TIP3    H238902   6.586   2.976  17.435 -1.0014 -0.6635 -0.7118
 4903TIP3   OH238903   3.539   5.810  18.232 -0.1151  0.2591  0.0480
 4903TIP3    H138904   3.514   5.720  18.254  0.5116 -0.1551 -0.8457
 4903TIP3    H238905   3.491   5.865  18.294 -0.9171 -0.6657  0.2631
 4904TIP3   OH238906   7.274   6.375  17.673  0.2800 -0.4625 -0.3816
 4904TIP3    H138907   7.251   6.354  17.763  1.6859 -0.5854 -0.0310
 4904TIP3    H238908   7.342   6.442  17.681  0.3982 -0.4570 -1.3527
 4905TIP3   OH238909   3.693   0.438  17.248 -0.2258 -0.3580  0.4111
 4905TIP3    H138910   3.729   0.478  17.327  0.9800  0.1658 -0.3708
 4905TIP3    H238911   3.767   0.391  17.209 -0.6702 -0.1879 -0.6706
 4906TIP3   OH238912   7.389   2.270  17.625 -0.5511  1.0134  0.4250
 4906TIP3    H138913   7.375   2.230  17.711 -1.9752 -1.6743 -0.9522
 4906TIP3    H238914   7.304   2.306  17.601 -1.3813 -1.8902 -1.4974
 4907TIP3   OH238915   5.285   4.705  18.375 -0.2009 -0.5775 -0.4581
 4907TIP3    H138916   5.285   4.780  18.434 -1.0802  0.0088 -1.1616
 4907TIP3    H238917   5.307   4.630  18.430  0.7416  0.2045  0.2527
 4908TIP3   OH238918   6.077   3.780  17.758  0.0705  0.1238  0.1383
 4908TIP3    H138919   6.139   3.843  17.796 -0.3898  0.9910 -0.5201
 4908TIP3    H238920   6.089   3.790  17.663 -2.3928  1.6987 -0.0853
 4909TIP3   OH238921   3.139   1.341  17.865  0.6893  0.3352 -0.2037
 4909TIP3    H138922   3.148   1.292  17.783  0.9661 -1.7248  0.9856
 4909TIP3    H238923   3.126   1.432  17.837 -0.3815 -0.4507 -2.5494
 4910TIP3   OH238924   6.908   2.117  17.618 -0.2486  0.3881  0.0713
 4910TIP3    H138925   6.910   2.031  17.575  1.7965 -0.0318  0.8775
 4910TIP3    H238926   6.918   2.097  17.711  1.9129  1.5275  0.1452
 4911TIP3   OH238927   6.161   1.427  16.352 -0.3499 -0.1262 -0.2947
 4911TIP3    H138928   6.196   1.507  16.313 -1.3695  1.1081  1.1915
 4911TIP3    H238929   6.145   1.369  16.278  1.6569  0.5003 -1.3076
 4912TIP3   OH238930   0.556   4.450  18.188  0.4205 -0.1065 -0.0558
 4912TIP3    H138931   0.603   4.497  18.256 -1.8570 -1.3611  2.5685
 4912TIP3    H238932   0.620   4.388  18.153  1.8109  0.9727  0.4884
 4913TIP3   OH238933   7.525   0.101  17.892 -0.0957  0.6468 -0.0269
 4913TIP3    H138934   7.537   0.028  17.831  1.3768  1.9507 -1.4112
 4913TIP3    H238935   7.567   0.073  17.973 -1.9632 -1.0741  0.4071
 4914TIP3   OH238936   4.127   5.730  17.919  0.1018  0.0063 -0.1748
 4914TIP3    H138937   4.122   5.649  17.969 -0.2309 -1.1877 -2.0530
 4914TIP3    H238938   4.038   5.766  17.924 -0.1843 -0.6005 -0.6360
 4915TIP3   OH238939   3.604   5.306  18.937  0.4393  0.6877  0.0655
 4915TIP3    H138940   3.584   5.238  18.872 -1.3126  0.0038  1.2510
 4915TIP3    H238941   3.669   5.266  18.995  1.8504  1.2263 -1.0838
 4916TIP3   OH238942   3.522   3.651  17.541 -0.0787  0.0383  0.0342
 4916TIP3    H138943   3.608   3.615  17.522  0.8672  0.8697  2.3959
 4916TIP3    H238944   3.473   3.577  17.577  0.3627  0.0445  0.6599
 4917TIP3   OH238945   3.543   7.426  18.212  0.4209 -0.3485  0.0766
 4917TIP3    H138946   3.502   7.465  18.289  0.4316 -1.3398  0.5901
 4917TIP3    H238947   3.487   7.352  18.189  1.4188 -1.1848  0.2538
 4918TIP3   OH238948   4.118   4.628  17.080  0.1144 -0.1045 -0.5227
 4918TIP3    H138949   4.195   4.584  17.044  0.5929 -0.1632  0.5311
 4918TIP3    H238950   4.081   4.565  17.142  0.3503  0.6496  0.4095
 4919TIP3   OH238951   0.045   0.929  17.591  0.1663  0.1421  0.2676
 4919TIP3    H138952   0.047   0.916  17.496  2.6867  0.9278  0.1339
 4919TIP3    H238953   0.002   1.013  17.603  0.8347  0.5815 -0.3008
 4920TIP3   OH238954   1.770   2.987  17.457  0.3590  0.6712  0.2404
 4920TIP3    H138955   1.816   3.068  17.479  1.5006  0.0088  0.3922
 4920TIP3    H238956   1.743   2.998  17.366  0.4964  1.2195  0.2656
 4921TIP3   OH238957   0.276   2.595  16.676 -0.4319  0.2017 -0.4343
 4921TIP3    H138958   0.324   2.676  16.693 -2.6099  1.2884  1.1524
 4921TIP3    H238959   0.243   2.569  16.762 -0.1175 -2.1941 -0.9757
 4922TIP3   OH238960   5.151   3.117  16.584  0.4368 -0.0898 -0.3041
 4922TIP3    H138961   5.191   3.159  16.508 -0.6753  0.7142 -0.4686
 4922TIP3    H238962   5.218   3.056  16.616  0.9676 -0.3554 -1.8452
 4923TIP3   OH238963   6.393   5.674  17.503 -0.2744  0.1017 -0.6324
 4923TIP3    H138964   6.352   5.652  17.419  1.7615  1.0715 -1.9500
 4923TIP3    H238965   6.463   5.609  17.512 -1.0814 -0.6175  0.8623
 4924TIP3   OH238966   5.595   5.225  17.993  0.0073 -0.5859  0.0938
 4924TIP3    H138967   5.641   5.159  18.046 -0.1436 -0.0484  0.9057
 4924TIP3    H238968   5.560   5.287  18.057 -0.2481  0.0342 -0.6359
 4925TIP3   OH238969   2.716   2.890  16.975  0.9606 -0.1554  0.0899
 4925TIP3    H138970   2.703   2.983  16.955 -0.6494 -0.2620  0.4962
 4925TIP3    H238971   2.681   2.844  16.900 -0.7364 -0.4561  1.0180
 4926TIP3   OH238972   1.961   5.642  16.413  0.8310  0.5338  0.3144
 4926TIP3    H138973   2.047   5.683  16.404  0.3173  1.2956 -1.8012
 4926TIP3    H238974   1.979   5.548  16.408  1.5015  0.7006 -1.0625
 4927TIP3   OH238975   6.042   4.425  16.957  0.9771 -0.5583 -0.2755
 4927TIP3    H138976   5.975   4.357  16.967 -0.4772  0.7362 -0.8560
 4927TIP3    H238977   6.088   4.402  16.876 -0.0773 -0.4208 -0.9370
 4928TIP3   OH238978   3.539   6.044  17.418  0.2960  0.3899  0.5361
 4928TIP3    H138979   3.520   6.052  17.325  0.0622  1.4544  0.6611
 4928TIP3    H238980   3.631   6.020  17.422  0.7998  2.1030  0.0412
 4929TIP3   OH238981   4.203   0.353  17.803 -0.7604 -0.1933 -0.7721
 4929TIP3    H138982   4.157   0.351  17.886 -0.6580  0.7084 -0.6892
 4929TIP3    H238983   4.164   0.426  17.755 -2.2576 -1.9359 -2.3749
 4930TIP3   OH238984   6.077   0.998  18.117 -0.1076  0.4307  0.4134
 4930TIP3    H138985   6.006   0.987  18.181 -2.9962  0.5247 -2.5223
 4930TIP3    H238986   6.078   0.915  18.069  2.8034 -0.0876  1.1654
 4931TIP3   OH238987   0.802   6.840  17.981 -0.4394 -0.0808  0.2861
 4931TIP3    H138988   0.887   6.803  17.958 -0.4006  0.5500 -0.6247
 4931TIP3    H238989   0.745   6.814  17.909 -0.5004  1.3120 -0.1954
 4932TIP3   OH238990   7.021   2.281  16.907 -0.1174 -0.5252 -0.0653
 4932TIP3    H138991   6.973   2.327  16.975  0.0762  0.0058 -0.2822
 4932TIP3    H238992   7.072   2.215  16.954  1.8060  1.3156  0.5967
 4933TIP3   OH238993   7.081   5.870  17.830  0.6357  0.1525 -0.2414
 4933TIP3    H138994   7.098   5.932  17.901  1.5300 -0.2364 -0.1179
 4933TIP3    H238995   7.052   5.925  17.757 -1.6515  0.4546  0.8012
 4934TIP3   OH238996   1.941   4.346  17.511  0.4842  0.4421 -0.0286
 4934TIP3    H138997   1.901   4.278  17.456 -0.5877  1.6993 -0.8835
 4934TIP3    H238998   1.995   4.396  17.451  0.8554  0.6669  0.4890
 4935TIP3   OH238999   1.594   0.908  17.343  0.3646 -0.4014  0.4051
 4935TIP3    H139000   1.562   0.819  17.355 -0.1358 -0.2418  0.2660
 4935TIP3    H239001   1.689   0.898  17.333  0.4467 -0.8100  1.5094
 4936TIP3   OH239002   2.299   0.395  17.245  0.1015 -0.0094 -0.0195
 4936TIP3    H139003   2.242   0.318  17.251  0.3710 -0.0813  3.0166
 4936TIP3    H239004   2.387   0.361  17.260  0.2055  0.8837  1.5004
 4937TIP3   OH239005   3.274   3.538  16.109 -0.4754 -0.0768 -0.1184
 4937TIP3    H139006   3.244   3.578  16.027 -0.3238 -0.8023 -0.5340
 4937TIP3    H239007   3.266   3.444  16.094  0.7081 -0.2551  0.2641
 4938TIP3   OH239008   1.926   5.459  17.767 -0.6605 -0.0206  0.2344
 4938TIP3    H139009   1.966   5.388  17.816 -0.5325  0.2784  0.5658
 4938TIP3    H239010   1.836   5.431  17.752  0.0324 -1.3964 -1.8289
 4939TIP3   OH239011   5.062   3.189  18.528 -0.3124  0.3865 -0.1402
 4939TIP3    H139012   5.049   3.099  18.560 -1.1470  0.3392 -0.5968
 4939TIP3    H239013   5.100   3.235  18.603 -1.0141 -0.0509  0.5012
 4940TIP3   OH239014   1.093   6.228  17.606 -0.1177 -0.1640  0.7411
 4940TIP3    H139015   1.108   6.320  17.630 -0.4912 -0.0184  0.4197
 4940TIP3    H239016   1.007   6.208  17.644 -0.0428 -0.3764  0.7964
 4941TIP3   OH239017   4.569   0.722  18.181  0.3728 -0.0189 -0.4865
 4941TIP3    H139018   4.556   0.627  18.183 -1.6257  0.1613 -1.9383
 4941TIP3    H239019   4.664   0.733  18.187  0.6802 -2.1292 -0.6734
 4942TIP3   OH239020   3.018   1.205  17.040  0.0137 -0.1397  0.1398
 4942TIP3    H139021   3.110   1.200  17.014  0.1754 -0.3904  0.7241
 4942TIP3    H239022   2.987   1.114  17.036  0.0040 -0.1652  0.6554
 4943TIP3   OH239023   2.444   0.006  16.401 -0.1439 -0.2193  0.4480
 4943TIP3    H139024   2.430   0.097  16.426  2.7276  0.1111  1.1284
 4943TIP3    H239025   2.525   0.007  16.349  0.0664 -2.4022  0.6244
 4944TIP3   OH239026   4.623   7.071  17.004 -0.0172 -0.1043  0.2283
 4944TIP3    H139027   4.672   6.989  16.998 -0.8894 -0.7214  1.3975
 4944TIP3    H239028   4.602   7.092  16.913  0.1149 -1.2389 -0.0837
 4945TIP3   OH239029   7.299   2.611  18.639  0.5616  0.3534 -0.5459
 4945TIP3    H139030   7.274   2.681  18.579  0.9940  1.5526  0.6261
 4945TIP3    H239031   7.223   2.600  18.696  1.4983  1.8892  1.0832
 4946TIP3   OH239032   2.800   6.808  16.113 -0.1483 -0.0405 -0.4455
 4946TIP3    H139033   2.862   6.879  16.130 -1.1616  0.3163  2.4016
 4946TIP3    H239034   2.854   6.737  16.078  0.7924  2.1993 -4.0569
 4947TIP3   OH239035   0.551   6.729  18.870  0.0996 -0.4654 -0.4274
 4947TIP3    H139036   0.628   6.726  18.928 -0.9976  0.9745  1.1981
 4947TIP3    H239037   0.570   6.802  18.811 -0.3121  0.3661  0.4483
 4948TIP3   OH239038   3.025   7.084  17.321 -0.2651  0.6422 -0.1077
 4948TIP3    H139039   3.002   7.153  17.259 -0.6483 -0.5524 -1.3349
 4948TIP3    H239040   3.121   7.087  17.324 -0.2845  1.3808  0.0497
 4949TIP3   OH239041   2.083   2.418  17.467  0.1825  0.2399  0.1612
 4949TIP3    H139042   2.124   2.459  17.391  0.6487  1.9501  1.2810
 4949TIP3    H239043   2.017   2.481  17.495 -0.8510 -0.9353  0.4486
 4950TIP3   OH239044   0.967   5.938  18.243 -0.5475 -0.2055  0.6735
 4950TIP3    H139045   0.996   5.997  18.173 -0.7319 -1.7041 -0.7516
 4950TIP3    H239046   0.871   5.937  18.233 -0.5564 -0.5849  0.8081
 4951TIP3   OH239047   4.109   0.292  18.371  0.8680 -0.5253  0.3708
 4951TIP3    H139048   4.195   0.319  18.403  0.6268 -0.4917  1.0081
 4951TIP3    H239049   4.125   0.210  18.325  1.0264 -1.2926  1.7605
 4952TIP3   OH239050   4.838   4.225  18.679  0.4171 -0.3061  0.4087
 4952TIP3    H139051   4.746   4.197  18.675  0.5975 -0.8776  0.2360
 4952TIP3    H239052   4.879   4.184  18.603  0.4818  1.2021 -0.4239
 4953TIP3   OH239053   7.489   6.468  18.050 -0.3077  0.1850 -0.3236
 4953TIP3    H139054   7.497   6.485  17.956  0.0719  1.9716 -0.0132
 4953TIP3    H239055   7.446   6.547  18.084 -0.0717 -0.2632  1.0593
 4954TIP3   OH239056   2.139   6.059  17.830 -0.3747 -0.5670  0.1746
 4954TIP3    H139057   2.219   6.080  17.782 -2.1600  2.1886 -1.9010
 4954TIP3    H239058   2.088   6.006  17.768 -1.8124  1.2130 -0.2519
 4955TIP3   OH239059   2.376   3.803  17.926 -0.3092  0.8543 -0.4038
 4955TIP3    H139060   2.298   3.803  17.871 -1.4743  0.1655  1.1784
 4955TIP3    H239061   2.399   3.711  17.935  0.9004  1.0754 -1.1285
 4956TIP3   OH239062   1.139   3.246  18.134  0.0333  0.3674  0.4678
 4956TIP3    H139063   1.112   3.186  18.064 -1.0249  2.9663 -1.4893
 4956TIP3    H239064   1.097   3.212  18.212 -1.9516 -0.5066 -0.9008
 4957TIP3   OH239065   1.382   7.449  17.308 -0.2155  0.5860  0.0851
 4957TIP3    H139066   1.398   7.446  17.214 -0.5372  3.1099 -0.1221
 4957TIP3    H239067   1.466   7.425  17.348 -0.2394 -1.1014 -0.7925
 4958TIP3   OH239068   4.869   2.822  16.691  0.7382 -0.5500 -0.0089
 4958TIP3    H139069   4.775   2.826  16.679  0.6752  0.9107  0.7128
 4958TIP3    H239070   4.904   2.812  16.602 -0.0576 -0.3038 -0.3596
 4959TIP3   OH239071   3.786   0.131  17.072  0.1480  0.0622  1.1519
 4959TIP3    H139072   3.865   0.181  17.051  0.1668  0.9903  3.2404
 4959TIP3    H239073   3.817   0.058  17.126 -0.0404 -1.6255 -0.8527
 4960TIP3   OH239074   2.136   3.357  18.117 -0.0412  0.4236  0.2044
 4960TIP3    H139075   2.158   3.427  18.056  0.2554  0.5926  0.4996
 4960TIP3    H239076   2.209   3.296  18.112 -1.1949 -0.9050 -1.5219
 4961TIP3   OH239077   3.442   3.568  17.844  0.4805  0.2558  0.1878
 4961TIP3    H139078   3.388   3.563  17.923 -1.5842 -0.6728 -1.1782
 4961TIP3    H239079   3.516   3.510  17.861  1.3540  1.8765  2.2821
 4962TIP3   OH239080   2.988   6.617  16.068 -0.1640 -0.1499 -0.1264
 4962TIP3    H139081   3.036   6.672  16.130 -2.0970  1.3365  0.1190
 4962TIP3    H239082   3.049   6.546  16.047  1.4203  0.6337  1.5959
 4963TIP3   OH239083   2.026   1.486  17.120  0.0641 -0.2049  0.0634
 4963TIP3    H139084   2.033   1.564  17.065  0.2592 -0.3631 -0.1369
 4963TIP3    H239085   2.052   1.516  17.207 -0.4957  0.1071  0.1293
 4964TIP3   OH239086   3.019   4.122  16.907  0.6908  0.3285  0.8391
 4964TIP3    H139087   3.050   4.159  16.824  1.5276  1.3258  1.5602
 4964TIP3    H239088   3.070   4.041  16.918  1.3132  0.7083  0.8405
 4965TIP3   OH239089   3.796   6.598  18.278 -0.4910  0.1411  0.3090
 4965TIP3    H139090   3.711   6.629  18.310 -0.3891 -0.1551  0.8857
 4965TIP3    H239091   3.849   6.587  18.358 -0.0381 -0.0551 -0.0108
 4966TIP3   OH239092   0.535   1.962  17.667  0.6694 -0.4126  0.1245
 4966TIP3    H139093   0.460   1.942  17.612 -0.3164 -0.2486  1.3614
 4966TIP3    H239094   0.603   1.990  17.606 -1.0122  1.7670 -0.8988
 4967TIP3   OH239095   0.894   3.890  17.102  0.0535 -0.6691  0.3410
 4967TIP3    H139096   0.852   3.809  17.130  3.1886 -1.7027  2.7174
 4967TIP3    H239097   0.846   3.917  17.023 -2.0979 -3.9506  0.3498
 4968TIP3   OH239098   2.358   0.940  18.386 -0.3475  0.0620  0.0432
 4968TIP3    H139099   2.296   0.961  18.455  0.1299  0.3398  0.3925
 4968TIP3    H239100   2.415   1.017  18.381  1.4003 -1.1053  1.3032
 4969TIP3   OH239101   3.326   7.142  17.542 -0.3528 -0.0436  0.3695
 4969TIP3    H139102   3.367   7.118  17.459 -1.5885  0.3996 -0.3995
 4969TIP3    H239103   3.396   7.132  17.607  0.3903 -1.3113 -0.5709
 4970TIP3   OH239104   5.318   0.939  18.097  0.0544 -0.1425  0.3591
 4970TIP3    H139105   5.273   0.927  18.181  3.0785  0.2391  2.1504
 4970TIP3    H239106   5.326   0.850  18.061 -0.5376 -0.4042  0.8584
 4971TIP3   OH239107   4.005   3.364  18.992 -0.2524 -0.5105 -0.4267
 4971TIP3    H139108   4.073   3.300  19.013 -1.0609 -1.9674 -2.0249
 4971TIP3    H239109   3.927   3.332  19.037 -0.9482 -1.3413 -2.1450
 4972TIP3   OH239110   2.785   1.866  17.423 -0.1608  0.6226  0.2640
 4972TIP3    H139111   2.866   1.856  17.374  0.6185  1.1665  1.3844
 4972TIP3    H239112   2.734   1.787  17.403  1.4978 -0.7235  1.0809
 4973TIP3   OH239113   2.830   7.442  17.353 -0.0103 -0.0203 -0.0862
 4973TIP3    H139114   2.832   7.381  17.279 -0.5056  0.5964 -0.6218
 4973TIP3    H239115   2.742   7.479  17.352 -0.0662 -0.1101  0.9130
 4974TIP3   OH239116   0.055   7.383  16.843 -0.1340 -0.7263 -0.2209
 4974TIP3    H139117  -0.021   7.337  16.807  0.9171 -1.9828 -0.9182
 4974TIP3    H239118   0.090   7.322  16.909  0.9208 -0.6687 -0.7104
 4975TIP3   OH239119   1.918   3.097  18.482  0.1810 -0.0487  0.0516
 4975TIP3    H139120   1.919   3.002  18.495 -2.9660 -0.0608  1.3193
 4975TIP3    H239121   1.965   3.132  18.558 -0.1812 -0.6060  0.5484
 4976TIP3   OH239122   3.554   7.607  16.432 -0.1718  0.9521 -0.1069
 4976TIP3    H139123   3.619   7.673  16.409 -0.2801  2.0378  2.4289
 4976TIP3    H239124   3.472   7.655  16.437 -0.1494  0.8207  2.4160
 4977TIP3   OH239125   7.084   5.588  17.172  0.0696 -0.2267  0.3516
 4977TIP3    H139126   7.116   5.590  17.262  1.3344 -0.5414 -0.0770
 4977TIP3    H239127   6.992   5.561  17.180 -0.2845  1.2070  1.6483
 4978TIP3   OH239128   0.245   2.324  16.234  0.4307 -0.1435  0.6094
 4978TIP3    H139129   0.155   2.350  16.213  0.1781 -1.5266 -0.1845
 4978TIP3    H239130   0.266   2.372  16.314 -1.1820 -0.1099  1.0567
 4979TIP3   OH239131   3.240   5.289  18.029 -0.1836  0.0430 -0.1496
 4979TIP3    H139132   3.297   5.322  17.960 -0.4994 -0.3987 -0.6297
 4979TIP3    H239133   3.206   5.207  17.994 -0.9338  0.1895  0.2306
 4980TIP3   OH239134   4.961   5.302  18.276 -0.3024  0.5668  0.0161
 4980TIP3    H139135   4.928   5.341  18.195 -1.5280  0.8185  0.6116
 4980TIP3    H239136   5.039   5.254  18.249 -0.9717  0.2115 -1.4186
 4981TIP3   OH239137   0.754   2.202  17.960  0.2706 -0.5791  0.4207
 4981TIP3    H139138   0.830   2.150  17.985  0.6206 -0.5717 -0.5690
 4981TIP3    H239139   0.786   2.260  17.891 -0.5434 -0.3106  0.2535
 4982TIP3   OH239140   5.776   4.188  18.125 -0.5490 -0.2881 -0.3669
 4982TIP3    H139141   5.720   4.121  18.165  0.9484 -0.9208  0.7701
 4982TIP3    H239142   5.859   4.143  18.110  0.1892  1.0644 -0.4657
 4983TIP3   OH239143   0.935   0.919  18.023  0.0694  0.0260 -0.2105
 4983TIP3    H139144   0.975   1.005  18.035  1.3521 -0.4592 -0.8361
 4983TIP3    H239145   0.984   0.861  18.081  0.9437 -0.7598 -1.6885
 4984TIP3   OH239146   2.333   7.207  17.966 -0.3102  0.5227  0.3895
 4984TIP3    H139147   2.427   7.200  17.945 -0.2423 -0.3017  0.9219
 4984TIP3    H239148   2.322   7.154  18.045 -1.2950  0.2976  0.1145
 4985TIP3   OH239149   3.946   6.686  18.549  0.0164  0.0602  0.3133
 4985TIP3    H139150   3.860   6.643  18.557 -0.2222  0.3946 -0.3510
 4985TIP3    H239151   3.967   6.713  18.638 -0.8629  0.5094  0.4050
 4986TIP3   OH239152   4.538   0.654  16.511  0.0758 -0.7046  0.9088
 4986TIP3    H139153   4.481   0.697  16.446  2.8861  1.1289 -0.5363
 4986TIP3    H239154   4.575   0.579  16.464  1.1843 -0.0823  0.7628
 4987TIP3   OH239155   0.119   6.179  17.056  0.4880  0.1722  0.5916
 4987TIP3    H139156   0.175   6.130  16.995 -0.4732 -1.5892  1.0502
 4987TIP3    H239157   0.178   6.206  17.127  1.0242 -0.4272  0.3814
 4988TIP3   OH239158   0.769   2.900  15.905  0.3410 -0.1104 -0.0462
 4988TIP3    H139159   0.754   2.993  15.888  0.4880  0.1824  1.3436
 4988TIP3    H239160   0.854   2.898  15.950  1.2597 -1.1027 -1.7416
 4989TIP3   OH239161   3.646   4.666  18.926 -0.3537  0.0725  0.5577
 4989TIP3    H139162   3.664   4.585  18.974  0.6844  0.9113  1.6505
 4989TIP3    H239163   3.708   4.666  18.853 -0.2111 -0.0105  0.6816
 4990TIP3   OH239164   6.787   0.723  16.179  0.1077 -0.4542 -0.5427
 4990TIP3    H139165   6.831   0.803  16.151  0.3075 -0.3820 -0.0359
 4990TIP3    H239166   6.766   0.677  16.097 -0.0220  0.1159 -0.8367
 4991TIP3   OH239167   7.114   1.120  17.390 -0.0471  1.5290 -0.1757
 4991TIP3    H139168   7.079   1.136  17.477 -1.1342  0.4563 -0.3718
 4991TIP3    H239169   7.141   1.028  17.391 -1.6903  0.9576 -1.4192
 4992TIP3   OH239170   6.071   3.313  17.638  0.4256 -0.3177 -0.3394
 4992TIP3    H139171   5.986   3.272  17.652  0.9086 -0.6970  1.7840
 4992TIP3    H239172   6.066   3.395  17.688  1.1642 -0.1277 -0.5704
 4993TIP3   OH239173   3.576   7.055  17.634  0.5081  0.5322 -0.0998
 4993TIP3    H139174   3.605   7.077  17.545 -0.7350  0.7881 -0.4702
 4993TIP3    H239175   3.622   6.974  17.655 -1.8306 -1.6163 -2.4741
 4994TIP3   OH239176   0.856   6.255  17.890 -0.3159 -0.5376 -0.1617
 4994TIP3    H139177   0.777   6.208  17.918  0.3380 -0.5760  1.7241
 4994TIP3    H239178   0.928   6.195  17.908  0.4132  0.6437  1.0219
 4995TIP3   OH239179   6.858   6.767  15.898  0.3357  0.3308 -0.0540
 4995TIP3    H139180   6.867   6.677  15.867  0.3163 -0.8289  2.9698
 4995TIP3    H239181   6.767   6.790  15.881  0.1082 -0.5432 -0.0458
 4996TIP3   OH239182   6.263   2.200  18.358  0.9136 -0.0947  0.3541
 4996TIP3    H139183   6.330   2.188  18.292  1.4563 -0.2055  0.9136
 4996TIP3    H239184   6.248   2.294  18.362 -0.5567 -0.2019 -1.3094
 4997TIP3   OH239185   0.956   1.815  16.419  0.2469 -0.6237 -0.0109
 4997TIP3    H139186   1.030   1.848  16.367  2.5451 -0.9454  2.7901
 4997TIP3    H239187   0.894   1.887  16.422  2.1290  1.0760  0.5035
 4998TIP3   OH239188   1.967   4.462  18.174 -0.0379  0.0244  0.2408
 4998TIP3    H139189   1.954   4.448  18.268 -1.7611  1.4277  0.2589
 4998TIP3    H239190   1.915   4.393  18.133 -0.7973  0.5357  0.3287
 4999TIP3   OH239191   7.444   4.115  18.260 -0.5903  0.1004  0.1087
 4999TIP3    H139192   7.468   4.080  18.174 -2.2990 -0.3185 -0.2512
 4999TIP3    H239193   7.517   4.171  18.285  0.7718 -1.2025 -0.7852
 5000TIP3   OH239194   0.380   3.477  17.878  0.4599 -0.0021 -0.4981
 5000TIP3    H139195   0.340   3.463  17.792  1.5397  1.9265 -1.3867
 5000TIP3    H239196   0.469   3.508  17.859  0.8412  0.1665  1.3223
 5001TIP3   OH239197   5.062   2.237  18.522  0.5286 -0.0044 -0.2137
 5001TIP3    H139198   5.062   2.188  18.440  0.9004  0.0884 -0.2691
 5001TIP3    H239199   5.152   2.268  18.532  0.6165 -0.4553  0.4909
 5002TIP3   OH239200   0.811   5.440  16.137  0.4563  0.4150 -0.6896
 5002TIP3    H139201   0.883   5.503  16.148  0.5164  0.4385 -1.2098
 5002TIP3    H239202   0.732   5.490  16.159  0.6085  0.3414  0.0511
 5003TIP3   OH239203   5.238   2.818  17.366 -0.4071  0.1562  0.1411
 5003TIP3    H139204   5.250   2.779  17.280 -1.0487  2.4365 -1.0697
 5003TIP3    H239205   5.318   2.794  17.414 -0.6164 -2.2400 -0.5743
 5004TIP3   OH239206   1.856   4.827  17.390  0.0963 -0.6395 -0.6071
 5004TIP3    H139207   1.765   4.801  17.378 -0.6954  0.3597  2.4323
 5004TIP3    H239208   1.898   4.749  17.426 -0.3871 -0.1313  1.1057
 5005TIP3   OH239209   4.231   3.769  17.047  0.1317  0.1041 -0.1975
 5005TIP3    H139210   4.204   3.807  16.964  0.0061 -0.4350 -0.4060
 5005TIP3    H239211   4.253   3.845  17.102 -2.9106  0.6876  0.3922
 5006TIP3   OH239212   7.491   0.815  18.277  0.4567  0.1538 -0.0264
 5006TIP3    H139213   7.560   0.768  18.230 -0.5903 -2.1446  0.6389
 5006TIP3    H239214   7.428   0.840  18.209  0.7764  0.1761 -0.3167
 5007TIP3   OH239215   4.805   3.368  16.536 -0.3160 -0.0950 -0.2031
 5007TIP3    H139216   4.830   3.277  16.553 -0.0106 -0.0175 -0.2186
 5007TIP3    H239217   4.730   3.384  16.593  0.6946  0.1670  1.1308
 5008TIP3   OH239218   1.182   5.332  16.112  0.0127 -0.0171 -0.8026
 5008TIP3    H139219   1.265   5.374  16.134 -0.1325 -0.5339  0.8825
 5008TIP3    H239220   1.120   5.404  16.102  0.1276  0.2735  0.4203
 5009TIP3   OH239221   2.020   2.847  16.740 -0.1775  0.3810  0.4010
 5009TIP3    H139222   2.073   2.793  16.798  1.1161  1.4674  0.2814
 5009TIP3    H239223   2.075   2.858  16.662 -0.7279  1.2382  0.1246
 5010TIP3   OH239224   0.135   6.360  19.013  0.2078  0.4325  0.1514
 5010TIP3    H139225   0.199   6.429  18.996  1.0175 -0.3301 -0.0139
 5010TIP3    H239226   0.183   6.279  18.993 -0.5022 -0.2083  0.9931
 5011TIP3   OH239227   4.907   5.338  16.817 -0.4383 -0.1113 -0.1880
 5011TIP3    H139228   4.819   5.355  16.850 -1.3615 -2.2134 -1.2929
 5011TIP3    H239229   4.918   5.243  16.829  1.0418 -0.1323 -1.4781
 5012TIP3   OH239230   4.384   2.494  16.806  0.2752  0.0435 -0.1649
 5012TIP3    H139231   4.394   2.524  16.716  0.3455  2.0703  0.4853
 5012TIP3    H239232   4.289   2.495  16.821  0.3262  0.7251  0.1133
 5013TIP3   OH239233   0.091   7.514  18.817  0.0974 -0.1816  0.3057
 5013TIP3    H139234   0.015   7.467  18.849  0.8288 -1.1600  0.6633
 5013TIP3    H239235   0.072   7.532  18.725 -0.2122 -1.1626  0.1692
 5014TIP3   OH239236   5.396   5.896  17.087  0.2693  0.0556 -0.1117
 5014TIP3    H139237   5.463   5.905  17.019  1.0687  1.4695  0.8091
 5014TIP3    H239238   5.359   5.809  17.073 -0.5850  0.7814 -3.2310
 5015TIP3   OH239239   2.041   4.206  17.019 -0.2659  0.4553  0.0745
 5015TIP3    H139240   1.963   4.261  17.019 -1.6224 -1.3106  2.2199
 5015TIP3    H239241   2.113   4.268  17.030 -1.5661  1.9377  0.6742
 5016TIP3   OH239242   1.701   0.119  16.255  0.4955 -0.3990  0.0204
 5016TIP3    H139243   1.755   0.134  16.177  0.8480 -0.2256  0.2985
 5016TIP3    H239244   1.755   0.148  16.328 -0.9404  2.3217  0.1383
 5017TIP3   OH239245   3.156   1.995  18.074 -0.0743 -0.1831  0.3107
 5017TIP3    H139246   3.104   2.031  18.002 -1.3534 -2.1043  0.2203
 5017TIP3    H239247   3.232   2.053  18.080 -1.1747  1.4709 -0.9380
 5018TIP3   OH239248   1.453   5.208  18.700 -0.1013  0.2879  0.5358
 5018TIP3    H139249   1.370   5.164  18.718  0.3271 -1.3849 -1.1572
 5018TIP3    H239250   1.434   5.301  18.712 -1.7381 -0.1604  1.8304
 5019TIP3   OH239251   2.973   3.612  16.074  0.1168 -0.0002 -0.2627
 5019TIP3    H139252   2.986   3.519  16.096  1.3152  0.4039  0.8761
 5019TIP3    H239253   3.049   3.634  16.019 -0.3518  0.2292 -0.8288
 5020TIP3   OH239254   1.333   0.004  18.730 -0.1520  0.3243 -0.3631
 5020TIP3    H139255   1.285  -0.076  18.709 -0.0474  0.2803 -0.4324
 5020TIP3    H239256   1.269   0.058  18.777 -0.2418  0.2276 -0.3727
 5021TIP3   OH239257   3.587   0.887  17.681 -0.2810  0.3232  0.2895
 5021TIP3    H139258   3.602   0.855  17.592 -1.9089  0.8959 -0.2262
 5021TIP3    H239259   3.624   0.975  17.682  0.7638 -0.1092  0.5419
 5022TIP3   OH239260   2.730   4.549  18.070  0.2002  0.0617 -0.3056
 5022TIP3    H139261   2.700   4.459  18.062  0.8687 -0.0835 -1.4472
 5022TIP3    H239262   2.678   4.597  18.005  0.8131  0.2270 -0.6821
 5023TIP3   OH239263   2.606   3.348  16.991  0.0118 -0.1911 -0.1634
 5023TIP3    H139264   2.634   3.436  16.968  3.8479 -0.6201  2.0291
 5023TIP3    H239265   2.671   3.318  17.055 -0.2526 -5.0986 -1.7616
 5024TIP3   OH239266   3.520   5.610  16.654 -0.4821  0.6507  0.0258
 5024TIP3    H139267   3.528   5.633  16.746 -2.1550  1.8311 -0.0863
 5024TIP3    H239268   3.513   5.514  16.654 -0.9500  0.6742  1.1530
 5025TIP3   OH239269   6.081   6.327  18.775  0.3130  0.0912  0.2750
 5025TIP3    H139270   6.160   6.339  18.826  0.4493 -0.9106  0.3245
 5025TIP3    H239271   6.061   6.414  18.740  1.7386  0.2490 -0.1896
 5026TIP3   OH239272   4.112   0.582  17.133 -0.1505  0.1635  0.7008
 5026TIP3    H139273   4.054   0.594  17.208 -0.3368 -0.6239  0.6851
 5026TIP3    H239274   4.137   0.490  17.135  1.1218  0.4866  0.7103
 5027TIP3   OH239275   2.637   1.654  17.317 -0.4818 -0.3293 -0.1284
 5027TIP3    H139276   2.657   1.589  17.250  1.1717 -0.8109  0.7849
 5027TIP3    H239277   2.541   1.661  17.315 -0.6197 -1.9570 -1.0011
 5028TIP3   OH239278   2.852   2.649  17.204 -0.6426 -0.3410 -0.0322
 5028TIP3    H139279   2.877   2.739  17.183 -1.3174  0.0460  0.7792
 5028TIP3    H239280   2.758   2.646  17.189 -0.5487 -1.0646 -0.5417
 5029TIP3   OH239281   1.601   5.049  18.522  0.4299  0.5248  0.5440
 5029TIP3    H139282   1.652   5.115  18.475  1.9970 -0.6513  0.5080
 5029TIP3    H239283   1.542   5.099  18.578  0.8169  1.9411 -0.2806
 5030TIP3   OH239284   3.276   6.798  18.349  0.1120 -0.3765  0.5102
 5030TIP3    H139285   3.355   6.840  18.382  0.4091 -0.1056 -0.5021
 5030TIP3    H239286   3.305   6.753  18.269 -1.0617  1.0860 -0.8013
 5031TIP3   OH239287   7.186   0.960  18.172 -0.5851  0.1281 -0.3404
 5031TIP3    H139288   7.222   0.887  18.121 -0.6406  0.5480 -1.0060
 5031TIP3    H239289   7.251   1.030  18.163 -0.3795  0.0606  0.5561
 5032TIP3   OH239290   7.563   6.168  16.395  0.2306 -0.4671  0.4418
 5032TIP3    H139291   7.492   6.115  16.360 -0.0220 -0.2924  0.6846
 5032TIP3    H239292   7.524   6.253  16.412  0.9923  0.2905 -1.3880
 5033TIP3   OH239293   7.622   4.402  17.605 -0.2125  0.0566 -0.6234
 5033TIP3    H139294   7.551   4.355  17.648 -0.5066 -0.1070 -1.2619
 5033TIP3    H239295   7.691   4.337  17.594  1.1268  0.8243  2.3211
 5034TIP3   OH239296   2.788   5.127  18.787  0.2176 -0.1205 -0.0010
 5034TIP3    H139297   2.796   5.074  18.708  0.3432  0.1923 -0.2000
 5034TIP3    H239298   2.863   5.102  18.841 -0.3713 -1.0146  0.4344
 5035TIP3   OH239299   2.568   0.705  16.327  0.0292 -0.1820 -0.2589
 5035TIP3    H139300   2.529   0.639  16.269 -1.4214  1.2670 -0.9991
 5035TIP3    H239301   2.497   0.729  16.387  0.6444  0.4358  0.2320
 5036TIP3   OH239302   3.208   6.842  17.063 -0.0129  0.0076 -0.3427
 5036TIP3    H139303   3.145   6.771  17.078 -1.7220  1.7463  1.1434
 5036TIP3    H239304   3.245   6.822  16.977 -0.3023 -2.7363  0.0551
 5037TIP3   OH239305   6.296   5.713  18.496 -0.3030  0.0876  0.3410
 5037TIP3    H139306   6.267   5.689  18.584 -1.9340 -0.6972 -0.3525
 5037TIP3    H239307   6.283   5.633  18.444  1.5755  0.2294 -0.4191
 5038TIP3   OH239308   1.058   6.756  17.924 -0.4812  0.7272  0.1124
 5038TIP3    H139309   1.101   6.705  17.992  0.6710 -0.0626 -1.1605
 5038TIP3    H239310   1.130   6.795  17.874 -1.2091 -0.3223 -1.8555
 5039TIP3   OH239311   0.853   6.074  17.068  0.4845  0.3019  0.2789
 5039TIP3    H139312   0.833   6.033  17.153  0.7948  1.3921  0.9026
 5039TIP3    H239313   0.786   6.040  17.009 -0.8053  0.8229  1.3764
 5040TIP3   OH239314   0.987   5.666  17.897  0.0737 -0.2820  0.2014
 5040TIP3    H139315   0.968   5.757  17.876  0.1848  0.2749  2.2799
 5040TIP3    H239316   1.076   5.652  17.865 -0.2001  0.1026 -0.7680
 5041TIP3   OH239317   4.960   5.360  17.499  0.5619  0.2851  0.3397
 5041TIP3    H139318   4.983   5.292  17.435  1.2320 -0.1903  1.0776
 5041TIP3    H239319   4.928   5.432  17.445  1.4422  0.0283 -0.5639
 5042TIP3   OH239320   6.073   2.973  17.705 -0.4630 -0.2201 -0.7068
 5042TIP3    H139321   6.077   2.878  17.714 -1.1791 -0.2902 -1.0540
 5042TIP3    H239322   6.159   3.003  17.731 -0.7043 -0.8428  0.8958
 5043TIP3   OH239323   4.281   2.584  17.529  0.4997 -0.1613  0.0263
 5043TIP3    H139324   4.256   2.525  17.459 -1.2717 -2.0554  2.0933
 5043TIP3    H239325   4.375   2.571  17.540  0.7526 -0.0123 -1.7667
 5044TIP3   OH239326   1.826   0.168  17.850  0.3987  0.2557  1.0484
 5044TIP3    H139327   1.853   0.096  17.907  0.2956 -1.8861 -1.4268
 5044TIP3    H239328   1.732   0.155  17.837  0.2714  1.1730  0.9735
 5045TIP3   OH239329   3.096   6.190  17.730 -0.2100  0.5522  0.6820
 5045TIP3    H139330   3.022   6.203  17.790  0.0105  1.0818  0.8448
 5045TIP3    H239331   3.099   6.095  17.716 -0.4632  0.4517  1.2563
 5046TIP3   OH239332   6.440   3.061  17.478 -0.5278  0.1402 -0.3712
 5046TIP3    H139333   6.412   3.008  17.553 -1.4616  0.8429 -0.2023
 5046TIP3    H239334   6.387   3.141  17.484  1.4031  1.4797 -0.1325
 5047TIP3   OH239335   6.621   0.136  18.523  0.0837  0.0093 -0.0146
 5047TIP3    H139336   6.581   0.088  18.596  0.7692 -0.0689  0.3171
 5047TIP3    H239337   6.591   0.090  18.445  0.6919 -0.9410  0.2937
 5048TIP3   OH239338   0.803   5.401  18.923 -0.2454 -0.0756  0.1119
 5048TIP3    H139339   0.881   5.449  18.953 -1.0509  1.9220 -0.8090
 5048TIP3    H239340   0.732   5.436  18.976 -0.5442 -2.1314  1.1805
 5049TIP3   OH239341   7.590   2.094  18.880  0.2925 -0.4934 -0.2393
 5049TIP3    H139342   7.614   2.098  18.973 -0.7155 -0.8464  0.0494
 5049TIP3    H239343   7.672   2.072  18.836  0.8411 -0.0862  0.5360
 5050TIP3   OH239344   5.681   5.459  18.257 -0.2134 -0.1341  0.4634
 5050TIP3    H139345   5.735   5.488  18.184 -0.3408 -0.2628  0.3161
 5050TIP3    H239346   5.605   5.418  18.215 -0.5869  0.3485  0.6723
 5051TIP3   OH239347   0.222   5.635  18.307 -0.4578 -0.0493  0.0090
 5051TIP3    H139348   0.174   5.621  18.226 -0.3810 -0.2867  0.0046
 5051TIP3    H239349   0.244   5.547  18.339  0.0513  0.0548 -0.0382
 5052TIP3   OH239350   3.344   6.358  18.984  0.2560  0.0576  0.1690
 5052TIP3    H139351   3.319   6.390  18.897 -1.4214 -0.5324  0.4021
 5052TIP3    H239352   3.294   6.412  19.045  2.3396  1.3023  0.8828
 5053TIP3   OH239353   2.752   1.808  16.297 -0.2724  0.3361 -0.1511
 5053TIP3    H139354   2.822   1.857  16.339  0.1316 -0.4475  0.1038
 5053TIP3    H239355   2.792   1.770  16.218 -0.2664 -0.5119  0.2492
 5054TIP3   OH239356   5.918   6.329  16.359 -0.6937 -0.7186 -0.4276
 5054TIP3    H139357   5.921   6.334  16.263 -0.7823 -1.8434 -0.4981
 5054TIP3    H239358   5.996   6.279  16.383 -0.1080  0.4424  0.1753
 5055TIP3   OH239359   3.443   2.400  16.441  0.2918  0.4008  0.1421
 5055TIP3    H139360   3.523   2.442  16.473  0.4569  1.6051 -1.6498
 5055TIP3    H239361   3.373   2.435  16.495  0.8751 -0.0819  1.2344
 5056TIP3   OH239362   5.818   6.557  18.582 -0.5923 -0.4505  0.1510
 5056TIP3    H139363   5.784   6.468  18.580 -1.2458 -0.2008 -0.6437
 5056TIP3    H239364   5.805   6.590  18.493  0.1685  0.2468  0.2857
 5057TIP3   OH239365   1.518   7.161  17.682 -0.1035 -0.0635 -0.6287
 5057TIP3    H139366   1.567   7.192  17.758 -0.6509  0.5178 -0.5130
 5057TIP3    H239367   1.528   7.065  17.686  0.2355 -0.0132 -0.0797
 5058TIP3   OH239368   5.455   6.445  16.912 -0.4381  0.1358  0.3062
 5058TIP3    H139369   5.431   6.371  16.856  1.9004 -0.9522  0.6310
 5058TIP3    H239370   5.533   6.482  16.872 -1.1481  2.0193  0.5594
 5059TIP3   OH239371   3.003   4.808  17.858  0.4835  0.0413 -0.2380
 5059TIP3    H139372   2.931   4.791  17.797  0.2347  0.1858  0.0144
 5059TIP3    H239373   3.019   4.723  17.900  2.4575 -0.7586 -2.4028
 5060TIP3   OH239374   5.309   5.139  18.541 -0.3633 -0.5715  0.3851
 5060TIP3    H139375   5.386   5.192  18.522 -1.0960  0.6516  0.6998
 5060TIP3    H239376   5.257   5.143  18.461 -1.6801  1.4619  1.2745
 5061TIP3   OH239377   6.229   1.851  16.875 -0.0636  0.5272  0.2186
 5061TIP3    H139378   6.154   1.880  16.822 -0.3342  0.2960  0.4675
 5061TIP3    H239379   6.298   1.833  16.811 -0.7863 -0.9696 -0.1983
 5062TIP3   OH239380   2.358   6.623  18.056  0.0693  0.0813  0.2859
 5062TIP3    H139381   2.390   6.665  17.976 -0.8762  0.1825 -0.0564
 5062TIP3    H239382   2.373   6.529  18.041  2.1732  0.2545  1.0471
 5063TIP3   OH239383   7.599   2.071  17.576 -0.5377 -0.6768 -0.2258
 5063TIP3    H139384   7.533   2.139  17.589 -0.5952 -0.8842  0.6333
 5063TIP3    H239385   7.666   2.112  17.522  0.1240  0.5348  1.4496
 5064TIP3   OH239386   1.431   7.425  16.633 -0.2208 -0.3923  0.0455
 5064TIP3    H139387   1.408   7.451  16.544  1.8229  0.1130 -0.3926
 5064TIP3    H239388   1.380   7.346  16.650 -1.7891  0.3660 -0.9820
 5065TIP3   OH239389   0.910   5.960  17.663 -0.4467  0.1430 -0.1657
 5065TIP3    H139390   0.937   5.959  17.571 -0.8110  2.5691 -0.3689
 5065TIP3    H239391   0.823   5.920  17.663  1.3475 -4.3560 -0.0345
 5066TIP3   OH239392   0.022   2.577  16.473  0.1931 -0.5272 -0.5870
 5066TIP3    H139393   0.058   2.521  16.404  0.1627 -0.3520 -0.7463
 5066TIP3    H239394  -0.043   2.631  16.428  1.0770  0.4807 -0.6619
 5067TIP3   OH239395   3.147   5.979  16.004 -0.0912 -0.3244 -0.1603
 5067TIP3    H139396   3.124   6.043  16.071  0.3907  0.6451 -0.8899
 5067TIP3    H239397   3.200   5.914  16.050  1.3543  1.0224  0.1732
 5068TIP3   OH239398   3.315   1.208  17.408 -0.1800  0.7449 -0.2234
 5068TIP3    H139399   3.219   1.205  17.402 -0.2045 -0.7883  0.3697
 5068TIP3    H239400   3.344   1.236  17.321 -1.1509  0.9448 -0.4981
 5069TIP3   OH239401   1.982   0.456  16.867 -0.4346 -0.2582 -0.0422
 5069TIP3    H139402   1.919   0.485  16.802  0.0833  2.4476  0.5223
 5069TIP3    H239403   2.042   0.398  16.820 -2.4808 -1.7553 -0.8980
 5070TIP3   OH239404   3.690   1.444  16.444 -0.1551  0.2528 -0.1072
 5070TIP3    H139405   3.740   1.410  16.370 -1.1933 -3.1838  0.5556
 5070TIP3    H239406   3.748   1.434  16.519 -0.3499  0.3187  0.0536
 5071TIP3   OH239407   0.419   6.224  18.088 -0.1943 -0.1219 -0.4577
 5071TIP3    H139408   0.335   6.196  18.053 -0.7349 -0.3064  0.9141
 5071TIP3    H239409   0.399   6.252  18.177  1.4091 -1.6014  0.4392
 5072TIP3   OH239410   7.601   5.574  17.020 -0.0571  0.1767 -0.1369
 5072TIP3    H139411   7.622   5.666  17.005 -0.9806  0.6352  1.2545
 5072TIP3    H239412   7.508   5.574  17.041  0.0382 -1.0223  0.3404
 5073TIP3   OH239413   6.286   2.963  16.934  0.5261 -0.5454 -0.0144
 5073TIP3    H139414   6.380   2.941  16.938  0.3409 -1.2987  0.5477
 5073TIP3    H239415   6.273   3.022  17.008  0.6078 -0.2411 -0.2429
 5074TIP3   OH239416   7.630   4.591  18.476  0.0426  0.2953 -0.0563
 5074TIP3    H139417   7.641   4.628  18.388 -0.0948  0.7921  0.1318
 5074TIP3    H239418   7.673   4.653  18.534 -2.2669  1.4817  0.5319
 5075TIP3   OH239419   6.686   0.113  18.011 -0.2303 -0.0738  0.0850
 5075TIP3    H139420   6.632   0.112  17.933  0.7668 -2.1072 -0.6497
 5075TIP3    H239421   6.678   0.202  18.045 -0.6601  0.8790 -2.3357
 5076TIP3   OH239422   0.025   2.977  17.541 -0.5086 -0.2711  0.8055
 5076TIP3    H139423  -0.018   2.930  17.469  0.0824 -0.1228  0.3431
 5076TIP3    H239424  -0.011   2.938  17.621 -1.0458 -0.5578  0.4286
 5077TIP3   OH239425   7.472   2.464  18.010  0.0934  0.4392 -0.2646
 5077TIP3    H139426   7.524   2.427  17.939  0.8372  1.2731 -0.1756
 5077TIP3    H239427   7.397   2.504  17.967  0.9142  1.5936 -0.6945
 5078TIP3   OH239428   4.927   2.238  16.958 -0.1972 -0.0498 -0.1254
 5078TIP3    H139429   5.022   2.245  16.963 -0.1447  1.0197 -1.6740
 5078TIP3    H239430   4.909   2.145  16.961  0.9326 -0.2790 -0.1326
 5079TIP3   OH239431   0.365   0.077  17.387  0.1961  0.0206 -0.5333
 5079TIP3    H139432   0.378  -0.002  17.334  0.2657 -0.0670 -0.3849
 5079TIP3    H239433   0.450   0.120  17.387  0.2063 -0.0004 -0.4565
 5080TIP3   OH239434   6.932   4.109  16.811 -0.0873  0.4434 -0.2811
 5080TIP3    H139435   6.960   4.018  16.813  0.6536  0.6329 -1.2552
 5080TIP3    H239436   6.851   4.111  16.863 -1.6677 -1.2987 -2.5008
 5081TIP3   OH239437   7.652   5.867  18.876  0.6058 -0.2031  0.3953
 5081TIP3    H139438   7.618   5.906  18.795 -1.4663 -0.5403  1.0498
 5081TIP3    H239439   7.658   5.773  18.857  0.0044 -0.2979  0.6560
 5082TIP3   OH239440   4.773   6.818  16.921  0.4945  0.0606 -0.1814
 5082TIP3    H139441   4.805   6.730  16.943  0.4054 -0.2599 -1.2453
 5082TIP3    H239442   4.689   6.802  16.878  0.2596  0.7085  0.0322
 5083TIP3   OH239443   0.618   0.690  17.922  0.2641 -0.6708 -0.0973
 5083TIP3    H139444   0.658   0.628  17.983  1.1604  0.2621  0.3110
 5083TIP3    H239445   0.583   0.759  17.979 -0.9428 -0.9123 -0.5228
 5084TIP3   OH239446   1.969   1.459  17.946  0.1622  0.5616  0.5133
 5084TIP3    H139447   1.924   1.524  17.892 -2.3121  1.9215  3.8281
 5084TIP3    H239448   1.923   1.377  17.929 -1.6840  1.3102  1.5803
 5085TIP3   OH239449   4.172   6.430  16.861 -0.2383  0.0086 -0.0938
 5085TIP3    H139450   4.227   6.411  16.785  0.6335  1.3126  0.1795
 5085TIP3    H239451   4.203   6.369  16.929 -0.4293 -0.5553 -0.5030
 5086TIP3   OH239452   4.164   7.212  17.683  0.0950 -0.4091  0.3433
 5086TIP3    H139453   4.163   7.235  17.591 -0.1022 -1.7565 -0.0138
 5086TIP3    H239454   4.092   7.150  17.694 -0.1567  0.0646  1.4906
 5087TIP3   OH239455   6.850   4.065  18.010 -0.3431  0.1462 -0.4180
 5087TIP3    H139456   6.946   4.074  18.014 -0.0254 -1.2994 -2.7850
 5087TIP3    H239457   6.829   4.003  18.079  0.8897 -1.8824 -1.7360
 5088TIP3   OH239458   3.907   5.233  18.362  0.0139 -0.3705 -0.2232
 5088TIP3    H139459   3.936   5.267  18.277 -1.5088  0.9511 -0.2775
 5088TIP3    H239460   3.980   5.250  18.421  0.5880 -0.0962 -0.9997
 5089TIP3   OH239461   5.278   4.282  18.723 -0.1430  0.1067  0.0008
 5089TIP3    H139462   5.314   4.248  18.641 -1.1300  0.6301 -0.6657
 5089TIP3    H239463   5.272   4.376  18.709  0.2947  0.2909  0.9348
 5090TIP3   OH239464   1.330   6.452  18.725 -0.3140 -0.8433 -0.1683
 5090TIP3    H139465   1.297   6.511  18.657 -0.7501 -2.0472 -1.0496
 5090TIP3    H239466   1.252   6.427  18.775  0.1206  0.7026  1.3651
 5091TIP3   OH239467   0.337   6.590  18.984  0.0126  0.0789 -0.6161
 5091TIP3    H139468   0.400   6.653  18.949 -0.3288  0.7074 -0.1201
 5091TIP3    H239469   0.256   6.640  18.995 -0.9650 -1.0107 -2.4142
 5092TIP3   OH239470   2.494   4.047  17.998 -0.3494  0.4301 -0.2347
 5092TIP3    H139471   2.445   4.116  17.953  1.4375  1.5926 -0.4864
 5092TIP3    H239472   2.459   3.966  17.961 -2.6521  1.1349  0.2098
 5093TIP3   OH239473   1.286   4.979  16.588 -0.0773 -0.0034  0.6167
 5093TIP3    H139474   1.309   5.001  16.497  1.5208  0.7900  1.1686
 5093TIP3    H239475   1.277   4.884  16.587  0.7999 -0.1001 -0.2114
 5094TIP3   OH239476   4.205   1.765  17.688 -0.2691  0.2617 -0.1645
 5094TIP3    H139477   4.215   1.683  17.735 -1.0024  0.7968  0.9761
 5094TIP3    H239478   4.196   1.831  17.756 -1.7006  1.0292 -1.0350
 5095TIP3   OH239479   5.018   2.224  18.159  0.0087  0.2514 -0.1768
 5095TIP3    H139480   4.928   2.191  18.161 -0.5477  1.7194 -0.4103
 5095TIP3    H239481   5.062   2.180  18.232 -0.8768 -0.5057 -0.0920
 5096TIP3   OH239482   5.202   4.174  17.454 -0.0326  0.0000  0.5251
 5096TIP3    H139483   5.208   4.239  17.525 -2.4094 -0.0130  0.8155
 5096TIP3    H239484   5.165   4.223  17.380  0.4034 -0.4863 -0.0240
 5097TIP3   OH239485   2.399   4.302  17.332  0.1132 -0.6152  0.1508
 5097TIP3    H139486   2.495   4.294  17.333  0.1463 -0.2616  0.3303
 5097TIP3    H239487   2.368   4.234  17.392  0.1151 -2.1487 -1.5021
 5098TIP3   OH239488   0.860   0.151  16.774  0.4777  0.0920 -0.3051
 5098TIP3    H139489   0.870   0.231  16.723 -0.0789  1.0004  0.9601
 5098TIP3    H239490   0.924   0.091  16.737  1.1900  1.2588 -1.0207
 5099TIP3   OH239491   1.664   1.972  18.018  0.4883  0.2585  0.1294
 5099TIP3    H139492   1.587   1.917  18.001 -1.3457  2.2731  1.4453
 5099TIP3    H239493   1.649   2.051  17.965  0.9430  1.2473  1.4258
 5100TIP3   OH239494   4.286   6.459  16.485  0.0013 -0.0980  0.5792
 5100TIP3    H139495   4.354   6.418  16.431 -0.5153  1.7682 -1.6248
 5100TIP3    H239496   4.209   6.404  16.472 -0.1227  0.3358 -0.6682
 5101TIP3   OH239497   1.274   7.628  16.895  0.0685  0.2178 -0.4292
 5101TIP3    H139498   1.345   7.583  16.942  0.6084 -1.0088 -2.3322
 5101TIP3    H239499   1.238   7.689  16.960  1.6745 -0.4084  1.1394
 5102TIP3   OH239500   3.459   0.072  18.454  0.4023  0.1941 -0.7917
 5102TIP3    H139501   3.529   0.137  18.447 -1.3553  2.1329 -1.2894
 5102TIP3    H239502   3.414   0.093  18.536  1.2573 -1.9981  0.3124
 5103TIP3   OH239503   2.723   2.156  17.788  0.5304 -0.5498 -0.1845
 5103TIP3    H139504   2.637   2.112  17.783 -0.2046  0.6673  1.0994
 5103TIP3    H239505   2.705   2.237  17.835  2.3218 -0.0410 -0.3350
 5104TIP3   OH239506   3.758   5.858  17.532 -0.0405  0.0897 -0.0462
 5104TIP3    H139507   3.746   5.776  17.484  0.5474  0.6280 -1.1468
 5104TIP3    H239508   3.852   5.876  17.527 -0.0898  0.5840  0.6122
 5105TIP3   OH239509   6.757   1.459  16.457  0.0769 -0.5347 -0.8099
 5105TIP3    H139510   6.838   1.409  16.465  0.9482  0.9704  0.1143
 5105TIP3    H239511   6.729   1.476  16.547  0.2130  1.2530 -1.0769
 5106TIP3   OH239512   1.080   3.661  17.011  0.0778 -0.0603 -0.1634
 5106TIP3    H139513   1.071   3.633  16.920 -1.1113  1.6328 -0.6101
 5106TIP3    H239514   0.993   3.694  17.034  0.0308 -1.4174  1.9568
 5107TIP3   OH239515   2.872   7.267  16.143 -0.2086  0.9333 -0.2270
 5107TIP3    H139516   2.827   7.322  16.208 -0.3668  1.0597 -0.4430
 5107TIP3    H239517   2.898   7.189  16.192 -0.4916  0.9468 -0.0543
 5108TIP3   OH239518   2.235   5.940  16.669  0.2526  0.3890  0.3818
 5108TIP3    H139519   2.198   6.028  16.670  3.2165  1.7325  1.1875
 5108TIP3    H239520   2.310   5.944  16.729  0.9338 -2.4938 -0.1134
 5109TIP3   OH239521   1.381   3.224  17.104 -0.1697  0.0168  0.2203
 5109TIP3    H139522   1.294   3.239  17.067  0.2109  1.4407 -0.1829
 5109TIP3    H239523   1.440   3.224  17.028  0.2815  0.0271  0.5637
 5110TIP3   OH239524   1.986   5.904  17.340 -0.0772  0.3203  0.0034
 5110TIP3    H139525   1.929   5.929  17.267 -0.6446 -0.7837  0.0542
 5110TIP3    H239526   1.997   5.810  17.331 -1.1455 -0.0487  2.0213
 5111TIP3   OH239527   2.914   6.126  16.756  0.1296 -0.3266 -0.1335
 5111TIP3    H139528   2.907   6.126  16.851  0.0101  0.0514 -0.1402
 5111TIP3    H239529   2.859   6.053  16.728  1.4690 -1.5070  0.1676
 5112TIP3   OH239530   4.846   2.478  17.071 -0.2567 -0.4858  0.7841
 5112TIP3    H139531   4.750   2.478  17.076 -0.4302 -0.9504 -1.5961
 5112TIP3    H239532   4.868   2.403  17.016  1.2031  1.8092 -1.9997
 5113TIP3   OH239533   0.513   3.575  17.458 -0.1151 -0.6008  0.4345
 5113TIP3    H139534   0.595   3.535  17.485  0.8141 -0.2653 -1.7256
 5113TIP3    H239535   0.455   3.500  17.441  0.4318 -0.9143 -0.0740
 5114TIP3   OH239536   1.818   0.182  17.209  0.0388 -0.6721  0.3184
 5114TIP3    H139537   1.809   0.254  17.146  1.6679 -1.6407 -1.1139
 5114TIP3    H239538   1.753   0.202  17.276  0.1823  1.9433 -0.1749
 5115TIP3   OH239539   0.203   3.287  16.645  0.0431 -0.8020 -0.5243
 5115TIP3    H139540   0.145   3.361  16.665  1.5278  0.7466 -1.6530
 5115TIP3    H239541   0.147   3.210  16.652 -1.6850  0.4606  0.2302
 5116TIP3   OH239542   6.838   5.813  16.104  0.0993  0.1707  0.4509
 5116TIP3    H139543   6.847   5.864  16.024  1.9394 -0.0998  0.4457
 5116TIP3    H239544   6.825   5.723  16.074  0.5914  0.0999  0.4330
 5117TIP3   OH239545   7.001   1.089  18.051 -0.1373 -0.4396  0.1238
 5117TIP3    H139546   7.056   1.079  17.973  0.4171 -0.8541  0.5647
 5117TIP3    H239547   7.037   1.028  18.114 -0.8375 -0.3946  0.5758
 5118TIP3   OH239548   4.949   2.040  17.333 -0.3600  0.6764  0.1965
 5118TIP3    H139549   4.955   2.081  17.247  1.6929  0.1612  0.0397
 5118TIP3    H239550   4.951   1.946  17.317 -0.1074  0.5709  0.7872
 5119TIP3   OH239551   0.254   6.823  17.876  0.3946  0.2031 -0.5379
 5119TIP3    H139552   0.226   6.915  17.870  2.8430  1.1208  0.5831
 5119TIP3    H239553   0.177   6.777  17.909 -0.8073  1.9059 -0.7878
 5120TIP3   OH239554   0.475   7.567  18.549  0.8752 -0.1964  0.0569
 5120TIP3    H139555   0.510   7.579  18.638 -0.4366 -0.4535  0.6313
 5120TIP3    H239556   0.383   7.595  18.556  0.7121 -0.4063 -1.1784
 5121TIP3   OH239557   1.730   5.970  16.546 -0.3338  0.0298 -0.0799
 5121TIP3    H139558   1.739   5.891  16.599  0.6249 -0.0652 -0.3588
 5121TIP3    H239559   1.648   5.958  16.499 -2.2202  0.9468  2.6986
 5122TIP3   OH239560   0.963   3.210  17.538 -0.5010  0.4564 -0.4560
 5122TIP3    H139561   1.027   3.239  17.474 -0.4667 -1.2540 -1.2636
 5122TIP3    H239562   1.014   3.164  17.604 -0.8596 -1.2305 -1.2879
 5123TIP3   OH239563   6.868   0.878  17.068  0.4087  0.3789  0.1468
 5123TIP3    H139564   6.789   0.897  17.119  0.1417  1.3470 -0.5994
 5123TIP3    H239565   6.869   0.782  17.062  0.0391  0.2752  1.3034
 5124TIP3   OH239566   6.913   4.385  16.754 -0.0575  0.1812 -0.0611
 5124TIP3    H139567   6.820   4.396  16.736 -0.1305  1.4265  0.9502
 5124TIP3    H239568   6.919   4.301  16.800 -0.3348 -1.1035 -2.1874
 5125TIP3   OH239569   4.037   3.565  18.814 -0.3689  0.3945 -0.4920
 5125TIP3    H139570   4.068   3.650  18.845  0.0051 -0.0575  0.3940
 5125TIP3    H239571   4.027   3.513  18.893  1.6793 -1.1384 -1.1704
 5126TIP3   OH239572   7.527   6.164  18.327  0.6524  0.0162  0.2160
 5126TIP3    H139573   7.439   6.140  18.354  0.2580 -2.0813 -2.5172
 5126TIP3    H239574   7.514   6.234  18.263  0.9676 -0.2506 -0.1426
 5127TIP3   OH239575   5.771   1.153  18.489 -0.8178  0.5107 -0.4965
 5127TIP3    H139576   5.822   1.233  18.488  2.6853 -1.3846  2.3541
 5127TIP3    H239577   5.711   1.163  18.563 -1.1612  0.8460 -0.8123
 5128TIP3   OH239578   6.665   5.524  18.251 -0.1508  0.3741  0.3244
 5128TIP3    H139579   6.699   5.456  18.308 -0.8344  0.1044  0.4167
 5128TIP3    H239580   6.600   5.480  18.196  0.4254  0.6412 -0.6127
 5129TIP3   OH239581   0.284   5.703  17.632  0.1095 -0.4649  0.1853
 5129TIP3    H139582   0.356   5.679  17.574 -0.1458  1.1889 -0.8840
 5129TIP3    H239583   0.245   5.780  17.591 -1.1272 -0.2342  1.7079
 5130TIP3   OH239584   5.515   4.182  17.709 -0.3054 -0.3122  0.1071
 5130TIP3    H139585   5.450   4.249  17.693  1.1075  0.9636 -0.5765
 5130TIP3    H239586   5.478   4.103  17.669 -1.3429  0.4181 -0.4236
 5131TIP3   OH239587   4.984   1.246  17.954 -0.0915  0.2769  0.2768
 5131TIP3    H139588   5.033   1.217  18.031 -0.1034 -0.0545  0.1632
 5131TIP3    H239589   4.950   1.165  17.915 -0.4641  0.4797  0.1764
 5132TIP3   OH239590   7.600   1.783  18.018  0.2261 -0.1885 -0.5469
 5132TIP3    H139591   7.606   1.809  17.926  0.8300 -0.9129 -0.7209
 5132TIP3    H239592   7.684   1.742  18.037  0.5055  0.8737  0.6322
 5133TIP3   OH239593   3.910   4.933  16.738  0.5196 -0.4807  0.4589
 5133TIP3    H139594   3.882   4.849  16.774 -2.8741  0.7088  0.9619
 5133TIP3    H239595   3.910   4.993  16.813  3.5669 -0.0561  0.2561
 5134TIP3   OH239596   1.578   1.944  16.477 -0.6123  0.3776 -0.2420
 5134TIP3    H139597   1.520   2.002  16.428 -0.5889 -1.5784 -2.7926
 5134TIP3    H239598   1.625   1.894  16.410  0.2270 -1.7475  1.7680
 5135TIP3   OH239599   4.468   0.864  17.162  0.0420  0.0155 -0.6305
 5135TIP3    H139600   4.473   0.787  17.218 -0.5427  0.0035 -0.5802
 5135TIP3    H239601   4.443   0.935  17.221 -0.2746  0.0641 -0.8137
 5136TIP3   OH239602   3.785   1.814  16.787  0.3196  1.1149  0.1469
 5136TIP3    H139603   3.771   1.719  16.784 -0.1530  1.1427  1.0907
 5136TIP3    H239604   3.810   1.837  16.698  0.4653  0.0984 -0.0905
 5137TIP3   OH239605   4.046   0.076  18.766  0.7482  0.2148 -0.1243
 5137TIP3    H139606   4.063  -0.001  18.820  0.2801  1.1967  1.4790
 5137TIP3    H239607   4.096   0.060  18.686  2.5815 -0.6868  1.1199
 5138TIP3   OH239608   7.160   5.845  17.124  0.1124  0.2002  0.5235
 5138TIP3    H139609   7.086   5.882  17.076  1.2961  1.2120 -0.5712
 5138TIP3    H239610   7.140   5.752  17.131 -1.8844  0.6437  1.4197
 5139TIP3   OH239611   3.162   2.747  16.324 -0.8290 -0.0025 -0.0006
 5139TIP3    H139612   3.238   2.728  16.270 -0.7585 -0.3223  0.2039
 5139TIP3    H239613   3.170   2.688  16.399 -1.7463 -0.6873 -0.4195
 5140TIP3   OH239614   0.972   3.569  16.491  0.0278  0.4560 -0.5170
 5140TIP3    H139615   0.880   3.577  16.518 -0.5111  0.3170 -2.2237
 5140TIP3    H239616   1.010   3.509  16.555 -1.0631  0.4761  0.1878
 5141TIP3   OH239617   0.935   1.456  17.646  0.7789 -0.7039  0.2891
 5141TIP3    H139618   0.989   1.400  17.590  0.8202  0.7110 -1.1649
 5141TIP3    H239619   0.947   1.544  17.610 -2.8306 -0.3622 -0.4109
 5142TIP3   OH239620   3.452   3.305  16.288 -1.0069  0.0363  0.1183
 5142TIP3    H139621   3.530   3.318  16.343 -0.7081 -0.6096 -0.1475
 5142TIP3    H239622   3.486   3.303  16.199 -1.7196  3.3307 -0.3452
 5143TIP3   OH239623   6.492   5.139  18.894 -0.3212 -0.0049  0.1883
 5143TIP3    H139624   6.458   5.229  18.899 -1.7935 -0.3470 -2.1740
 5143TIP3    H239625   6.585   5.147  18.917 -0.5860  1.9741  0.7806
 5144TIP3   OH239626   2.366   0.705  17.743 -0.4369  0.3643  0.4702
 5144TIP3    H139627   2.327   0.639  17.800 -0.9436  0.8156  0.6534
 5144TIP3    H239628   2.367   0.664  17.656  3.1903 -1.5652  1.2431
 5145TIP3   OH239629   4.680   3.606  17.190 -0.2305  0.1875  0.1213
 5145TIP3    H139630   4.643   3.688  17.221  1.7609  1.1943 -0.0203
 5145TIP3    H239631   4.747   3.631  17.126 -0.0554 -1.5726 -0.4603
 5146TIP3   OH239632   5.343   4.693  17.178  0.1072 -0.4347  0.2636
 5146TIP3    H139633   5.398   4.728  17.108 -0.6170  1.9278  0.7870
 5146TIP3    H239634   5.280   4.763  17.196 -0.2423 -1.2971  2.7423
 5147TIP3   OH239635   5.392   1.283  15.820 -0.0738 -0.0856 -0.6134
 5147TIP3    H139636   5.451   1.234  15.763  0.7693  0.6841 -0.4253
 5147TIP3    H239637   5.362   1.219  15.884 -1.9918 -1.2721 -2.5717
 5148TIP3   OH239638   7.172   1.045  16.759  0.3572  0.5112 -0.7227
 5148TIP3    H139639   7.174   0.975  16.693  0.3428 -0.1176 -0.0605
 5148TIP3    H239640   7.203   1.004  16.839  0.6849  1.3584 -0.4007
 5149TIP3   OH239641   6.883   6.961  18.286 -0.6596  0.0694 -0.2331
 5149TIP3    H139642   6.911   7.046  18.252 -0.9135  0.0908 -0.3863
 5149TIP3    H239643   6.964   6.920  18.316 -0.6580  0.8243  0.8797
 5150TIP3   OH239644   2.487   4.085  18.297  0.3028  0.6764 -0.1064
 5150TIP3    H139645   2.440   4.084  18.213  1.6995 -0.5886 -0.9192
 5150TIP3    H239646   2.572   4.125  18.277  0.5795  0.5394  0.7539
 5151TIP3   OH239647   2.931   7.103  18.601 -0.2623  0.0702 -0.1211
 5151TIP3    H139648   3.008   7.049  18.621 -0.0916  0.9332  1.6638
 5151TIP3    H239649   2.948   7.186  18.644 -0.7917  1.4116 -2.3659
 5152TIP3   OH239650   6.015   6.987  17.008 -0.3005  0.4655 -0.8918
 5152TIP3    H139651   6.088   6.967  17.067 -1.9927 -1.4578  0.7176
 5152TIP3    H239652   6.057   7.020  16.929  2.1923  1.4645  0.7039
 5153TIP3   OH239653   4.717   3.461  16.884  0.3460 -0.5092 -0.0291
 5153TIP3    H139654   4.684   3.434  16.798  0.1992 -0.5288  0.0317
 5153TIP3    H239655   4.769   3.539  16.867 -0.3279 -0.0515 -0.0373
 5154TIP3   OH239656   1.550   4.939  17.924  0.1561 -0.5439  0.0327
 5154TIP3    H139657   1.512   4.932  18.012  0.7073 -1.4125  0.2158
 5154TIP3    H239658   1.644   4.933  17.939  0.2110 -3.6936 -0.8220
 5155TIP3   OH239659   5.328   3.987  17.303 -0.2767 -0.1004  0.2343
 5155TIP3    H139660   5.261   4.045  17.339 -0.4047  0.2776 -0.5977
 5155TIP3    H239661   5.387   3.970  17.377 -0.3759  0.8843  0.5537
 5156TIP3   OH239662   3.649   5.242  17.955  0.4868 -0.6860  0.0128
 5156TIP3    H139663   3.594   5.202  17.887 -0.9745 -1.0341  1.3391
 5156TIP3    H239664   3.694   5.314  17.911 -1.3640 -0.1280 -1.0580
 5157TIP3   OH239665   5.973   3.672  16.882 -0.2166 -0.3501 -0.4088
 5157TIP3    H139666   6.010   3.732  16.947  0.5566 -0.0238 -1.1434
 5157TIP3    H239667   5.988   3.585  16.918  0.3766 -0.1786 -0.2325
 5158TIP3   OH239668   5.252   7.332  17.006 -0.0957 -0.5616 -0.6751
 5158TIP3    H139669   5.239   7.339  17.101 -0.5300 -0.6764 -0.7247
 5158TIP3    H239670   5.172   7.292  16.974  0.6131 -1.8408 -0.9220
 5159TIP3   OH239671   2.901   2.145  17.582 -0.1458 -0.1374  0.0968
 5159TIP3    H139672   2.838   2.109  17.519 -0.6243 -0.4210  0.7191
 5159TIP3    H239673   2.846   2.180  17.652  0.3991 -0.4824  0.6977
 5160TIP3   OH239674   1.269   7.158  17.822  0.4570 -0.1596  0.3170
 5160TIP3    H139675   1.225   7.221  17.764  0.9983  0.0551  0.1330
 5160TIP3    H239676   1.358   7.153  17.788  0.9428  0.3973  1.4626
 5161TIP3   OH239677   4.831   1.350  17.718 -0.5529  0.0551 -0.9562
 5161TIP3    H139678   4.791   1.264  17.731 -1.2409  0.4501 -0.4049
 5161TIP3    H239679   4.807   1.400  17.796  1.9332 -0.0114 -0.0593
 5162TIP3   OH239680   1.332   6.924  17.203 -0.0597 -0.0247  0.2603
 5162TIP3    H139681   1.343   6.955  17.293 -0.7838 -1.5533  0.9114
 5162TIP3    H239682   1.242   6.892  17.200  0.6533 -2.0861 -0.3332
 5163TIP3   OH239683   1.423   4.503  17.139 -0.3189 -0.2825 -0.3139
 5163TIP3    H139684   1.446   4.529  17.050  0.1780 -2.9130 -1.0294
 5163TIP3    H239685   1.328   4.512  17.144 -0.2128  1.1668 -0.6329
 5164TIP3   OH239686   2.833   2.799  17.606 -0.6966 -0.4851  0.3756
 5164TIP3    H139687   2.848   2.853  17.684  1.1543 -0.5356  0.0990
 5164TIP3    H239688   2.808   2.862  17.538  1.0108  0.0403  0.1711
 5165TIP3   OH239689   5.457   5.508  17.056  0.2097 -0.5367  0.0696
 5165TIP3    H139690   5.479   5.428  17.104 -2.0219 -1.0648  0.3136
 5165TIP3    H239691   5.373   5.535  17.092  0.5082  1.4800 -0.5992
 5166TIP3   OH239692   7.087   0.272  18.541 -0.1016  0.0001  0.2503
 5166TIP3    H139693   7.010   0.297  18.593 -1.3484  0.9031 -1.8988
 5166TIP3    H239694   7.153   0.338  18.563 -0.8126  0.7286  0.2494
 5167TIP3   OH239695   0.358   4.649  16.326  0.1477  0.2932  0.2560
 5167TIP3    H139696   0.440   4.663  16.373  0.6158 -0.6226 -0.2481
 5167TIP3    H239697   0.375   4.573  16.271 -0.7214  0.7177 -0.6240
 5168TIP3   OH239698   2.480   4.508  18.232  0.4011  0.4477  0.2937
 5168TIP3    H139699   2.463   4.449  18.159  0.1090  0.6836  0.1657
 5168TIP3    H239700   2.429   4.472  18.304  2.5093 -1.1222  1.0883
 5169TIP3   OH239701   6.603   2.042  17.076 -0.0863  0.4718 -0.3086
 5169TIP3    H139702   6.583   2.070  16.987 -2.3163  0.6024  0.1728
 5169TIP3    H239703   6.561   2.107  17.132  1.7197  0.6832  0.8744
 5170TIP3   OH239704   5.712   5.124  17.260 -0.2310 -0.1652  0.2733
 5170TIP3    H139705   5.656   5.188  17.216 -0.4974 -0.7797 -0.2769
 5170TIP3    H239706   5.653   5.053  17.286  0.4935 -1.5166 -1.6065
 5171TIP3   OH239707   1.379   3.617  18.214  0.2869  0.6779 -0.1623
 5171TIP3    H139708   1.438   3.559  18.166  0.1077  0.8690 -0.6152
 5171TIP3    H239709   1.374   3.578  18.302  1.3570  0.8458 -0.0052
 5172TIP3   OH239710   3.175   6.965  18.620  0.5343  0.0655 -0.5299
 5172TIP3    H139711   3.256   6.920  18.594  1.9056  1.5029  0.9784
 5172TIP3    H239712   3.179   6.966  18.716  0.2866  2.8362 -0.4846
 5173TIP3   OH239713   6.592   6.520  17.786  0.4584 -0.1581  0.4322
 5173TIP3    H139714   6.564   6.605  17.818  1.9549  1.0258 -1.2034
 5173TIP3    H239715   6.539   6.457  17.835 -0.8958  1.6983  1.4764
 5174TIP3   OH239716   2.993   4.623  18.076  0.2793 -0.5008 -0.3372
 5174TIP3    H139717   2.903   4.602  18.052  0.3154 -0.5450 -0.4341
 5174TIP3    H239718   3.002   4.592  18.167  0.1932 -0.4862 -0.3231
 5175TIP3   OH239719   3.942   5.485  17.616 -0.3840 -0.0612 -0.3878
 5175TIP3    H139720   3.884   5.521  17.549  0.0556 -0.3150 -0.9051
 5175TIP3    H239721   4.027   5.524  17.598 -0.2278 -0.2443 -0.0621
 5176TIP3   OH239722   3.239   5.030  17.660  0.4265 -0.5713  0.1284
 5176TIP3    H139723   3.240   4.959  17.724  2.2784 -0.9664 -0.2913
 5176TIP3    H239724   3.266   5.107  17.709 -2.5356  0.1616  0.8228
 5177TIP3   OH239725   1.776   2.478  18.411 -0.2498 -0.2474  0.0971
 5177TIP3    H139726   1.839   2.435  18.469 -1.1302  0.4511  1.6430
 5177TIP3    H239727   1.829   2.512  18.339  1.0435 -0.3369  0.9678
 5178TIP3   OH239728   5.196   5.563  17.153  0.4716 -0.4840 -0.4785
 5178TIP3    H139729   5.118   5.511  17.167  0.2155 -0.4956 -1.8259
 5178TIP3    H239730   5.178   5.614  17.074  1.1516  0.8094  0.1651
 5179TIP3   OH239731   0.500   5.964  18.796  0.1000 -0.0561  0.3767
 5179TIP3    H139732   0.547   5.967  18.712  0.8842 -1.6213  0.7213
 5179TIP3    H239733   0.434   5.896  18.783  1.9239 -2.2344  1.8005
 5180TIP3   OH239734   3.018   6.715  16.601 -0.3374  0.5558  0.3941
 5180TIP3    H139735   3.022   6.809  16.585 -1.3673  0.7615  1.2443
 5180TIP3    H239736   3.075   6.700  16.676 -1.0652  0.6889  0.9827
 5181TIP3   OH239737   6.205   3.921  18.666  0.6609 -0.1422  0.7685
 5181TIP3    H139738   6.201   3.827  18.647 -1.6591 -0.1152  0.7371
 5181TIP3    H239739   6.195   3.963  18.581  2.0418  0.1763  0.7374
 5182TIP3   OH239740   4.951   0.843  16.725 -0.5567  0.0534  0.3167
 5182TIP3    H139741   4.887   0.774  16.707  0.9978 -1.0719 -1.2047
 5182TIP3    H239742   4.991   0.861  16.640 -0.2005  2.1149  0.8839
 5183TIP3   OH239743   5.465   1.013  16.272 -0.5288  0.3628  0.0643
 5183TIP3    H139744   5.528   1.044  16.207 -0.0498 -0.1770  0.2697
 5183TIP3    H239745   5.404   0.958  16.222  0.2323 -0.6010  0.1872
 5184TIP3   OH239746   0.888   6.962  18.458  0.3239  0.1786 -0.0178
 5184TIP3    H139747   0.830   6.914  18.398  1.3020 -2.8054  1.2279
 5184TIP3    H239748   0.942   7.016  18.400  0.0243 -1.2103 -1.6962
 5185TIP3   OH239749   2.904   1.026  18.638  0.1049  0.1403 -0.4502
 5185TIP3    H139750   2.850   0.958  18.677  0.6640  0.5183  1.0562
 5185TIP3    H239751   2.850   1.062  18.567 -0.9543 -0.5758 -0.0306
 5186TIP3   OH239752   5.065   4.481  18.840  0.2589 -0.2903 -0.1319
 5186TIP3    H139753   4.988   4.534  18.822  0.3530  0.3553  1.2251
 5186TIP3    H239754   5.048   4.398  18.796 -2.0870 -0.8460  1.6065
 5187TIP3   OH239755   2.628   0.263  16.915  0.8239  0.9575  0.4858
 5187TIP3    H139756   2.621   0.270  16.820  0.7932 -1.6426  0.2140
 5187TIP3    H239757   2.540   0.239  16.944  0.6708  2.4045  1.2723
 5188TIP3   OH239758   3.300   3.997  17.955 -0.5426 -0.5234  0.0999
 5188TIP3    H139759   3.389   3.968  17.934 -0.6428  0.3308 -1.7395
 5188TIP3    H239760   3.246   3.918  17.945 -0.0188 -1.0158  1.1002
 5189TIP3   OH239761   6.336   5.202  17.496  0.0527 -0.0789  0.4517
 5189TIP3    H139762   6.300   5.135  17.438  3.3447 -2.4802  0.8672
 5189TIP3    H239763   6.283   5.195  17.576 -2.0279  0.5225 -0.8061
 5190TIP3   OH239764   4.684   2.000  18.900  0.1045 -0.4644 -0.2243
 5190TIP3    H139765   4.736   2.048  18.964  0.5624 -0.9278 -0.2409
 5190TIP3    H239766   4.632   2.067  18.855  0.2171 -0.0721  0.2230
 5191TIP3   OH239767   2.054   7.504  18.650  0.3352 -0.1192 -0.2285
 5191TIP3    H139768   2.077   7.492  18.742  1.1184 -0.3739 -0.4550
 5191TIP3    H239769   2.066   7.598  18.634  1.9182 -0.3406 -0.5147
 5192TIP3   OH239770   1.497   1.363  17.676 -0.3266 -0.0493  0.7697
 5192TIP3    H139771   1.477   1.334  17.587  2.3888  1.3249 -0.4349
 5192TIP3    H239772   1.553   1.294  17.711  0.3201  0.3484  0.5602
 5193TIP3   OH239773   7.647   1.122  16.703  0.6904  0.2106  0.6695
 5193TIP3    H139774   7.607   1.086  16.624  0.0463 -1.2470  1.6079
 5193TIP3    H239775   7.617   1.213  16.706  0.9467  0.3664 -0.8785
 5194TIP3   OH239776   4.411   3.207  17.582  0.6196 -0.5249 -0.8584
 5194TIP3    H139777   4.465   3.200  17.503  1.3445  1.5356 -0.6194
 5194TIP3    H239778   4.371   3.120  17.592  3.1644 -1.8863 -1.5668
 5195TIP3   OH239779   6.683   3.868  17.377  0.0068 -0.4997  0.1571
 5195TIP3    H139780   6.660   3.776  17.383 -1.3077 -0.1082  1.7443
 5195TIP3    H239781   6.778   3.870  17.388  0.1364 -1.7020 -0.5929
 5196TIP3   OH239782   2.164   4.070  18.561 -0.4280  0.7731  0.3631
 5196TIP3    H139783   2.180   4.144  18.620  1.7410  0.9751 -0.3950
 5196TIP3    H239784   2.249   4.025  18.555 -0.8126  0.2125 -1.8431
 5197TIP3   OH239785   0.586   0.916  18.092  0.3465 -0.2672 -0.3582
 5197TIP3    H139786   0.618   0.929  18.182  1.3454 -0.6058 -0.6488
 5197TIP3    H239787   0.561   1.003  18.063 -0.3041 -0.2014  0.3573
 5198TIP3   OH239788   4.713   3.688  16.522  0.1246  0.1759 -0.4097
 5198TIP3    H139789   4.673   3.617  16.573  1.6121 -0.1367  0.3616
 5198TIP3    H239790   4.765   3.643  16.456  1.0187  0.5367  0.0416
 5199TIP3   OH239791   7.633   5.502  18.412 -0.1744  0.0700  0.4202
 5199TIP3    H139792   7.695   5.502  18.485  0.6431  1.3770 -0.2540
 5199TIP3    H239793   7.662   5.430  18.356  0.9502  0.8592 -0.0447
 5200TIP3   OH239794   3.818   0.585  18.374 -0.6497  0.2393  0.3588
 5200TIP3    H139795   3.804   0.680  18.369  0.1842  0.3926  0.7432
 5200TIP3    H239796   3.840   0.569  18.466  0.9456 -0.0487 -0.0352
 5201TIP3   OH239797   5.203   2.640  17.131 -0.1468  0.2406  0.0386
 5201TIP3    H139798   5.281   2.651  17.077 -0.6498 -0.4966 -0.8758
 5201TIP3    H239799   5.132   2.677  17.078 -0.5059  0.3414  0.5880
 5202TIP3   OH239800   1.819   4.801  17.854  0.4646 -0.3195  0.1699
 5202TIP3    H139801   1.808   4.895  17.845  2.0964  0.3378  3.4880
 5202TIP3    H239802   1.913   4.787  17.851  0.3346 -1.6137  1.1605
 5203TIP3   OH239803   0.487   4.221  17.962  0.0970  0.6003 -0.3509
 5203TIP3    H139804   0.419   4.288  17.975 -1.6040 -1.0308 -0.4181
 5203TIP3    H239805   0.451   4.164  17.893  2.7601  1.1866 -2.4110
 5204TIP3   OH239806   5.703   2.926  17.581  0.5200 -0.1403  0.7644
 5204TIP3    H139807   5.706   2.922  17.676  0.1271 -0.1923  0.7755
 5204TIP3    H239808   5.610   2.921  17.559  0.6285 -0.4839  0.3631
 5205TIP3   OH239809   2.292   1.646  18.689 -0.1909 -0.2073 -0.7106
 5205TIP3    H139810   2.198   1.665  18.694 -0.5105 -1.6920 -0.5811
 5205TIP3    H239811   2.327   1.716  18.633 -1.3331  0.4767 -0.6212
 5206TIP3   OH239812   6.757   3.541  18.194  0.6480  0.1510  0.6144
 5206TIP3    H139813   6.770   3.570  18.285  1.0873  0.0843  0.5764
 5206TIP3    H239814   6.678   3.587  18.165  0.6801  0.4110  0.9321
 5207TIP3   OH239815   2.710   4.560  18.374 -0.3381 -0.1405 -0.1261
 5207TIP3    H139816   2.792   4.525  18.340 -0.8236 -0.7764 -0.6765
 5207TIP3    H239817   2.644   4.528  18.313 -0.9325  0.8190 -0.0029
 5208TIP3   OH239818   6.785   0.347  18.601  0.1859  0.0413  0.0717
 5208TIP3    H139819   6.722   0.416  18.623  1.2244  1.2567 -0.6391
 5208TIP3    H239820   6.734   0.266  18.604 -1.3914  0.9764 -0.4384
 5209TIP3   OH239821   6.112   5.758  18.144 -0.3261  0.2762 -0.0838
 5209TIP3    H139822   6.027   5.759  18.100  0.1109 -0.8666 -1.0186
 5209TIP3    H239823   6.175   5.738  18.074  0.5699 -0.0737  0.7922
 5210TIP3   OH239824   1.931   1.638  18.174 -0.3333  0.2106  0.0163
 5210TIP3    H139825   1.928   1.572  18.105  0.9607 -1.1931  1.2239
 5210TIP3    H239826   1.851   1.622  18.225 -1.0128  0.8907 -0.8093
 5211TIP3   OH239827   5.984   2.731  17.126 -0.2010 -0.4827  0.2558
 5211TIP3    H139828   5.889   2.736  17.111 -0.2018  1.1174  0.6708
 5211TIP3    H239829   6.003   2.802  17.187  1.3502 -0.4405 -0.2300
 5212TIP3   OH239830   2.510   4.378  16.294  0.0355  0.1641 -0.1955
 5212TIP3    H139831   2.599   4.410  16.308  0.2699  0.0163 -1.3054
 5212TIP3    H239832   2.520   4.283  16.283 -0.0625  0.3092 -1.7642
 5213TIP3   OH239833   6.181   3.247  18.944 -0.0038  0.7980 -0.5552
 5213TIP3    H139834   6.237   3.173  18.922 -2.3598 -1.3665  0.2493
 5213TIP3    H239835   6.169   3.241  19.039  0.3081  2.6712 -0.3536
 5214TIP3   OH239836   6.716   5.047  17.289  0.3467  0.3105 -0.0252
 5214TIP3    H139837   6.777   5.120  17.278  0.9676 -0.1608  0.2475
 5214TIP3    H239838   6.665   5.070  17.367 -1.2363  1.6710 -1.3816
 5215TIP3   OH239839   3.001   6.946  18.077  0.1580 -0.2956  0.6073
 5215TIP3    H139840   3.072   6.974  18.019 -0.0459 -1.2505 -0.1307
 5215TIP3    H239841   3.040   6.949  18.165  1.0897 -0.6935  0.2320
 5216TIP3   OH239842   6.367   5.350  18.404  0.2965 -0.1989  0.1587
 5216TIP3    H139843   6.388   5.287  18.334 -1.6086 -1.7050  0.8429
 5216TIP3    H239844   6.311   5.415  18.361 -0.4187 -0.8152  0.1351
 5217TIP3   OH239845   1.398   5.189  16.771  0.0741  0.3609  0.2323
 5217TIP3    H139846   1.404   5.098  16.802  1.3241  0.6282  0.8401
 5217TIP3    H239847   1.362   5.182  16.682  1.7340 -0.8816 -0.3940
 5218TIP3   OH239848   6.607   0.539  17.053  1.1406 -0.2310 -0.0722
 5218TIP3    H139849   6.692   0.575  17.031  0.9153  1.0060  0.9421
 5218TIP3    H239850   6.563   0.609  17.101  0.0149 -1.2724  0.4766
 5219TIP3   OH239851   2.472   2.539  16.089  0.1954 -0.4381  0.2293
 5219TIP3    H139852   2.487   2.483  16.165 -1.2472  0.5185  1.2675
 5219TIP3    H239853   2.461   2.478  16.016 -0.4689 -1.4739  1.1633
 5220TIP3   OH239854   3.449   1.645  16.768  0.2221  0.1812  0.1970
 5220TIP3    H139855   3.506   1.599  16.830  0.5704  0.4221  0.0603
 5220TIP3    H239856   3.510   1.696  16.713 -0.1711  0.9343  0.4544
 5221TIP3   OH239857   4.928   3.228  17.687 -0.4523  0.4591  0.2417
 5221TIP3    H139858   4.865   3.164  17.721 -0.3480  0.3073  0.1510
 5221TIP3    H239859   4.944   3.200  17.597  0.0145  0.2890  0.3743
 5222TIP3   OH239860   5.759   1.456  16.347 -0.1358  0.0601  0.6982
 5222TIP3    H139861   5.663   1.457  16.345 -0.1729  1.5886  1.8696
 5222TIP3    H239862   5.784   1.434  16.257 -1.5877 -0.1978  0.3334
 5223TIP3   OH239863   6.762   1.408  18.521  0.6997 -0.2270  0.1455
 5223TIP3    H139864   6.820   1.484  18.532  2.1778 -1.2628 -0.1384
 5223TIP3    H239865   6.765   1.363  18.605 -1.0857  0.5938  0.6946
 5224TIP3   OH239866   2.318   4.953  16.504 -0.1483  0.7874 -0.0254
 5224TIP3    H139867   2.366   4.951  16.421 -1.1664  0.2613 -0.6222
 5224TIP3    H239868   2.264   5.032  16.498 -0.9329  0.2464 -0.2975
 5225TIP3   OH239869   4.195   6.895  19.074 -0.2727 -0.0775  0.5916
 5225TIP3    H139870   4.199   6.987  19.048  0.7563 -0.3042 -0.1035
 5225TIP3    H239871   4.229   6.893  19.164 -1.1415  0.3294  0.9386
 5226TIP3   OH239872   0.511   6.224  16.855 -0.1827  0.4184  0.2457
 5226TIP3    H139873   0.504   6.219  16.950 -3.4168 -2.1579  0.0638
 5226TIP3    H239874   0.596   6.186  16.835  0.0646 -0.0670  2.0552
 5227TIP3   OH239875   3.606   4.132  17.709 -0.3574 -0.2594 -0.0058
 5227TIP3    H139876   3.518   4.145  17.673 -0.3603  1.3482  0.4726
 5227TIP3    H239877   3.643   4.061  17.657 -2.0330 -1.1773 -0.0105
 5228TIP3   OH239878   0.510   2.331  18.545 -0.8344 -0.7045 -0.3052
 5228TIP3    H139879   0.494   2.343  18.452  2.6975  0.6692 -0.9126
 5228TIP3    H239880   0.483   2.413  18.586 -2.0828 -1.1889 -0.1026
 5229TIP3   OH239881   1.164   5.610  16.565 -0.2251 -0.1373  0.3688
 5229TIP3    H139882   1.197   5.606  16.655  1.2763 -0.6675 -0.1838
 5229TIP3    H239883   1.242   5.623  16.511 -1.2291  1.4900 -0.7799
 5230TIP3   OH239884   2.476   2.344  16.299  0.2102 -0.0065 -0.0165
 5230TIP3    H139885   2.467   2.265  16.351 -0.4632 -1.6591 -2.4520
 5230TIP3    H239886   2.388   2.361  16.266  0.8649 -0.0439 -1.9151
 5231TIP3   OH239887   0.286   6.733  18.585  0.7349  0.1328  0.1854
 5231TIP3    H139888   0.254   6.780  18.508  2.6674 -0.6224 -1.1456
 5231TIP3    H239889   0.208   6.722  18.640 -0.5638  1.2762 -1.3379
 5232TIP3   OH239890   7.313   2.191  16.030  0.1671 -0.2929  0.4611
 5232TIP3    H139891   7.244   2.128  16.009 -0.5029  0.7139 -0.5077
 5232TIP3    H239892   7.284   2.272  15.988  2.2842 -0.0066 -0.5589
 5233TIP3   OH239893   6.681   1.797  16.213  0.4273  0.4046 -0.1080
 5233TIP3    H139894   6.714   1.880  16.246  0.2117  0.5971 -0.3669
 5233TIP3    H239895   6.587   1.799  16.232  0.0700  1.0183 -1.7017
 5234TIP3   OH239896   5.496   3.411  17.982 -0.0217  0.5939  0.1185
 5234TIP3    H139897   5.583   3.450  17.989  0.6920 -1.0977  1.0745
 5234TIP3    H239898   5.468   3.395  18.072 -1.2669  0.9445 -0.1742
 5235TIP3   OH239899   4.550   3.633  18.136  0.2354 -0.1976 -0.1291
 5235TIP3    H139900   4.505   3.717  18.141  0.2028 -0.2266  0.0757
 5235TIP3    H239901   4.480   3.568  18.129  0.1289 -0.4153  2.3027
 5236TIP3   OH239902   4.710   0.910  16.325 -0.3077  0.1288 -0.0508
 5236TIP3    H139903   4.787   0.915  16.269 -1.4624  2.0574 -1.6023
 5236TIP3    H239904   4.646   0.967  16.283 -2.8910 -1.9613  0.7390
 5237TIP3   OH239905   3.830   3.638  17.739  0.0194 -0.7862  0.0455
 5237TIP3    H139906   3.839   3.577  17.665 -2.0562 -0.0594 -0.8785
 5237TIP3    H239907   3.797   3.584  17.811  0.3053 -1.1591 -0.0985
 5238TIP3   OH239908   2.665   6.152  18.344  0.6741 -0.1763  0.0460
 5238TIP3    H139909   2.672   6.189  18.432  1.0500  0.9615 -0.4432
 5238TIP3    H239910   2.574   6.166  18.318  1.0292  1.3389 -0.5052
 5239TIP3   OH239911   7.089   2.369  18.329  0.3012  0.1105  0.1058
 5239TIP3    H139912   7.038   2.443  18.296  0.7590 -0.5895 -2.3281
 5239TIP3    H239913   7.023   2.301  18.347  0.1268  0.1037 -0.5273
 5240TIP3   OH239914   0.723   1.709  16.907  0.3386 -0.0291  0.2456
 5240TIP3    H139915   0.636   1.679  16.880  0.1074  0.5669  0.2998
 5240TIP3    H239916   0.766   1.734  16.825 -0.1663  1.2678  0.3442
 5241TIP3   OH239917   1.982   0.089  18.676 -0.4997  0.1286 -0.5631
 5241TIP3    H139918   2.048   0.148  18.715  0.2293 -0.9002 -0.2059
 5241TIP3    H239919   1.959   0.131  18.593  1.2796  0.0708 -1.1221
 5242TIP3   OH239920   2.782   1.550  18.691  0.1871  0.1625  0.0900
 5242TIP3    H139921   2.703   1.541  18.637 -0.0284 -2.8414  0.7224
 5242TIP3    H239922   2.814   1.461  18.701  1.8399  0.9415  2.5516
 5243TIP3   OH239923   3.631   7.434  17.374  0.1038  0.1656  0.4019
 5243TIP3    H139924   3.711   7.393  17.405 -1.1828 -2.3032  0.6969
 5243TIP3    H239925   3.568   7.362  17.367 -2.2982  2.0927  0.8320
 5244TIP3   OH239926   1.987   5.196  18.255  0.2213  0.8771 -0.0013
 5244TIP3    H139927   2.035   5.196  18.337 -0.4918  1.4534  0.4239
 5244TIP3    H239928   2.019   5.118  18.209 -1.2647 -0.9765  1.9239
 5245TIP3   OH239929   3.535   2.406  17.149 -0.1703  0.4012 -0.1021
 5245TIP3    H139930   3.535   2.374  17.059 -1.9537  2.2583 -0.8297
 5245TIP3    H239931   3.473   2.349  17.195  0.7273 -0.5350 -0.0059
 5246TIP3   OH239932   7.200   1.683  16.562 -0.1369  0.2950 -0.1051
 5246TIP3    H139933   7.120   1.699  16.611  0.1462 -0.1073  0.5035
 5246TIP3    H239934   7.227   1.769  16.531  0.0372  0.6695  1.0215
 5247TIP3   OH239935   3.749   3.900  17.670  0.6554 -0.0666 -0.1705
 5247TIP3    H139936   3.781   3.814  17.696 -0.0975  0.1316  1.5533
 5247TIP3    H239937   3.777   3.909  17.579 -1.4106 -3.2236 -1.3060
 5248TIP3   OH239938   1.879   1.190  17.969  0.1142  0.4628  0.3930
 5248TIP3    H139939   1.819   1.157  17.902 -1.1043 -0.4753  1.8945
 5248TIP3    H239940   1.946   1.122  17.978  1.8352  1.7452 -1.6714
 5249TIP3   OH239941   5.421   5.398  18.161 -0.0424 -0.1193  0.0205
 5249TIP3    H139942   5.349   5.365  18.106  0.1826  1.2495 -1.1431
 5249TIP3    H239943   5.378   5.452  18.227 -0.1624 -0.2398  0.0433
 5250TIP3   OH239944   0.754   2.435  17.319  0.7934  0.2062  0.3644
 5250TIP3    H139945   0.741   2.499  17.249  1.6846 -0.2756 -0.2656
 5250TIP3    H239946   0.677   2.444  17.375  0.7783  1.6530  0.1510
 5251TIP3   OH239947   2.075   4.030  17.879  0.4078  0.0591 -0.2310
 5251TIP3    H139948   2.156   4.080  17.870  0.3702 -0.1296 -1.8857
 5251TIP3    H239949   2.007   4.088  17.846 -0.0084 -0.1372  0.2714
 5252TIP3   OH239950   5.112   5.324  19.053  0.1600 -0.2152 -0.1907
 5252TIP3    H139951   5.133   5.388  19.121 -0.3338 -0.3639  0.1065
 5252TIP3    H239952   5.104   5.376  18.973 -1.7682  0.3609  0.3051
 5253TIP3   OH239953   0.934   3.775  16.785  0.2156  0.3345 -0.4990
 5253TIP3    H139954   0.871   3.706  16.763  0.8088  0.3263 -2.3620
 5253TIP3    H239955   0.880   3.850  16.810 -0.4812 -0.2182 -0.3252
 5254TIP3   OH239956   0.733   3.070  17.957 -0.0518 -0.0037 -0.1348
 5254TIP3    H139957   0.702   2.991  18.000 -0.9708  0.2391 -0.3404
 5254TIP3    H239958   0.682   3.141  17.995  2.0865  0.7823  1.4528
 5255TIP3   OH239959   5.565   2.303  17.941  0.2412  0.5405 -0.1319
 5255TIP3    H139960   5.606   2.370  17.887 -0.7629  1.2729 -0.0197
 5255TIP3    H239961   5.471   2.323  17.936  0.0324 -0.1198  0.9049
 5256TIP3   OH239962   5.169   1.654  17.096 -0.4538 -0.5154  0.0728
 5256TIP3    H139963   5.152   1.560  17.105  0.6918 -0.9998 -2.2779
 5256TIP3    H239964   5.255   1.667  17.136  0.0541 -0.7626 -0.9217
 5257TIP3   OH239965   0.032   2.642  17.613  0.1315 -0.8298 -0.2482
 5257TIP3    H139966   0.097   2.694  17.660 -0.6456 -0.7228  0.7567
 5257TIP3    H239967   0.075   2.617  17.531  1.1782 -0.1870  0.0870
 5258TIP3   OH239968   5.076   6.811  17.139 -0.3555  0.3351  0.2742
 5258TIP3    H139969   5.009   6.878  17.148 -1.0861 -0.4512  0.8332
 5258TIP3    H239970   5.122   6.833  17.058 -1.0685  1.0686  0.0628
 5259TIP3   OH239971   0.148   5.800  18.514 -0.0284  0.2179 -0.2147
 5259TIP3    H139972   0.188   5.761  18.436  0.1148  1.3800 -0.7428
 5259TIP3    H239973   0.065   5.835  18.483 -0.3384 -0.0209  0.3380
 5260TIP3   OH239974   4.933   7.437  17.539 -0.3285 -0.7745  0.4773
 5260TIP3    H139975   4.875   7.461  17.611 -0.4113  1.2687 -0.1950
 5260TIP3    H239976   5.018   7.472  17.565  0.1053 -1.7983  0.4658
 5261TIP3   OH239977   1.148   4.171  17.110  0.2336  0.3008  0.1518
 5261TIP3    H139978   1.178   4.216  17.030  0.8424  1.7479  1.1515
 5261TIP3    H239979   1.095   4.236  17.156  1.1242  0.0181  1.6412
 5262TIP3   OH239980   6.379   7.401  17.144 -0.5530  0.5597 -0.3115
 5262TIP3    H139981   6.366   7.443  17.059 -2.7305 -0.4275 -0.5296
 5262TIP3    H239982   6.374   7.308  17.126  0.4794  0.2871  0.7096
 5263TIP3   OH239983   4.562   6.717  18.008  0.0164 -0.3348  0.2053
 5263TIP3    H139984   4.604   6.734  17.923 -0.3953 -1.4060 -0.2268
 5263TIP3    H239985   4.476   6.758  18.000 -1.3015 -3.0729 -1.1468
 5264TIP3   OH239986   3.975   4.131  16.629 -0.0810 -0.1595 -0.1680
 5264TIP3    H139987   4.020   4.215  16.633  0.1800 -0.1596 -2.1789
 5264TIP3    H239988   3.973   4.108  16.536 -2.8002 -0.9280 -0.0325
 5265TIP3   OH239989   2.287   7.552  18.370 -0.8028  0.3715 -0.1128
 5265TIP3    H139990   2.374   7.525  18.341 -0.1124  4.6257 -2.7972
 5265TIP3    H239991   2.297   7.566  18.465  1.2502  0.1632 -0.2545
 5266TIP3   OH239992   7.461   7.639  17.583  0.2237  0.4839 -0.1118
 5266TIP3    H139993   7.449   7.732  17.566  1.3338  0.5551 -0.5964
 5266TIP3    H239994   7.555   7.625  17.576 -0.0096 -0.8405 -0.9064
 5267TIP3   OH239995   1.919   2.150  17.469 -0.4693  0.2956 -0.0188
 5267TIP3    H139996   1.899   2.188  17.554  0.7238 -0.5411  0.6807
 5267TIP3    H239997   2.009   2.179  17.451  0.7180 -2.5153  0.8199
 5268TIP3   OH239998   2.221   2.601  16.459  0.6003 -0.4282 -0.1607
 5268TIP3    H139999   2.227   2.647  16.376  0.2749  1.9471  1.0468
 5268TIP3    H240000   2.139   2.552  16.453  0.0766  0.4951 -0.8935
 5269TIP3   OH240001   0.684   4.086  18.669  0.7895  0.1055 -0.2778
 5269TIP3    H140002   0.602   4.037  18.664  1.2035 -1.3586  3.7733
 5269TIP3    H240003   0.657   4.177  18.677 -0.4782 -0.3488  0.9650
 5270TIP3   OH240004   3.316   0.342  17.677  0.3115  0.2191 -0.0758
 5270TIP3    H140005   3.374   0.416  17.693  0.1966  0.0189  1.4920
 5270TIP3    H240006   3.375   0.268  17.663  0.4389  0.3140 -0.0469
 5271TIP3   OH240007   4.354   2.887  17.574 -0.4604 -0.1655  0.3110
 5271TIP3    H140008   4.305   2.936  17.640  2.1144 -0.2451  2.4140
 5271TIP3    H240009   4.360   2.798  17.608 -0.4479 -0.6358 -0.8568
 5272TIP3   OH240010   2.394   7.677  18.952 -0.3336  0.4376 -0.5579
 5272TIP3    H140011   2.425   7.737  19.020  2.5758  0.4416 -1.7676
 5272TIP3    H240012   2.301   7.665  18.972 -0.1641  2.3856  1.9112
 5273TIP3   OH240013   5.705   0.290  18.057  0.2949  0.2306  0.0025
 5273TIP3    H140014   5.685   0.237  17.980 -2.2108  1.5260 -0.3196
 5273TIP3    H240015   5.799   0.306  18.051  0.6659 -1.9940 -1.2375
 5274TIP3   OH240016   3.243   1.499  16.817 -0.1403 -0.4189 -0.0814
 5274TIP3    H140017   3.159   1.528  16.781 -0.8870 -1.9420  0.3602
 5274TIP3    H240018   3.305   1.565  16.788 -1.3121  0.2042 -1.2852
 5275TIP3   OH240019   0.164   0.679  17.639  0.0643  0.2633 -0.2764
 5275TIP3    H140020   0.171   0.633  17.555 -0.9850 -0.9853  0.2818
 5275TIP3    H240021   0.132   0.766  17.616  0.0931  0.0454 -1.1950
 5276TIP3   OH240022   7.028   2.669  17.311 -0.2753  0.3409 -0.2273
 5276TIP3    H140023   7.056   2.665  17.220  0.4402  0.2111 -0.0078
 5276TIP3    H240024   7.093   2.617  17.358  0.1711  1.5657  0.5454
 5277TIP3   OH240025   6.585   6.510  18.802 -0.1848  0.3054  0.1940
 5277TIP3    H140026   6.617   6.573  18.737 -0.6280 -0.4231 -0.7494
 5277TIP3    H240027   6.540   6.444  18.751  1.5699 -1.6261  0.9826
 5278TIP3   OH240028   4.269   6.648  18.133 -0.0935  0.5552  0.5828
 5278TIP3    H140029   4.218   6.673  18.210  2.0309  1.0586  1.9310
 5278TIP3    H240030   4.256   6.554  18.125 -0.2103  0.4598  1.6958
 5279TIP3   OH240031   4.560   3.891  17.308  0.4969 -0.0877 -0.1086
 5279TIP3    H140032   4.589   3.981  17.291  1.5113 -0.5509 -0.8972
 5279TIP3    H240033   4.616   3.861  17.380  0.8138 -0.4057 -0.4852
 5280TIP3   OH240034   5.408   6.674  18.195  0.0504  0.4174 -0.3547
 5280TIP3    H140035   5.380   6.758  18.158  0.4557  0.4441 -0.6045
 5280TIP3    H240036   5.490   6.653  18.149  0.3559  0.2609  0.2498
 5281TIP3   OH240037   3.839   3.048  18.130 -0.1638 -0.1477  0.3533
 5281TIP3    H140038   3.773   3.069  18.063 -0.2935  2.1744  1.1148
 5281TIP3    H240039   3.788   3.020  18.206 -0.1789 -0.0273  0.3877
 5282TIP3   OH240040   4.338   3.079  17.846  0.0559  0.2179  0.2065
 5282TIP3    H140041   4.398   3.011  17.878 -0.1385 -0.6785 -1.2095
 5282TIP3    H240042   4.265   3.078  17.908 -0.7321 -2.0744 -0.6152
 5283TIP3   OH240043   7.307   4.324  16.286  0.0151  0.6899  0.2927
 5283TIP3    H140044   7.214   4.302  16.280  0.5869 -1.9074 -0.9069
 5283TIP3    H240045   7.322   4.385  16.214 -0.6791  0.6936  0.1483
 5284TIP3   OH240046   2.377   3.437  18.344 -0.5095  0.4658 -0.3823
 5284TIP3    H140047   2.349   3.378  18.273 -2.3916  1.4721 -0.5502
 5284TIP3    H240048   2.295   3.467  18.382  0.4643  0.4518  1.8335
 5285TIP3   OH240049   3.362   0.261  18.654  0.3009 -0.0339 -0.0689
 5285TIP3    H140050   3.317   0.334  18.697 -0.3022  0.6602 -1.7978
 5285TIP3    H240051   3.361   0.191  18.719  0.6292  1.3761  1.5352
 5286TIP3   OH240052   0.637   1.451  16.115 -0.4867 -0.0176  0.4089
 5286TIP3    H140053   0.580   1.529  16.123 -0.1118  0.3644 -0.5324
 5286TIP3    H240054   0.584   1.388  16.068  0.1915  0.7104 -1.4172
 5287TIP3   OH240055   6.384   3.869  17.667 -0.0352 -0.0373  0.0407
 5287TIP3    H140056   6.406   3.956  17.699  1.9476 -0.5153  0.0805
 5287TIP3    H240057   6.300   3.880  17.623 -0.2983  1.6791  0.9096
 5288TIP3   OH240058   2.925   3.899  16.270 -0.7513 -0.2741 -0.2633
 5288TIP3    H140059   2.924   3.820  16.216  0.3414 -2.4305  2.6097
 5288TIP3    H240060   3.008   3.942  16.250 -0.3612 -1.0444 -0.3220
 5289TIP3   OH240061   5.069   0.952  18.373 -0.3323  0.4203 -0.2984
 5289TIP3    H140062   5.024   1.020  18.423 -1.2929 -0.0135 -0.5475
 5289TIP3    H240063   5.000   0.910  18.321 -0.4672 -2.8030  2.1078
 5290TIP3   OH240064   7.326   7.215  15.858  0.1588 -0.2379  0.4789
 5290TIP3    H140065   7.379   7.189  15.782 -0.3270  0.4984 -0.1270
 5290TIP3    H240066   7.383   7.275  15.906  0.2276 -0.1918  0.3430
 5291TIP3   OH240067   4.659   1.844  18.665 -0.1327 -0.3552  0.0272
 5291TIP3    H140068   4.666   1.885  18.752  4.1471  0.2561 -0.3923
 5291TIP3    H240069   4.641   1.916  18.606 -1.6906 -0.5748  0.1892
 5292TIP3   OH240070   6.087   6.631  17.844  0.0434 -0.0169  0.6317
 5292TIP3    H140071   6.091   6.714  17.891  0.5478 -0.8817  2.1933
 5292TIP3    H240072   6.082   6.565  17.913 -1.0421 -1.2629 -0.5794
 5293TIP3   OH240073   2.768   4.155  18.365  1.2264 -0.4419 -0.0863
 5293TIP3    H140074   2.775   4.195  18.452  0.4314  0.0030 -0.2220
 5293TIP3    H240075   2.829   4.205  18.311 -0.4594  1.2872 -0.4887
 5294TIP3   OH240076   4.441   4.795  16.994 -0.7127 -0.6904  0.4637
 5294TIP3    H140077   4.445   4.741  17.074 -2.3613 -0.5169  0.7092
 5294TIP3    H240078   4.501   4.867  17.011 -1.3287 -0.4445  1.7494
 5295TIP3   OH240079   4.726   7.181  18.588 -0.7543 -0.2231 -0.2992
 5295TIP3    H140080   4.659   7.214  18.528 -0.3694 -2.8876 -2.3755
 5295TIP3    H240081   4.697   7.092  18.610 -0.4199  0.3514  2.8983
 5296TIP3   OH240082   4.446   0.249  16.399  0.3170  0.2621  0.6255
 5296TIP3    H140083   4.432   0.218  16.489 -0.1248 -0.8960  0.1740
 5296TIP3    H240084   4.540   0.241  16.385  0.0323 -2.7136 -0.0849
 5297TIP3   OH240085   4.304   4.904  19.098 -0.4875  0.2594 -0.1225
 5297TIP3    H140086   4.376   4.860  19.055 -1.2568 -0.5282 -0.6327
 5297TIP3    H240087   4.244   4.927  19.027 -0.5729  1.2376  0.2512
 5298TIP3   OH240088   0.956   1.630  18.490  0.1904  0.1802  0.9980
 5298TIP3    H140089   1.028   1.628  18.426 -0.8308  0.5752 -0.2048
 5298TIP3    H240090   0.931   1.722  18.493 -0.4016  0.0098  1.2492
 5299TIP3   OH240091   7.671   6.057  19.078  0.1233 -0.2526  0.0460
 5299TIP3    H140092   7.669   6.005  18.997 -0.4581  0.1628 -0.2155
 5299TIP3    H240093   7.607   6.127  19.063  2.9719  2.3956 -0.8615
 5300TIP3   OH240094   6.190   5.921  18.690 -0.1103  0.2496  0.5307
 5300TIP3    H140095   6.102   5.959  18.701 -0.3268 -0.2397  0.5261
 5300TIP3    H240096   6.207   5.876  18.773 -0.7236 -1.3749 -0.1711
 5301TIP3   OH240097   6.930   7.064  15.914  0.4416 -0.3506  0.0962
 5301TIP3    H140098   6.906   6.972  15.899  3.9388 -1.5712  0.8337
 5301TIP3    H240099   6.875   7.091  15.987  0.4439 -2.4742  0.9674
 5302TIP3   OH240100   6.913   0.362  17.382 -0.9535  0.3569 -0.0253
 5302TIP3    H140101   6.981   0.364  17.314 -1.6053  0.4563 -0.6895
 5302TIP3    H240102   6.853   0.293  17.354 -2.4576  1.8760 -0.8066
 5303TIP3   OH240103   1.960   6.287  17.297 -0.3010 -0.4602  0.0375
 5303TIP3    H140104   1.933   6.253  17.211 -0.6668 -1.1506  0.4179
 5303TIP3    H240105   1.894   6.255  17.358  0.7484 -1.2462  0.8152
 5304TIP3   OH240106   1.021   2.652  16.790  0.1719  0.2906  0.1148
 5304TIP3    H140107   0.947   2.596  16.813  2.5206 -2.5155  1.4926
 5304TIP3    H240108   1.036   2.634  16.697 -0.4070  0.3185  0.0110
 5305TIP3   OH240109   1.505   3.899  18.250 -0.0938  0.4781  0.0078
 5305TIP3    H140110   1.591   3.876  18.284 -0.1915 -0.8067 -0.5580
 5305TIP3    H240111   1.487   3.833  18.183 -2.1473 -0.1540  1.1131
 5306TIP3   OH240112   1.752   4.104  16.820  0.1984 -0.1111 -0.1692
 5306TIP3    H140113   1.737   4.160  16.897  2.8688 -0.9647  1.0842
 5306TIP3    H240114   1.770   4.166  16.749 -0.0535  0.6679  0.4256
 5307TIP3   OH240115   3.804   6.309  17.734 -0.3126  0.0407  0.2874
 5307TIP3    H140116   3.775   6.219  17.725 -1.7721  0.5124  0.0987
 5307TIP3    H240117   3.832   6.317  17.825 -2.4557  0.0189  0.9835
 5308TIP3   OH240118   0.963   2.707  17.476  0.2310 -0.2014  0.1057
 5308TIP3    H140119   0.932   2.643  17.540 -0.8577  0.2476  0.0584
 5308TIP3    H240120   0.964   2.790  17.524 -1.0061  0.2194 -0.5321
 5309TIP3   OH240121   5.658   2.259  18.674  0.1085  0.0016 -0.0259
 5309TIP3    H140122   5.620   2.185  18.626  2.7716 -1.4784 -0.0166
 5309TIP3    H240123   5.752   2.253  18.658  1.0149  0.3143  4.1664
 5310TIP3   OH240124   4.657   6.563  18.393 -0.0517 -0.3520  0.7866
 5310TIP3    H140125   4.620   6.609  18.317 -1.1226 -1.7957  0.3991
 5310TIP3    H240126   4.741   6.530  18.362  0.9818  1.6977  1.2213
 5311TIP3   OH240127   5.916   2.191  17.925 -0.0348  0.2900 -0.0580
 5311TIP3    H140128   6.002   2.220  17.955 -0.3750  1.2579  0.0171
 5311TIP3    H240129   5.899   2.245  17.848  0.6283 -1.8241 -1.7927
 5312TIP3   OH240130   1.452   2.721  17.362 -0.2548  0.2468  0.0890
 5312TIP3    H140131   1.371   2.673  17.379 -0.4595  0.6495  0.2579
 5312TIP3    H240132   1.425   2.798  17.313  0.2337 -0.4611 -1.3253
 5313TIP3   OH240133   7.564   5.705  16.310 -0.0888  0.4069  0.8776
 5313TIP3    H140134   7.614   5.625  16.320  0.6919  0.6785 -0.4776
 5313TIP3    H240135   7.630   5.774  16.303 -0.6405  0.8338 -0.4981
 5314TIP3   OH240136   7.540   7.102  17.026 -0.1074  0.2980  0.2058
 5314TIP3    H140137   7.578   7.033  16.971 -0.7889 -0.9854  1.2945
 5314TIP3    H240138   7.481   7.055  17.086 -0.8168  1.8668  0.7792
 5315TIP3   OH240139   4.978   7.606  18.128  0.2050 -0.3376 -0.0298
 5315TIP3    H140140   4.885   7.625  18.121  0.2886  0.2810  0.4393
 5315TIP3    H240141   4.985   7.542  18.198  0.1729 -0.0465  0.2405
 5316TIP3   OH240142   0.822   1.766  17.989 -0.3194 -0.6819 -0.0378
 5316TIP3    H140143   0.815   1.670  17.982  1.0055 -0.7811 -0.3072
 5316TIP3    H240144   0.896   1.788  17.933 -0.2921  0.4607  0.4263
 5317TIP3   OH240145   0.256   6.668  17.254 -0.2756  0.0123 -0.2289
 5317TIP3    H140146   0.224   6.632  17.337  1.0766  0.2698  0.4293
 5317TIP3    H240147   0.335   6.717  17.278 -0.0314  0.3477 -1.6314
 5318TIP3   OH240148   6.947   5.443  16.865 -0.5742 -0.1574 -0.1458
 5318TIP3    H140149   6.943   5.377  16.797 -0.7112  0.5094 -0.8008
 5318TIP3    H240150   7.039   5.445  16.892 -0.5180 -0.4108 -0.3159
 5319TIP3   OH240151   1.967   6.893  17.687 -0.1678 -0.0987  0.5065
 5319TIP3    H140152   1.972   6.911  17.593  0.9194 -2.1699  0.1127
 5319TIP3    H240153   2.058   6.896  17.717 -0.5164  0.7056  1.5743
 5320TIP3   OH240154   3.667   5.593  16.402  0.0931  0.1135  0.1933
 5320TIP3    H140155   3.595   5.584  16.464 -2.8371  0.7273 -2.8394
 5320TIP3    H240156   3.677   5.506  16.364  1.4397 -0.1120  1.0083
 5321TIP3   OH240157   5.637   0.902  16.460  0.1830  0.2991  0.3945
 5321TIP3    H140158   5.593   0.909  16.545 -2.2485 -0.4775 -0.7130
 5321TIP3    H240159   5.577   0.943  16.398 -1.0273 -4.1517 -1.8181
 5322TIP3   OH240160   5.363   4.726  17.565  0.2060  0.8761  0.4628
 5322TIP3    H140161   5.295   4.662  17.545 -1.1359  1.7000  2.1101
 5322TIP3    H240162   5.367   4.727  17.661  0.9878  2.4283  0.4360
 5323TIP3   OH240163   6.689   6.816  18.202  0.1079  0.0326  0.1862
 5323TIP3    H140164   6.758   6.869  18.240 -0.3701  0.8151 -0.0219
 5323TIP3    H240165   6.721   6.726  18.209  1.9372  0.4922 -1.5077
 5324TIP3   OH240166   7.598   1.390  17.107 -0.4612  0.8081  0.9347
 5324TIP3    H140167   7.543   1.324  17.067 -0.5533  2.6180 -2.2461
 5324TIP3    H240168   7.544   1.468  17.111  0.2674  1.2851  2.7353
 5325TIP3   OH240169   1.896   0.265  16.098 -0.0274 -0.0899 -0.0970
 5325TIP3    H140170   1.884   0.344  16.151  1.4334  0.1862 -0.1401
 5325TIP3    H240171   1.990   0.261  16.083 -0.3050 -0.7697 -1.7615
 5326TIP3   OH240172   3.284   0.728  17.558 -0.9352 -0.5251 -0.3606
 5326TIP3    H140173   3.245   0.772  17.482  0.0836 -0.4384 -0.8493
 5326TIP3    H240174   3.243   0.641  17.558 -1.6301 -0.2111 -0.4488
 5327TIP3   OH240175   4.519   6.479  17.310 -0.5433 -0.1648 -0.0926
 5327TIP3    H140176   4.545   6.563  17.271 -1.8055  0.5583  0.5407
 5327TIP3    H240177   4.425   6.490  17.328 -0.4598 -1.2673  1.1273
 5328TIP3   OH240178   4.745   1.414  15.929 -0.1036  0.5313 -0.5180
 5328TIP3    H140179   4.763   1.456  16.013 -0.8036  0.9553 -0.5677
 5328TIP3    H240180   4.828   1.416  15.883 -0.2918  2.7137 -0.8729
 5329TIP3   OH240181   0.350   4.021  17.455 -0.0963  0.5029 -0.3325
 5329TIP3    H140182   0.394   3.977  17.528 -1.3700  3.2718  2.3250
 5329TIP3    H240183   0.268   3.972  17.443  0.8064 -0.8923 -1.0355
 5330TIP3   OH240184   5.818   6.280  16.842 -0.3382  0.2005  0.2046
 5330TIP3    H140185   5.856   6.194  16.863  0.1136  0.2509 -0.3811
 5330TIP3    H240186   5.888   6.326  16.796 -0.9662  0.4716 -0.4910
 5331TIP3   OH240187   1.048   6.121  18.042  0.1115 -1.3018 -0.2219
 5331TIP3    H140188   1.019   6.203  18.082  1.1448 -2.0303  2.1634
 5331TIP3    H240189   1.137   6.139  18.012  0.2757 -1.4942  0.1468
 5332TIP3   OH240190   0.361   3.231  16.321  0.0989 -0.7308  0.0878
 5332TIP3    H140191   0.319   3.305  16.278  1.9459 -0.1321 -0.7815
 5332TIP3    H240192   0.288   3.177  16.353 -1.2850  1.2195  0.3721
 5333TIP3   OH240193   6.702   1.563  17.987 -0.1501 -0.0596 -0.2143
 5333TIP3    H140194   6.642   1.554  17.913 -0.2705 -2.0022  0.0640
 5333TIP3    H240195   6.788   1.574  17.946 -0.1041 -1.8599 -0.7241
 5334TIP3   OH240196   0.683   6.765  16.055  0.3400 -0.6098  0.5151
 5334TIP3    H140197   0.672   6.696  15.990  1.1739 -1.0078  0.7884
 5334TIP3    H240198   0.687   6.718  16.139  3.0179 -0.4464  0.5436
 5335TIP3   OH240199   7.399   2.150  18.700 -0.2150 -0.1204  0.2048
 5335TIP3    H140200   7.460   2.120  18.768 -0.0160  0.5309  0.3112
 5335TIP3    H240201   7.444   2.223  18.657 -0.6656 -0.0298 -0.1192
 5336TIP3   OH240202   0.116   7.673  16.911  0.2044  0.2194 -0.5846
 5336TIP3    H140203   0.061   7.600  16.881  1.4879 -1.2933  0.6124
 5336TIP3    H240204   0.139   7.651  17.001  4.2615 -0.2097 -1.5317
 5337TIP3   OH240205   4.683   4.418  18.982 -0.4079 -0.0121  0.2857
 5337TIP3    H140206   4.730   4.478  18.925 -1.3744  0.6026  0.1148
 5337TIP3    H240207   4.704   4.447  19.071  0.6480 -0.6252  0.2616
 5338TIP3   OH240208   5.173   6.811  16.572 -0.3752  0.4666  0.4552
 5338TIP3    H140209   5.258   6.768  16.566 -0.4592  0.3328  0.2199
 5338TIP3    H240210   5.109   6.740  16.574 -0.5363  0.5785 -0.3208
 5339TIP3   OH240211   3.139   5.041  17.408 -0.8208 -0.6512  0.3209
 5339TIP3    H140212   3.214   5.073  17.358 -0.5606 -2.2310 -0.3698
 5339TIP3    H240213   3.168   5.044  17.499 -0.6926  0.6821  0.2630
 5340TIP3   OH240214   0.260   0.689  17.909  0.2559 -0.0388  0.1979
 5340TIP3    H140215   0.180   0.712  17.862  1.3202  1.4691 -0.9553
 5340TIP3    H240216   0.232   0.621  17.971 -1.7431 -0.1057 -0.6915
 5341TIP3   OH240217   7.318   7.598  16.187 -0.0663  0.1615 -0.1387
 5341TIP3    H140218   7.254   7.668  16.172 -0.1229 -0.0156 -0.7274
 5341TIP3    H240219   7.397   7.644  16.215 -0.6956  0.3330  1.4707
 5342TIP3   OH240220   4.954   0.523  18.400 -0.0717 -0.0293 -0.0890
 5342TIP3    H140221   5.019   0.558  18.460 -0.2858 -1.2863  0.9156
 5342TIP3    H240222   4.883   0.493  18.456 -0.7201 -0.3207 -1.0406
 5343TIP3   OH240223   1.854   0.918  17.223  0.2076 -0.3196  0.1331
 5343TIP3    H140224   1.948   0.904  17.212  0.5261  1.5333  0.1126
 5343TIP3    H240225   1.814   0.872  17.149  0.9658 -2.1875  0.8272
 5344TIP3   OH240226   4.754   5.108  17.039  0.0410 -0.6215  0.5037
 5344TIP3    H140227   4.704   5.052  16.980 -0.7571  0.3281  0.2536
 5344TIP3    H240228   4.845   5.092  17.014 -0.2169 -1.1196 -0.1754
 5345TIP3   OH240229   3.251   4.549  17.626  0.0872 -0.1719 -1.0926
 5345TIP3    H140230   3.186   4.523  17.691 -0.1640  0.1086 -1.2324
 5345TIP3    H240231   3.200   4.581  17.552  0.3411 -1.6119 -1.9193
 5346TIP3   OH240232   1.125   3.661  18.086 -0.1540 -0.1342  0.0173
 5346TIP3    H140233   1.117   3.756  18.077 -0.1716 -0.2543 -1.4587
 5346TIP3    H240234   1.219   3.644  18.089 -0.1511 -0.0781  0.2874
 5347TIP3   OH240235   0.440   3.234  18.356  0.0104 -0.1502 -0.1679
 5347TIP3    H140236   0.474   3.307  18.304 -1.6502 -1.1526 -2.8346
 5347TIP3    H240237   0.346   3.232  18.337 -0.3676 -1.6895  1.5512
 5348TIP3   OH240238   6.390   4.545  17.274  0.3502  0.2390 -0.3065
 5348TIP3    H140239   6.295   4.544  17.258  0.2078 -1.0813  0.5054
 5348TIP3    H240240   6.428   4.552  17.186 -0.4772  1.9767 -0.5819
 5349TIP3   OH240241   5.058   3.873  17.368  0.1865  0.4581 -0.1842
 5349TIP3    H140242   5.145   3.838  17.390  0.4270  0.7016 -0.7477
 5349TIP3    H240243   5.033   3.923  17.446  0.6654  0.6104 -0.1223
 5350TIP3   OH240244   1.474   3.754  17.230 -0.3696  0.2689  0.1792
 5350TIP3    H140245   1.469   3.666  17.267 -1.9095  0.1476 -0.2119
 5350TIP3    H240246   1.384   3.786  17.235 -0.1420  1.1845 -1.1602
 5351TIP3   OH240247   1.031   4.241  18.506  0.0524  0.5339  0.1448
 5351TIP3    H140248   0.939   4.258  18.486  0.3804  1.3521 -0.7321
 5351TIP3    H240249   1.043   4.277  18.594 -0.4848  0.3208  0.3100
 5352TIP3   OH240250   5.172   2.663  18.272  0.0140  0.2307  0.3750
 5352TIP3    H140251   5.085   2.701  18.267 -0.5909 -1.2726 -1.5911
 5352TIP3    H240252   5.175   2.619  18.357 -1.5529 -0.5902  0.0314
 5353TIP3   OH240253   2.647   2.572  18.202  0.4031 -0.3114 -0.1711
 5353TIP3    H140254   2.698   2.643  18.162 -0.4573 -1.2502 -3.2147
 5353TIP3    H240255   2.558   2.587  18.172 -0.1680 -1.5989  0.7767
 5354TIP3   OH240256   4.823   2.112  16.257 -0.2878 -0.2983 -0.0581
 5354TIP3    H140257   4.760   2.119  16.329  0.4426 -1.6391  0.7484
 5354TIP3    H240258   4.770   2.091  16.181 -1.0051  0.4492  0.2167
 5355TIP3   OH240259   3.741   7.132  18.222  0.1277 -0.4070 -0.0844
 5355TIP3    H140260   3.671   7.132  18.287  0.1595 -0.2437 -0.0493
 5355TIP3    H240261   3.782   7.218  18.231  1.4570 -1.1292  1.0970
 5356TIP3   OH240262   2.039   1.664  18.645  0.6371  0.0306  0.1887
 5356TIP3    H140263   1.975   1.657  18.716  1.2468  1.0402  0.8685
 5356TIP3    H240264   2.011   1.740  18.594  1.3586  0.5798  0.5863
 5357TIP3   OH240265   7.457   6.417  16.471  0.2426  0.0525 -0.3102
 5357TIP3    H140266   7.427   6.507  16.458  0.2509 -0.1171 -1.6423
 5357TIP3    H240267   7.497   6.417  16.558 -0.5858  1.1021  0.0840
 5358TIP3   OH240268   2.118   6.188  19.001 -0.4627  0.4732 -0.1875
 5358TIP3    H140269   2.142   6.235  19.081 -0.8964  1.3390 -0.5439
 5358TIP3    H240270   2.069   6.253  18.949 -0.5527 -0.1981 -0.9673
 5359TIP3   OH240271   4.870   3.774  18.995 -0.2689 -0.1546 -0.4256
 5359TIP3    H140272   4.850   3.767  18.902  2.0294  0.6562 -1.0465
 5359TIP3    H240273   4.892   3.866  19.008  1.0259 -0.5704  0.5434
 5360TIP3   OH240274   4.048   0.857  17.072  0.5034  0.0855 -0.4585
 5360TIP3    H140275   4.124   0.884  17.021  1.9609  0.2023  1.6682
 5360TIP3    H240276   4.059   0.763  17.083  0.2317  0.0710 -0.3109
 5361TIP3   OH240277   6.902   6.902  17.998 -0.0146  0.2593  0.2086
 5361TIP3    H140278   6.848   6.946  17.932  0.6959  1.5237  0.4382
 5361TIP3    H240279   6.852   6.910  18.079  0.0903  0.6153  0.2395
 5362TIP3   OH240280   0.873   5.433  17.747  0.4319 -0.1404  0.4106
 5362TIP3    H140281   0.916   5.512  17.778  2.1510 -1.3380  1.2460
 5362TIP3    H240282   0.836   5.393  17.825 -4.4763  1.9729 -0.5069
 5363TIP3   OH240283   0.325   4.767  18.580  0.5262  0.6508  0.3450
 5363TIP3    H140284   0.288   4.708  18.646 -0.0410 -2.1874 -2.3216
 5363TIP3    H240285   0.413   4.733  18.564  0.8532  1.6367 -0.0394
 5364TIP3   OH240286   5.075   0.122  16.246 -0.2762 -0.2404 -0.0220
 5364TIP3    H140287   5.036   0.045  16.288 -1.4956  0.3136 -0.0990
 5364TIP3    H240288   5.007   0.153  16.185  1.2150 -0.6968 -2.0445
 5365TIP3   OH240289   0.768   6.435  16.608  0.8012 -0.1288  0.5049
 5365TIP3    H140290   0.782   6.409  16.517  1.3261 -0.8322  0.7797
 5365TIP3    H240291   0.856   6.444  16.644  0.6002  0.4137  0.8785
 5366TIP3   OH240292   5.554   0.566  18.039 -0.3753  0.0650 -0.3318
 5366TIP3    H140293   5.605   0.489  18.066 -2.1846 -0.4419  1.9978
 5366TIP3    H240294   5.597   0.640  18.083  0.2316  0.1167 -1.0040
 5367TIP3   OH240295   5.930   2.536  17.551 -0.4790 -0.5316  0.3466
 5367TIP3    H140296   6.011   2.495  17.520 -0.6749 -1.3646  0.8910
 5367TIP3    H240297   5.861   2.480  17.517 -0.8945  0.5959 -0.7594
 5368TIP3   OH240298   1.793   2.639  16.500  0.6258 -0.0161  0.4184
 5368TIP3    H140299   1.759   2.728  16.512  1.0216  0.2966 -0.7100
 5368TIP3    H240300   1.848   2.644  16.423  1.7508 -0.9478  1.1285
 5369TIP3   OH240301   5.638   1.928  18.236 -0.0750  0.1149  0.0635
 5369TIP3    H140302   5.580   1.907  18.162  2.0920 -2.5358 -1.0580
 5369TIP3    H240303   5.667   2.017  18.219 -1.1366  0.2584 -1.2069
 5370TIP3   OH240304   0.149   5.469  18.651  0.4309  0.0927  0.0883
 5370TIP3    H140305   0.237   5.505  18.661  0.6255 -0.6381  1.1631
 5370TIP3    H240306   0.162   5.379  18.621 -0.0086  0.4203 -1.1448
 5371TIP3   OH240307   7.543   0.883  16.882 -0.4537 -0.1001  0.1802
 5371TIP3    H140308   7.576   0.894  16.971  2.0586 -0.8134 -0.5691
 5371TIP3    H240309   7.557   0.968  16.841  0.4607 -0.3932 -0.1291
 5372TIP3   OH240310   6.845   6.855  17.554 -0.0812  0.1838 -0.0906
 5372TIP3    H140311   6.903   6.841  17.480  2.3863 -1.5399  1.9862
 5372TIP3    H240312   6.878   6.935  17.596 -0.1159 -0.0021  0.2992
 5373TIP3   OH240313   2.305   1.465  17.402 -0.4170  0.0079  0.1217
 5373TIP3    H140314   2.261   1.524  17.464 -1.6771 -1.2797  0.4884
 5373TIP3    H240315   2.346   1.524  17.339  0.6851  1.3811  1.9775
 5374TIP3   OH240316   0.136   3.663  18.753  0.2539 -0.9955  0.1774
 5374TIP3    H140317   0.135   3.728  18.683 -0.2122 -0.6491  0.5013
 5374TIP3    H240318   0.069   3.693  18.815 -0.5817 -2.2415 -0.0827
 5375TIP3   OH240319   5.113   4.702  16.932 -0.3952  0.4535  0.3391
 5375TIP3    H140320   5.092   4.697  16.838  0.9304 -0.7929  0.0654
 5375TIP3    H240321   5.203   4.733  16.935 -0.1404 -0.3116  1.1411
 5376TIP3   OH240322   7.562   0.559  17.686 -0.1748  0.0242  0.0107
 5376TIP3    H140323   7.640   0.542  17.740  0.2828 -0.3345 -0.7543
 5376TIP3    H240324   7.589   0.537  17.597 -1.6862 -1.8365 -0.0441
 5377TIP3   OH240325   5.660   6.789  17.732  0.1748  0.7955 -0.2141
 5377TIP3    H140326   5.621   6.817  17.649  2.1760  0.9129 -1.1669
 5377TIP3    H240327   5.735   6.736  17.707 -1.1759 -2.1836  1.5524
 5378TIP3   OH240328   2.511   4.371  17.853 -0.2324  0.0378  0.2318
 5378TIP3    H140329   2.429   4.336  17.887  0.3307  0.3378  1.9993
 5378TIP3    H240330   2.575   4.350  17.920  0.7670  1.5470 -0.2079
 5379TIP3   OH240331   0.480   2.923  16.457  0.1913 -0.1376 -0.0462
 5379TIP3    H140332   0.560   2.905  16.406  0.2688 -0.8743  0.3181
 5379TIP3    H240333   0.464   3.016  16.444  0.9360 -0.0462 -0.3825
 5380TIP3   OH240334   0.392   3.157  16.798  0.0087  0.1300  0.4426
 5380TIP3    H140335   0.354   3.163  16.885 -1.2982 -0.4759 -0.0578
 5380TIP3    H240336   0.322   3.187  16.739  0.3043 -0.9498 -0.5067
 5381TIP3   OH240337   3.549   4.062  18.463 -0.3732  0.6521  0.0274
 5381TIP3    H140338   3.574   4.105  18.545  0.5531  2.4447 -1.1073
 5381TIP3    H240339   3.632   4.039  18.422 -0.8165  0.0780 -0.5666
 5382TIP3   OH240340   0.844   3.840  18.883 -0.0279 -0.1311  0.1198
 5382TIP3    H140341   0.805   3.788  18.814  0.3001 -0.5652  0.2580
 5382TIP3    H240342   0.774   3.852  18.947 -0.1659 -0.2239 -0.0133
 5383TIP3   OH240343   1.099   3.047  16.715  0.2055 -0.1446 -0.0821
 5383TIP3    H140344   1.056   3.062  16.800  0.9541  0.4840  0.1989
 5383TIP3    H240345   1.037   2.993  16.666  0.2836 -1.5751  1.3090
 5384TIP3   OH240346   5.456   7.597  16.435 -0.0748  0.3725  0.2836
 5384TIP3    H140347   5.546   7.566  16.444 -0.0381 -0.1550 -1.4399
 5384TIP3    H240348   5.465   7.685  16.398 -0.2715  0.3974  0.2949
 5385TIP3   OH240349   4.111   2.235  17.195 -0.4159  0.3928 -0.3056
 5385TIP3    H140350   4.133   2.244  17.102  0.7371  0.3328 -0.0545
 5385TIP3    H240351   4.159   2.157  17.223  0.0210  0.9534  0.5577
 5386TIP3   OH240352   4.691   2.357  17.730  0.3498 -0.5176 -0.3566
 5386TIP3    H140353   4.761   2.340  17.667  1.0300 -1.6077  0.6398
 5386TIP3    H240354   4.619   2.300  17.702  0.1396  0.0312 -0.9379
 5387TIP3   OH240355   3.757   5.480  18.606  0.2294 -0.3803 -0.2103
 5387TIP3    H140356   3.736   5.397  18.564  1.4049 -0.6230 -0.3659
 5387TIP3    H240357   3.677   5.532  18.599 -0.5238 -1.5102 -0.0693
 5388TIP3   OH240358   1.428   5.603  17.715  0.3562  0.1731  0.0709
 5388TIP3    H140359   1.517   5.580  17.686  0.2741 -1.0695  0.7714
 5388TIP3    H240360   1.439   5.629  17.806  0.1486  1.1368 -0.1614
 5389TIP3   OH240361   1.431   2.404  17.458 -0.3128 -0.0028  0.0355
 5389TIP3    H140362   1.372   2.328  17.461 -1.5699  0.8544 -1.3924
 5389TIP3    H240363   1.372   2.479  17.448  1.0141  0.9417 -0.9618
 5390TIP3   OH240364   6.453   3.623  17.638 -0.3323  0.1444 -0.1545
 5390TIP3    H140365   6.439   3.716  17.655  0.5902  0.7860 -2.4167
 5390TIP3    H240366   6.395   3.604  17.564  1.2520 -0.3847 -1.3206
 5391TIP3   OH240367   1.381   5.814  11.964  0.6634  0.2142  0.1088
 5391TIP3    H140368   1.354   5.860  11.885  0.5085 -1.3417 -0.7868
 5391TIP3    H240369   1.307   5.757  11.985  1.1911 -0.2778  0.6723
 5392TIP3   OH240370   1.802   4.501  12.255  0.2201  0.2946 -0.2789
 5392TIP3    H140371   1.754   4.430  12.213 -0.1890  1.2842 -1.5714
 5392TIP3    H240372   1.886   4.464  12.279  0.3609 -0.4010 -1.7543
 5393TIP3   OH240373   7.641   3.993  10.872 -0.4752  0.0597 -0.3022
 5393TIP3    H140374   7.584   4.063  10.906 -1.0003 -0.3024 -0.4252
 5393TIP3    H240375   7.614   3.982  10.781 -1.3217 -1.2083  0.0782
 5394TIP3   OH240376   4.864   7.447  10.322  0.1101  0.1667 -0.0999
 5394TIP3    H140377   4.796   7.392  10.360 -0.0466 -0.3832 -1.1399
 5394TIP3    H240378   4.936   7.445  10.386  0.4375 -1.9245 -0.4699
 5395TIP3   OH240379   1.955   2.159  11.776  0.2903 -0.3271 -0.3130
 5395TIP3    H140380   1.958   2.069  11.745 -1.3618 -0.1040 -1.2169
 5395TIP3    H240381   1.867   2.170  11.812  0.8408  0.6070  0.8142
 5396TIP3   OH240382   6.520   5.012  10.540 -0.5174 -0.1630  0.0056
 5396TIP3    H140383   6.533   5.028  10.634  3.7514 -2.4992  0.0641
 5396TIP3    H240384   6.499   4.919  10.534 -0.7382 -0.0485 -1.3530
 5397TIP3   OH240385   6.854   0.684  11.524 -0.1210  0.4181  0.3547
 5397TIP3    H140386   6.836   0.595  11.496 -0.2293  0.4663  0.2696
 5397TIP3    H240387   6.771   0.731  11.512  0.3136  0.9030 -1.0640
 5398TIP3   OH240388   1.938   4.393  10.282 -0.4176 -0.4169  0.3170
 5398TIP3    H140389   1.982   4.477  10.289 -0.4565 -0.1175 -2.1979
 5398TIP3    H240390   1.966   4.344  10.360  0.9428  1.2896  0.9483
 5399TIP3   OH240391   2.418   0.341  11.215 -0.7591 -0.3832  0.8903
 5399TIP3    H140392   2.419   0.437  11.208  1.6082 -0.4624 -3.0164
 5399TIP3    H240393   2.335   0.315  11.176 -0.7652  0.0595  0.5958
 5400TIP3   OH240394   2.181   2.747  12.291  0.3799 -0.4011  0.7089
 5400TIP3    H140395   2.101   2.792  12.316  0.8331  0.5342  0.5308
 5400TIP3    H240396   2.251   2.803  12.324  0.9609 -1.1406  0.7509
 5401TIP3   OH240397   1.839   2.641  12.339  0.3124 -0.3693 -0.1419
 5401TIP3    H140398   1.832   2.706  12.269  1.1587 -0.3061 -0.1778
 5401TIP3    H240399   1.866   2.691  12.415  1.3064 -0.7196 -0.2523
 5402TIP3   OH240400   5.179   2.342  10.519  0.7469 -0.1120  0.2332
 5402TIP3    H140401   5.169   2.419  10.463  1.6487  1.2455  1.8603
 5402TIP3    H240402   5.237   2.284  10.470 -1.1617 -0.5083 -1.6995
 5403TIP3   OH240403   7.589   2.522  11.488  0.0537 -0.0667  0.4083
 5403TIP3    H140404   7.535   2.546  11.564 -0.3042  0.1182  0.1012
 5403TIP3    H240405   7.679   2.533  11.518 -0.0771 -0.4069  0.9374
 5404TIP3   OH240406   0.027   6.224  10.811  0.5166  0.2300 -0.5387
 5404TIP3    H140407  -0.023   6.155  10.854  1.4606 -1.2891 -1.7421
 5404TIP3    H240408   0.043   6.289  10.879 -3.5192  1.1428 -0.2025
 5405TIP3   OH240409   4.613   6.665  10.432 -0.3278  0.0732  0.2483
 5405TIP3    H140410   4.590   6.747  10.388 -0.2137 -0.1732 -0.2771
 5405TIP3    H240411   4.701   6.680  10.465 -0.3179  0.1703  0.1798
 5406TIP3   OH240412   0.190   2.973  11.868  0.4950 -0.2153 -0.4117
 5406TIP3    H140413   0.251   2.901  11.853  0.3333 -0.5279  0.3860
 5406TIP3    H240414   0.117   2.956  11.807  0.3726 -0.8248 -0.0983
 5407TIP3   OH240415   2.696   1.596  11.106 -0.0216 -0.6140  0.0236
 5407TIP3    H140416   2.740   1.562  11.184 -1.2968 -0.8888  0.6444
 5407TIP3    H240417   2.732   1.684  11.094  0.1275 -0.5397  0.9626
 5408TIP3   OH240418   4.809   4.965  10.918 -0.7990  0.2781  0.0134
 5408TIP3    H140419   4.888   4.982  10.866 -0.0905 -1.4888  0.4216
 5408TIP3    H240420   4.737   4.999  10.865 -0.0368 -0.7751 -1.8073
 5409TIP3   OH240421   6.638   6.015  10.575 -0.2122 -0.0734 -0.3659
 5409TIP3    H140422   6.615   5.998  10.667 -0.7640 -0.8062 -0.6310
 5409TIP3    H240423   6.690   6.095  10.578 -0.7262  0.2479  0.5298
 5410TIP3   OH240424   1.800   1.360  10.452  0.0150 -0.3193  0.0021
 5410TIP3    H140425   1.841   1.354  10.365 -0.5585 -0.3979 -0.2663
 5410TIP3    H240426   1.864   1.407  10.505  1.1533 -1.8405  0.0235
 5411TIP3   OH240427   6.748   5.344  10.809 -0.4978 -1.0189 -0.2132
 5411TIP3    H140428   6.768   5.258  10.772  0.9580 -1.1815  0.8573
 5411TIP3    H240429   6.706   5.325  10.892  2.5606 -0.8448  1.5209
 5412TIP3   OH240430   6.766   2.873  10.510 -0.0023 -0.0239  0.3594
 5412TIP3    H140431   6.796   2.819  10.582  0.5820  0.4267  0.4686
 5412TIP3    H240432   6.713   2.941  10.551 -0.0155 -0.0092  0.3193
 5413TIP3   OH240433   1.863   6.757  10.028 -0.2917  0.6405  0.6708
 5413TIP3    H140434   1.815   6.679  10.055  0.1825  0.5720  1.3456
 5413TIP3    H240435   1.935   6.724   9.973 -0.4539  0.6593  0.4456
 5414TIP3   OH240436   2.152   4.660  11.241  0.3026  0.4766  0.3614
 5414TIP3    H140437   2.187   4.572  11.230  0.2049  0.6204 -1.3887
 5414TIP3    H240438   2.219   4.718  11.204  0.2362  1.1123  1.2208
 5415TIP3   OH240439   0.909   2.333  10.341 -0.2942 -0.8836 -0.2811
 5415TIP3    H140440   0.946   2.412  10.381  1.6348 -0.9989 -1.7535
 5415TIP3    H240441   0.829   2.317  10.392  0.9966  0.0898  2.2027
 5416TIP3   OH240442   2.929   6.543  11.985  0.1731  0.2205 -0.1117
 5416TIP3    H140443   2.844   6.534  12.028  1.0123 -1.2338  1.3241
 5416TIP3    H240444   2.944   6.638  11.981 -1.2639  0.4783  0.0713
 5417TIP3   OH240445   2.210   3.359  12.156  0.3593 -0.3066 -0.5694
 5417TIP3    H140446   2.273   3.408  12.102 -1.0087  1.9921 -0.2374
 5417TIP3    H240447   2.234   3.381  12.246 -0.4657  0.0620 -0.4258
 5418TIP3   OH240448   5.693   3.210  11.703 -0.6534  0.2081 -0.1179
 5418TIP3    H140449   5.683   3.283  11.641 -1.1367 -0.1609 -0.4907
 5418TIP3    H240450   5.655   3.243  11.785 -0.5181  0.5109 -0.1756
 5419TIP3   OH240451   2.050   0.499  10.979  0.1647 -0.7349 -0.0583
 5419TIP3    H140452   2.051   0.550  11.060 -0.7221 -0.6331 -0.1027
 5419TIP3    H240453   1.989   0.546  10.922  0.9683 -0.6645 -0.8912
 5420TIP3   OH240454   7.412   0.743  11.183 -0.4615 -0.1188 -0.3881
 5420TIP3    H140455   7.332   0.725  11.134 -1.9534 -2.1389  2.4867
 5420TIP3    H240456   7.410   0.837  11.198 -1.6058  0.0614 -1.4727
 5421TIP3   OH240457   6.958   2.819  12.121  0.2528 -0.4039 -0.0137
 5421TIP3    H140458   6.883   2.819  12.062  1.2390  2.4822 -1.4262
 5421TIP3    H240459   6.924   2.853  12.203 -0.0855  0.5874 -0.5493
 5422TIP3   OH240460   5.818   6.901  12.448  0.2105  0.3546 -0.8022
 5422TIP3    H140461   5.755   6.967  12.419 -0.8854  0.7939  2.2124
 5422TIP3    H240462   5.894   6.952  12.476 -0.0641  0.2533  0.1591
 5423TIP3   OH240463   1.539   2.328  11.630 -0.0852  0.3802 -0.3832
 5423TIP3    H140464   1.552   2.355  11.539  2.4252  0.1598 -0.1471
 5423TIP3    H240465   1.513   2.409  11.676  1.2906  1.0895 -0.8172
 5424TIP3   OH240466   4.059   4.552  12.093 -0.1185  0.4288  0.2652
 5424TIP3    H140467   4.112   4.563  12.172  1.3072 -0.2335 -0.5681
 5424TIP3    H240468   3.970   4.539  12.126  0.1460  1.9323  1.6858
 5425TIP3   OH240469   0.154   6.477  11.676 -0.2575 -0.3874 -0.5003
 5425TIP3    H140470   0.239   6.514  11.656  0.3562  0.5768  3.1761
 5425TIP3    H240471   0.172   6.388  11.708 -0.7240 -0.4771 -0.4684
 5426TIP3   OH240472   2.079   5.370  10.867 -0.6655 -0.5618 -0.5319
 5426TIP3    H140473   2.034   5.447  10.833  0.7017  0.0348 -1.0577
 5426TIP3    H240474   2.075   5.305  10.797 -2.1980 -1.1584  0.0710
 5427TIP3   OH240475   2.898   5.148  10.048  0.4975  0.0107 -0.3048
 5427TIP3    H140476   2.890   5.148  10.143  0.3511  0.0422 -0.3176
 5427TIP3    H240477   2.855   5.067  10.020 -0.4001  0.5162 -0.4254
 5428TIP3   OH240478   3.339   6.492  10.584 -0.3519  0.1411 -0.3949
 5428TIP3    H140479   3.378   6.482  10.497 -0.2251  0.4443 -0.3736
 5428TIP3    H240480   3.252   6.528  10.567 -0.2280  0.4526 -0.3841
 5429TIP3   OH240481   3.284   5.276  11.603  0.7189 -0.0220  0.6356
 5429TIP3    H140482   3.358   5.275  11.664  0.0332 -1.2174  1.4866
 5429TIP3    H240483   3.257   5.185  11.596 -0.4781  0.3463  0.0889
 5430TIP3   OH240484   6.197   7.537  10.839  0.6807 -0.3691 -0.4535
 5430TIP3    H140485   6.164   7.609  10.786 -1.9556 -1.2530 -0.1719
 5430TIP3    H240486   6.267   7.575  10.892  0.7204  1.4598 -1.7429
 5431TIP3   OH240487   2.224   4.539  10.502 -0.1042  0.0421  0.1319
 5431TIP3    H140488   2.311   4.555  10.538 -0.0363  0.3955 -0.1948
 5431TIP3    H240489   2.207   4.446  10.522  0.0250  0.1703  0.8685
 5432TIP3   OH240490   4.923   2.794  10.895  0.4817  0.6476  0.0791
 5432TIP3    H140491   4.935   2.887  10.915 -0.4577  0.9390 -0.6834
 5432TIP3    H240492   4.988   2.776  10.827 -0.7177  1.2813 -1.2795
 5433TIP3   OH240493   6.291   1.522  10.534  0.1419  0.3204  0.0600
 5433TIP3    H140494   6.364   1.539  10.592  0.3631 -0.4182  0.0023
 5433TIP3    H240495   6.310   1.574  10.455 -0.4893  1.8512  0.8742
 5434TIP3   OH240496   3.894   3.561  10.701 -0.1824  0.1515 -0.4226
 5434TIP3    H140497   3.881   3.521  10.615 -0.4200 -0.1466 -0.2522
 5434TIP3    H240498   3.826   3.521  10.755 -1.7260  2.2152 -0.7231
 5435TIP3   OH240499   3.596   2.705  11.189  0.2432  0.3133  0.4076
 5435TIP3    H140500   3.623   2.643  11.257 -1.3721  0.0581  0.8654
 5435TIP3    H240501   3.604   2.655  11.107 -1.2182 -0.6059  0.7897
 5436TIP3   OH240502   0.765   6.384  10.392 -0.1275  0.1908  0.2683
 5436TIP3    H140503   0.743   6.477  10.402 -2.2201 -0.2209  0.1090
 5436TIP3    H240504   0.846   6.384  10.341  0.3996  1.9230  1.0122
 5437TIP3   OH240505   3.799   7.362  10.638 -0.3309  0.0755  0.3948
 5437TIP3    H140506   3.762   7.280  10.605 -0.0654 -0.1262  0.5951
 5437TIP3    H240507   3.784   7.425  10.568 -0.4974 -0.1550  0.2212
 5438TIP3   OH240508   6.355   7.172  11.361  0.4838 -0.5391  0.0311
 5438TIP3    H140509   6.327   7.096  11.309 -2.0433  2.2993 -3.2331
 5438TIP3    H240510   6.437   7.200  11.320 -0.1229  0.1353 -0.7640
 5439TIP3   OH240511   5.134   4.701  10.803 -0.3649  0.3010  0.4552
 5439TIP3    H140512   5.125   4.795  10.822 -0.0416  0.2017  1.1085
 5439TIP3    H240513   5.085   4.658  10.874  2.4141 -0.1492  2.2542
 5440TIP3   OH240514   4.495   3.933  11.772 -0.3419 -0.1301 -0.6384
 5440TIP3    H140515   4.542   3.861  11.730  0.8342 -0.4791  1.1642
 5440TIP3    H240516   4.403   3.908  11.766 -0.1254 -0.6893 -1.9705
 5441TIP3   OH240517   3.465   7.084  10.757 -0.1376  0.2161 -0.4364
 5441TIP3    H140518   3.490   7.146  10.826  1.7392 -0.5759 -0.3327
 5441TIP3    H240519   3.371   7.097  10.746 -0.1165  1.8201  0.8125
 5442TIP3   OH240520   2.510   3.032  10.669  0.1499 -0.1767  0.3000
 5442TIP3    H140521   2.511   3.105  10.731 -0.7226  2.1933 -2.2259
 5442TIP3    H240522   2.419   3.004  10.665 -0.0867  0.6604 -0.8527
 5443TIP3   OH240523   7.362   0.844  10.121  0.2912 -0.5825 -0.0171
 5443TIP3    H140524   7.342   0.929  10.160  1.4461  0.4469 -1.5760
 5443TIP3    H240525   7.441   0.859  10.070  0.7633 -2.7092 -0.0125
 5444TIP3   OH240526   2.183   6.240  11.785  0.5175 -0.3454 -0.2901
 5444TIP3    H140527   2.277   6.224  11.793  0.6344  0.4850  0.1340
 5444TIP3    H240528   2.176   6.312  11.722  0.2277  0.0810  0.2090
 5445TIP3   OH240529   0.558   1.102  10.654  0.4336  0.1825  0.0273
 5445TIP3    H140530   0.626   1.138  10.597 -0.8066 -1.5882 -2.7407
 5445TIP3    H240531   0.476   1.132  10.616 -0.5100 -2.5173 -0.2625
 5446TIP3   OH240532   1.697   6.357  10.712 -0.1667  0.1732 -0.7531
 5446TIP3    H140533   1.704   6.449  10.688  0.8889  0.0388 -1.0262
 5446TIP3    H240534   1.611   6.330  10.680 -0.2872  0.9346 -1.0888
 5447TIP3   OH240535   4.627   2.883  10.253 -0.6410 -0.1005 -0.6501
 5447TIP3    H140536   4.696   2.852  10.311  0.6846  2.0648 -0.9355
 5447TIP3    H240537   4.546   2.871  10.304  0.2031 -0.5121  0.6612
 5448TIP3   OH240538   1.941   2.899  10.728  0.5849 -0.0212  0.1458
 5448TIP3    H140539   1.983   2.827  10.776 -1.3079 -1.3113 -0.0026
 5448TIP3    H240540   1.849   2.893  10.753  0.1330  1.4498 -1.0284
 5449TIP3   OH240541   7.444   4.210  11.756  0.0235 -0.1731 -0.1309
 5449TIP3    H140542   7.413   4.270  11.687 -0.0947 -0.0600  0.0197
 5449TIP3    H240543   7.389   4.231  11.832 -1.7868 -2.1786 -0.7774
 5450TIP3   OH240544   3.992   3.213  11.085 -0.1062  0.1104 -0.2136
 5450TIP3    H140545   4.002   3.298  11.042  1.4089  0.7755  1.3718
 5450TIP3    H240546   3.929   3.229  11.155 -1.0885 -0.5137 -0.9178
 5451TIP3   OH240547   2.892   1.059  12.864  0.3972  0.7583  0.5921
 5451TIP3    H140548   2.977   1.018  12.875  0.5007  0.5922 -0.6609
 5451TIP3    H240549   2.906   1.126  12.796 -0.7751 -0.3102 -0.7697
 5452TIP3   OH240550   2.061   6.596  12.237 -0.1535 -0.4466  0.2450
 5452TIP3    H140551   1.972   6.615  12.207  0.0212 -0.3752 -0.2341
 5452TIP3    H240552   2.053   6.586  12.332 -0.7768 -1.0286  0.1416
 5453TIP3   OH240553   2.121   4.972  10.642 -0.2831 -0.0648 -0.3665
 5453TIP3    H140554   2.185   4.906  10.668 -1.1105 -0.6936  0.1313
 5453TIP3    H240555   2.090   5.009  10.725 -1.7179 -0.8980 -0.4971
 5454TIP3   OH240556   6.615   4.560  10.808  0.6371 -0.4906  0.2378
 5454TIP3    H140557   6.699   4.606  10.802  0.4750 -0.1586  0.4652
 5454TIP3    H240558   6.579   4.566  10.719  0.5796 -0.1024  0.2848
 5455TIP3   OH240559   6.185   4.368  11.986 -0.7194  0.2306 -0.0092
 5455TIP3    H140560   6.194   4.273  11.984  0.6501  0.2960  1.0773
 5455TIP3    H240561   6.145   4.387  12.070 -0.6174  0.6410 -0.0498
 5456TIP3   OH240562   1.172   6.020  10.160 -0.1106 -0.2202  0.0283
 5456TIP3    H140563   1.187   5.928  10.137 -0.5256 -0.1502 -0.5338
 5456TIP3    H240564   1.077   6.031  10.155 -0.0321  0.3451 -0.3287
 5457TIP3   OH240565   0.010   6.318   9.932 -0.4189  0.4450 -0.3843
 5457TIP3    H140566   0.002   6.408   9.963  0.3985  0.4020 -0.0260
 5457TIP3    H240567  -0.081   6.286   9.926 -0.7772  1.5955 -1.4649
 5458TIP3   OH240568   7.427   6.843  12.118  0.5757 -0.1704 -0.1745
 5458TIP3    H140569   7.479   6.856  12.197  1.7275  0.0700 -0.9466
 5458TIP3    H240570   7.487   6.801  12.056 -0.8543 -2.1826 -0.3102
 5459TIP3   OH240571   2.051   4.038  10.975  0.2566 -0.6608  0.3291
 5459TIP3    H140572   1.957   4.024  10.968  0.4333 -1.3431 -1.0291
 5459TIP3    H240573   2.059   4.126  11.012 -0.9329  0.0814 -1.0689
 5460TIP3   OH240574   2.395   4.750  11.066  0.4073 -0.2361 -0.2584
 5460TIP3    H140575   2.411   4.833  11.112  0.6909 -0.9178  0.9275
 5460TIP3    H240576   2.482   4.723  11.035  0.0680  0.7655 -2.2345
 5461TIP3   OH240577   0.675   1.478   9.893  0.5748 -0.2397 -0.5031
 5461TIP3    H140578   0.594   1.499   9.846  0.3126 -0.6325 -0.2354
 5461TIP3    H240579   0.662   1.514   9.980  1.3075  1.0297 -0.8871
 5462TIP3   OH240580   2.149   0.950  11.593  0.3915  0.3919 -0.2228
 5462TIP3    H140581   2.179   0.878  11.648  1.6208  1.2468  0.2737
 5462TIP3    H240582   2.060   0.967  11.622 -0.2413 -1.4774 -0.9515
 5463TIP3   OH240583   4.573   5.277  11.777 -0.3348 -0.5037  0.3650
 5463TIP3    H140584   4.596   5.195  11.819 -0.1366 -0.4414  0.3808
 5463TIP3    H240585   4.482   5.266  11.748 -0.6151 -0.3943  1.1776
 5464TIP3   OH240586   1.378   1.523  11.202 -0.5577  0.3829  0.5186
 5464TIP3    H140587   1.350   1.441  11.242 -2.2080  0.2556 -0.7921
 5464TIP3    H240588   1.470   1.509  11.179 -1.1921 -1.6960 -1.0358
 5465TIP3   OH240589   6.804   6.677   9.806 -0.3555  0.0362 -0.5354
 5465TIP3    H140590   6.811   6.741   9.877  1.5363 -0.1477 -0.4891
 5465TIP3    H240591   6.851   6.718   9.733  0.6057 -1.1180 -0.5987
 5466TIP3   OH240592   0.549   4.913  11.161 -0.1618 -0.0497 -0.1150
 5466TIP3    H140593   0.614   4.847  11.136 -0.3884  0.2855 -1.7063
 5466TIP3    H240594   0.595   4.996  11.153 -0.0015  0.0577  1.4839
 5467TIP3   OH240595   3.902   2.140  10.195 -0.0802 -0.3805 -0.4695
 5467TIP3    H140596   3.942   2.224  10.171  0.9928 -0.7601 -0.0519
 5467TIP3    H240597   3.906   2.139  10.291  1.7280 -1.7409 -0.5051
 5468TIP3   OH240598   7.149   3.280  11.205 -0.1196  0.5806  0.1313
 5468TIP3    H140599   7.120   3.356  11.255 -1.3362 -0.2221  0.6788
 5468TIP3    H240600   7.222   3.245  11.256 -0.5081  0.5282  0.6566
 5469TIP3   OH240601   6.822   2.965  10.955  0.4886  0.3477  0.0065
 5469TIP3    H140602   6.855   3.030  11.017  1.2571 -0.7978  0.8428
 5469TIP3    H240603   6.871   2.980  10.875  0.8243  0.6496  0.2668
 5470TIP3   OH240604   6.092   5.650  11.596 -0.4067  0.1412  0.0118
 5470TIP3    H140605   6.102   5.556  11.583 -0.8300  0.1150 -0.1204
 5470TIP3    H240606   6.122   5.690  11.515  0.5394  0.1647  0.3624
 5471TIP3   OH240607   3.832   4.586  11.884 -0.5746 -0.1251  0.4498
 5471TIP3    H140608   3.778   4.562  11.959  0.4578 -2.1846  0.5957
 5471TIP3    H240609   3.869   4.503  11.854  0.7789  0.9518 -0.9849
 5472TIP3   OH240610   6.103   5.677  11.074 -0.5613 -0.0783  0.6824
 5472TIP3    H140611   6.079   5.621  11.148  1.8741 -0.0303  1.6083
 5472TIP3    H240612   6.171   5.627  11.028 -0.7758  0.6716 -0.4675
 5473TIP3   OH240613   3.826   7.527  10.414 -0.3715  0.0316  0.2598
 5473TIP3    H140614   3.856   7.606  10.459 -2.5393  1.4892 -0.6946
 5473TIP3    H240615   3.857   7.536  10.325 -0.7604 -0.1212  0.1062
 5474TIP3   OH240616   6.615   4.923  10.791  0.4802  0.0264  0.2394
 5474TIP3    H140617   6.538   4.921  10.848  0.7640 -0.5042  0.6062
 5474TIP3    H240618   6.684   4.880  10.841  0.3267 -1.9125 -1.0926
 5475TIP3   OH240619   0.276   1.658  11.673  0.2413 -0.0260 -0.2817
 5475TIP3    H140620   0.308   1.684  11.759 -1.1900  1.1430 -0.0519
 5475TIP3    H240621   0.184   1.685  11.673  0.2952  0.3195 -2.2968
 5476TIP3   OH240622   1.154   4.493  10.142  0.0858  0.2525 -0.4689
 5476TIP3    H140623   1.204   4.484  10.224 -0.5534  1.6158  0.1119
 5476TIP3    H240624   1.110   4.577  10.151 -3.8632 -1.6411 -0.1123
 5477TIP3   OH240625   5.493   1.424  11.424 -0.2197  0.3008 -0.2484
 5477TIP3    H140626   5.567   1.365  11.441 -0.3285  0.1279 -0.3723
 5477TIP3    H240627   5.430   1.370  11.376  0.0480  0.7608 -1.1303
 5478TIP3   OH240628   4.475   5.811  10.531  0.1105  0.0501 -0.2180
 5478TIP3    H140629   4.426   5.747  10.479 -0.0609  0.2868 -0.3455
 5478TIP3    H240630   4.466   5.781  10.621  1.4947 -1.1202 -0.4319
 5479TIP3   OH240631   5.711   5.280  11.472  0.4793  0.2790 -0.0334
 5479TIP3    H140632   5.771   5.266  11.545  1.9635  0.9013 -1.0865
 5479TIP3    H240633   5.707   5.375  11.463  1.8550  0.1869 -1.9675
 5480TIP3   OH240634   4.731   2.606  11.306 -0.2697 -0.0473  0.1332
 5480TIP3    H140635   4.671   2.537  11.278 -0.3636 -0.4781  1.3515
 5480TIP3    H240636   4.803   2.602  11.244 -0.2865 -1.2367  0.1764
 5481TIP3   OH240637   1.260   5.892  10.628  0.4469 -0.2653 -0.2369
 5481TIP3    H140638   1.182   5.863  10.580 -0.8320 -1.1147  2.1938
 5481TIP3    H240639   1.252   5.988  10.629 -0.2590 -0.3124 -0.4817
 5482TIP3   OH240640   2.605   0.583  12.964 -0.1274  0.7653 -0.6112
 5482TIP3    H140641   2.585   0.630  13.044  0.9822  0.4682 -0.1408
 5482TIP3    H240642   2.689   0.619  12.934  2.2712 -2.6472  1.2621
 5483TIP3   OH240643   1.049   2.116  11.770  0.1396  0.1068 -0.1452
 5483TIP3    H140644   0.992   2.048  11.732  0.4728 -0.3011  0.0792
 5483TIP3    H240645   1.127   2.068  11.798  0.0352  0.4593  0.7558
 5484TIP3   OH240646   0.116   6.732  11.790 -0.3241 -0.0569  0.7482
 5484TIP3    H140647   0.206   6.756  11.768 -1.2149  0.7716 -2.5785
 5484TIP3    H240648   0.117   6.636  11.791  0.5667 -0.0601  0.6877
 5485TIP3   OH240649   1.756   3.946  12.036 -0.1718 -0.3433 -0.1646
 5485TIP3    H140650   1.673   3.899  12.048 -0.8291  0.1441 -2.3118
 5485TIP3    H240651   1.791   3.956  12.124 -1.9537 -1.3479  0.7184
 5486TIP3   OH240652   3.220   3.558  12.247  0.3973  0.0450 -0.0734
 5486TIP3    H140653   3.197   3.617  12.318 -2.3498  1.6595 -2.1218
 5486TIP3    H240654   3.170   3.478  12.265  0.0320  0.2930  0.0117
 5487TIP3   OH240655   0.290   4.962  11.116  0.1336 -0.0191 -0.2795
 5487TIP3    H140656   0.382   4.942  11.134 -0.7079 -2.1339  2.4823
 5487TIP3    H240657   0.242   4.887  11.152 -2.7681  1.7253 -0.1836
 5488TIP3   OH240658   4.526   6.875  10.148 -0.0899  0.0995  0.1261
 5488TIP3    H140659   4.574   6.813  10.093 -1.1141  0.0158 -0.7039
 5488TIP3    H240660   4.592   6.939  10.174  1.0450 -1.4620  1.2411
 5489TIP3   OH240661   0.837   5.673  12.281 -0.2357  0.6132 -0.6072
 5489TIP3    H140662   0.876   5.732  12.346  1.8799 -0.0856 -1.1604
 5489TIP3    H240663   0.876   5.587  12.301 -2.3883 -0.3978 -0.5273
 5490TIP3   OH240664   2.939   5.587  11.541 -0.0596  0.5532  0.1399
 5490TIP3    H140665   2.988   5.552  11.467 -0.0346  0.2022  0.3216
 5490TIP3    H240666   2.972   5.540  11.617 -0.9568  0.0162  0.2135
 5491TIP3   OH240667   6.805   1.655  11.369 -0.1793  0.9251 -0.6255
 5491TIP3    H140668   6.742   1.727  11.370  1.8686  2.8576  0.5496
 5491TIP3    H240669   6.866   1.678  11.299 -1.0331 -1.2027 -2.1445
 5492TIP3   OH240670   4.323   3.807  10.818 -0.2570  0.1665  0.0998
 5492TIP3    H140671   4.235   3.810  10.781  0.6710  0.0053 -2.3249
 5492TIP3    H240672   4.326   3.726  10.869 -1.1105 -0.5291 -0.9236
 5493TIP3   OH240673   0.973   6.948   9.931  0.4233  0.0510  0.1748
 5493TIP3    H140674   0.944   6.994   9.853 -1.1733 -1.0833  0.0429
 5493TIP3    H240675   0.947   6.857   9.916  1.5271 -0.4962  1.3495
 5494TIP3   OH240676   2.721   0.300  11.648  0.1880 -0.1863  0.2173
 5494TIP3    H140677   2.642   0.300  11.703 -0.5022  0.1601 -0.7378
 5494TIP3    H240678   2.687   0.294  11.558  1.2730 -0.3638 -0.1952
 5495TIP3   OH240679   6.142   2.729  11.759  0.0455  0.1022  0.2450
 5495TIP3    H140680   6.182   2.704  11.843  0.2809 -0.2646  0.0281
 5495TIP3    H240681   6.209   2.707  11.694  0.4711  1.7843  0.0842
 5496TIP3   OH240682   4.291   5.826  11.255  0.4611 -0.2327  0.0871
 5496TIP3    H140683   4.317   5.829  11.163 -1.3648 -2.3315 -0.5826
 5496TIP3    H240684   4.252   5.911  11.272 -0.6644 -0.3680 -1.5950
 5497TIP3   OH240685   1.764   6.369  10.998  0.8495  0.0704 -0.0158
 5497TIP3    H140686   1.840   6.402  10.950  1.0538  0.5254  0.5944
 5497TIP3    H240687   1.792   6.284  11.032  0.6429 -0.3354 -0.8262
 5498TIP3   OH240688   7.124   5.484  12.114 -0.5696 -0.6276  0.4371
 5498TIP3    H140689   7.087   5.422  12.177  0.0089 -1.2598  0.1688
 5498TIP3    H240690   7.049   5.508  12.059 -0.7690 -1.2407  0.4257
 5499TIP3   OH240691   2.449   4.698  10.677  0.0445  0.8567  0.6125
 5499TIP3    H140692   2.448   4.626  10.739 -2.6420 -0.9674 -1.3225
 5499TIP3    H240693   2.381   4.758  10.708 -0.3540  0.6319  0.1774
 5500TIP3   OH240694   0.876   5.542  11.864 -0.1119 -0.1413 -0.1199
 5500TIP3    H140695   0.832   5.475  11.917  0.6228 -0.9461 -0.5085
 5500TIP3    H240696   0.805   5.586  11.817 -0.4224 -2.9660 -2.5547
 5501TIP3   OH240697   0.759   5.840  10.323  0.1163  0.2236 -0.0068
 5501TIP3    H140698   0.679   5.889  10.307 -0.0510  0.1723  0.6201
 5501TIP3    H240699   0.736   5.779  10.394  0.9151  0.7671  0.7474
 5502TIP3   OH240700   4.770   2.621  10.658 -0.0772  0.0792 -0.1853
 5502TIP3    H140701   4.729   2.692  10.707  1.3406  2.3506 -2.0645
 5502TIP3    H240702   4.778   2.655  10.569  0.8422 -2.4010 -1.1309
 5503TIP3   OH240703   0.097   7.148  10.092  0.3155 -0.2485  0.2139
 5503TIP3    H140704   0.053   7.098  10.023 -0.4074  1.3846 -0.5496
 5503TIP3    H240705   0.171   7.190  10.049  0.3449  0.1191  0.6127
 5504TIP3   OH240706   3.252   5.633  11.217 -0.3363 -0.3499  0.3899
 5504TIP3    H140707   3.334   5.590  11.195 -0.1012 -0.3466  1.2243
 5504TIP3    H240708   3.266   5.725  11.196 -0.0025 -0.2924  0.8475
 5505TIP3   OH240709   3.591   6.275  11.772 -0.5235 -0.4954  0.8637
 5505TIP3    H140710   3.546   6.358  11.759  0.0803 -0.0520  1.5543
 5505TIP3    H240711   3.681   6.299  11.795  0.4342 -1.3748 -1.6560
 5506TIP3   OH240712   2.616   2.063  11.092 -0.5300  0.4292 -0.1674
 5506TIP3    H140713   2.557   2.110  11.034  0.6005 -0.0817 -1.7853
 5506TIP3    H240714   2.675   2.130  11.126 -0.6214  0.5929 -0.3312
 5507TIP3   OH240715   2.304   6.748  11.064  0.4177  0.0288  0.5806
 5507TIP3    H140716   2.340   6.672  11.109 -0.2476 -1.9893 -2.0309
 5507TIP3    H240717   2.214   6.723  11.043  0.5042  1.0488 -1.2693
 5508TIP3   OH240718   3.376   2.847  11.758 -0.1159 -0.5631 -0.1937
 5508TIP3    H140719   3.425   2.816  11.682 -0.7292  0.6848 -1.1170
 5508TIP3    H240720   3.404   2.789  11.829  1.7475 -0.6928 -0.9768
 5509TIP3   OH240721   5.291   3.961  10.653 -0.0857  0.0397 -0.1543
 5509TIP3    H140722   5.385   3.953  10.643 -0.2315 -1.3120 -0.6417
 5509TIP3    H240723   5.275   4.056  10.660  1.4120  0.2274  1.2182
 5510TIP3   OH240724   6.988   7.008  10.064 -0.4935  0.2965  0.5408
 5510TIP3    H140725   6.914   6.954  10.035  0.8189 -0.3243 -1.9141
 5510TIP3    H240726   7.007   6.976  10.152 -0.6712 -2.3209 -0.2687
 5511TIP3   OH240727   2.390   1.307  11.573  0.4035 -0.6550  0.4977
 5511TIP3    H140728   2.422   1.331  11.486 -0.1403 -0.3898  0.3679
 5511TIP3    H240729   2.455   1.344  11.633  0.9837 -1.1621  0.2008
 5512TIP3   OH240730   5.557   6.694  12.404  0.1581 -0.1884  0.5264
 5512TIP3    H140731   5.597   6.778  12.382 -0.9227  0.2002 -0.0466
 5512TIP3    H240732   5.589   6.674  12.492  1.6604  0.0432  0.0716
 5513TIP3   OH240733   4.682   2.883  11.290  0.4114  0.2491  0.1244
 5513TIP3    H140734   4.698   2.789  11.298  2.8955  0.7648  4.6279
 5513TIP3    H240735   4.746   2.913  11.226  0.2957 -0.9062 -0.5712
 5514TIP3   OH240736   1.924   2.442  12.019  0.1615 -0.3634 -0.5457
 5514TIP3    H140737   1.903   2.471  11.930  0.9300  0.3886 -0.4938
 5514TIP3    H240738   2.010   2.480  12.037  0.8154 -1.9441 -0.1199
 5515TIP3   OH240739   7.086   0.373  11.117 -0.2565  0.1505  0.5157
 5515TIP3    H140740   7.062   0.301  11.176 -0.5630  1.2397  1.7683
 5515TIP3    H240741   7.180   0.384  11.130 -0.2654  0.1777  0.5587
 5516TIP3   OH240742   4.551   5.466  10.316  0.8788  0.0761 -0.0734
 5516TIP3    H140743   4.598   5.482  10.234  1.7452  1.0246  0.5713
 5516TIP3    H240744   4.603   5.399  10.360  0.5198 -0.2956 -0.2151
 5517TIP3   OH240745   7.547   6.203  17.125 -0.2907  0.0516  0.2984
 5517TIP3    H140746   7.629   6.185  17.079 -0.7591 -1.0465 -0.1665
 5517TIP3    H240747   7.540   6.134  17.190 -0.2722  0.8404  1.1513
 5518TIP3   OH240748   0.551   6.439  12.410  0.0058  0.2357  0.2991
 5518TIP3    H140749   0.575   6.393  12.490  0.4675  1.2373  0.7542
 5518TIP3    H240750   0.481   6.499  12.437 -0.5632 -0.1562 -0.2737
 5519TIP3   OH240751   0.560   1.295  12.182  0.2943 -0.0705 -0.3332
 5519TIP3    H140752   0.540   1.289  12.275 -1.9062  1.7062 -0.5984
 5519TIP3    H240753   0.613   1.218  12.164  1.3365 -0.1311  2.4953
 5520TIP3   OH240754   3.731   3.983  12.246  0.2139  0.3125 -0.2699
 5520TIP3    H140755   3.658   3.988  12.185 -0.6669 -0.7412  0.6531
 5520TIP3    H240756   3.806   3.959  12.192 -0.1265  1.3630 -1.2191
 5521TIP3   OH240757   6.428   7.311  11.056 -0.0431  0.2231  0.6880
 5521TIP3    H140758   6.438   7.389  11.002 -1.7615 -0.5305 -0.7836
 5521TIP3    H240759   6.342   7.320  11.096 -0.7378 -1.4030 -0.3562
 5522TIP3   OH240760   0.091   0.453  10.069 -0.3035  0.0696  0.2561
 5522TIP3    H140761   0.181   0.466  10.040 -0.1322  0.0036  0.7565
 5522TIP3    H240762   0.095   0.376  10.127 -0.5166  0.6350  1.0334
 5523TIP3   OH240763   4.480   3.994  10.953  0.7359 -0.2506  0.4624
 5523TIP3    H140764   4.523   3.938  11.018 -1.3689 -1.2017  1.1196
 5523TIP3    H240765   4.432   3.933  10.897 -0.2605  0.7974  0.1340
 5524TIP3   OH240766   2.540   5.305  10.356 -0.0083 -0.3955  0.7162
 5524TIP3    H140767   2.459   5.335  10.313 -0.2011  0.7866  1.8486
 5524TIP3    H240768   2.515   5.289  10.447 -0.0427 -4.6515  0.1667
 5525TIP3   OH240769   0.472   4.018  12.025 -0.0648  0.3658 -0.0677
 5525TIP3    H140770   0.437   3.943  12.072 -1.0451  0.9136  0.1048
 5525TIP3    H240771   0.532   4.059  12.088  0.0449  0.0535  0.0338
 5526TIP3   OH240772   6.997   7.645  10.010  0.0313 -0.2461  0.2973
 5526TIP3    H140773   7.072   7.682   9.962 -0.8053  2.9366  1.2160
 5526TIP3    H240774   6.921   7.687   9.970 -1.0742 -1.4987  1.0335
 5527TIP3   OH240775   2.008   5.193  11.890 -0.2550 -0.0443  0.3956
 5527TIP3    H140776   1.964   5.207  11.974 -1.8090 -0.0309 -0.3880
 5527TIP3    H240777   2.100   5.180  11.913 -0.4064  1.3973  1.9686
 5528TIP3   OH240778   7.175   5.167  12.113  0.0132  0.6678  0.1285
 5528TIP3    H140779   7.258   5.179  12.159  0.0809 -1.3139  0.5806
 5528TIP3    H240780   7.190   5.208  12.027  1.9133 -0.7374 -0.2726
 5529TIP3   OH240781   2.382   7.147  18.246  0.0229  0.5951 -0.0817
 5529TIP3    H140782   2.294   7.173  18.272  0.2399  0.1831  1.1769
 5529TIP3    H240783   2.438   7.219  18.274  0.0733  0.9249 -1.0158
 5530TIP3   OH240784   6.103   2.094  11.291 -0.1134  0.1406 -0.6580
 5530TIP3    H140785   6.087   2.173  11.342  0.4727 -0.1961  0.0804
 5530TIP3    H240786   6.158   2.122  11.218 -1.0269  0.6432 -1.1692
 5531TIP3   OH240787   7.254   7.458  11.549  0.5942  0.1477 -0.6557
 5531TIP3    H140788   7.252   7.474  11.643 -0.4706  1.8129 -0.9248
 5531TIP3    H240789   7.347   7.446  11.529  0.7084 -1.8826  0.8160
 5532TIP3   OH240790   3.832   1.452  10.896 -0.7094  0.2102 -0.4323
 5532TIP3    H140791   3.782   1.373  10.875  0.3722 -1.2863  2.1426
 5532TIP3    H240792   3.921   1.421  10.909  0.3603  2.3546 -2.0727
 5533TIP3   OH240793   3.332   2.257  11.366 -0.0027 -0.6709 -0.9914
 5533TIP3    H140794   3.327   2.186  11.301 -0.5869 -0.6741 -0.9449
 5533TIP3    H240795   3.245   2.260  11.405  0.4321 -0.8706  0.0154
 5534TIP3   OH240796   7.602   0.420  10.997 -0.4949 -1.0309  0.4060
 5534TIP3    H140797   7.610   0.466  11.081 -2.2904  0.1098  0.0260
 5534TIP3    H240798   7.535   0.353  11.012 -1.1826 -0.5020 -0.2177
 5535TIP3   OH240799   1.371   5.584  10.064 -0.0447 -1.0160 -0.3735
 5535TIP3    H140800   1.326   5.503  10.041 -0.6993 -0.5940 -0.5975
 5535TIP3    H240801   1.450   5.555  10.111  0.4237 -1.8284 -1.6046
 5536TIP3   OH240802   6.070   2.250  10.017 -0.1019  0.2370 -0.0299
 5536TIP3    H140803   6.072   2.155  10.031 -0.9881  0.0530 -1.0148
 5536TIP3    H240804   5.992   2.280  10.064  0.4043  0.5604  0.6318
 5537TIP3   OH240805   5.124   6.299  12.025 -0.1079 -0.0992 -0.0122
 5537TIP3    H140806   5.037   6.281  11.989 -0.0646 -0.7880  0.2110
 5537TIP3    H240807   5.141   6.226  12.084  0.8075 -0.1847 -0.3701
 5538TIP3   OH240808   3.414   5.166  11.313 -0.2535  0.3906 -0.0651
 5538TIP3    H140809   3.496   5.210  11.288 -0.1883  0.9740  1.0918
 5538TIP3    H240810   3.389   5.209  11.395 -0.1885 -1.7336  1.1338
 5539TIP3   OH240811   5.126   3.642  11.793 -0.1740  0.0988  0.3553
 5539TIP3    H140812   5.148   3.601  11.709 -0.4858  0.0155  0.3089
 5539TIP3    H240813   5.111   3.568  11.852 -0.8256  0.1371  0.2502
 5540TIP3   OH240814   0.193   5.347  11.864 -0.0165  0.1018 -0.0833
 5540TIP3    H140815   0.101   5.342  11.892 -0.7417  0.3089 -2.2528
 5540TIP3    H240816   0.194   5.302  11.780  2.0049 -0.3443  0.1450
 5541TIP3   OH240817   1.226   6.908  10.066  0.2180 -0.2138 -0.0532
 5541TIP3    H140818   1.155   6.943  10.011  0.8331  1.4240  0.1353
 5541TIP3    H240819   1.298   6.892  10.005  0.9315  1.6898  0.2344
 5542TIP3   OH240820   6.097   6.956  11.898 -0.1752 -0.3742  0.1572
 5542TIP3    H140821   6.045   6.935  11.821 -0.0565 -2.2241  0.5418
 5542TIP3    H240822   6.172   6.896  11.894 -0.9304 -1.5951  2.4581
 5543TIP3   OH240823   1.328   5.309  11.862  0.0928  0.1522  0.3841
 5543TIP3    H140824   1.371   5.303  11.947 -0.0545  1.0731  0.5309
 5543TIP3    H240825   1.253   5.366  11.877 -0.4472 -0.3957 -0.1675
 5544TIP3   OH240826   0.717   6.811  11.378  0.2187 -0.4356 -0.2722
 5544TIP3    H140827   0.681   6.886  11.331 -1.0031 -0.9414 -0.1836
 5544TIP3    H240828   0.795   6.787  11.328  0.7813  1.0352 -0.1478
 5545TIP3   OH240829   0.543   0.728  11.623 -0.0461 -0.1152  0.5406
 5545TIP3    H140830   0.597   0.803  11.649  0.5855 -0.7941  1.2374
 5545TIP3    H240831   0.519   0.747  11.532  0.5639  0.6667  0.5259
 5546TIP3   OH240832   2.444   5.342  10.627 -0.3360  0.0893 -0.8879
 5546TIP3    H140833   2.432   5.354  10.721 -1.0107 -1.3022 -0.7650
 5546TIP3    H240834   2.449   5.430  10.591 -0.4549  0.6380  0.4083
 5547TIP3   OH240835   2.708   3.563  10.837  0.1391  0.1960 -0.2254
 5547TIP3    H140836   2.636   3.533  10.781  2.0862 -0.1562 -2.7441
 5547TIP3    H240837   2.690   3.524  10.922 -2.3069 -0.3747 -0.9224
 5548TIP3   OH240838   6.944   2.441  12.665  0.0346  0.1570  0.2307
 5548TIP3    H140839   6.908   2.353  12.656  1.5047 -0.4318 -0.1636
 5548TIP3    H240840   6.888   2.484  12.730  0.1055 -1.5227  1.4560
 5549TIP3   OH240841   1.956   4.693  11.880 -0.6328  0.0182  0.1774
 5549TIP3    H140842   2.015   4.636  11.928 -0.0893  0.0783 -0.3992
 5549TIP3    H240843   1.899   4.633  11.832 -1.2506 -0.0415  0.9707
 5550TIP3   OH240844   5.073   1.507  11.126 -0.0504  0.4442 -0.5982
 5550TIP3    H140845   5.079   1.592  11.084  2.8929 -0.0064 -1.3032
 5550TIP3    H240846   5.139   1.509  11.195 -0.6982 -0.8964  0.0997
 5551TIP3   OH240847   5.987   3.872  11.512  0.3864  0.5938 -0.2213
 5551TIP3    H140848   5.920   3.872  11.581  1.4362 -0.7466  0.8624
 5551TIP3    H240849   5.942   3.904  11.434 -1.6213 -0.6328  0.3744
 5552TIP3   OH240850   0.729   7.458  10.242 -0.4115  0.4374  0.1883
 5552TIP3    H140851   0.650   7.506  10.217  0.4360  1.3253 -0.8678
 5552TIP3    H240852   0.799   7.523  10.238  0.8576 -0.9271 -1.7295
 5553TIP3   OH240853   5.341   6.068  11.211  0.3495 -0.1718 -0.6924
 5553TIP3    H140854   5.368   6.130  11.278 -0.4955 -1.1343  0.6020
 5553TIP3    H240855   5.249   6.048  11.232  0.1356 -0.6879 -1.9966
 5554TIP3   OH240856   6.842   0.384  10.147  0.4523  0.0521  0.2059
 5554TIP3    H140857   6.880   0.399  10.061 -0.4399 -1.0536 -0.3874
 5554TIP3    H240858   6.784   0.309  10.136 -1.0047  0.9553  1.3647
 5555TIP3   OH240859   4.215   5.663  11.814  0.1955 -0.2610 -0.5123
 5555TIP3    H140860   4.224   5.622  11.900  1.3868  0.0102 -0.4941
 5555TIP3    H240861   4.298   5.708  11.799 -0.3198  0.4495 -1.4214
 5556TIP3   OH240862   4.996   7.002  10.962  0.1793  0.3812  0.3707
 5556TIP3    H140863   5.058   7.045  10.904  0.6324 -0.3819  0.2782
 5556TIP3    H240864   4.916   6.994  10.911  0.0387  1.2426  0.4427
 5557TIP3   OH240865   7.040   3.816  11.030  1.0699  0.3124  0.0069
 5557TIP3    H140866   7.075   3.851  10.948  2.1284  0.3704  0.4644
 5557TIP3    H240867   7.032   3.892  11.087 -0.3061  0.3771 -0.2387
 5558TIP3   OH240868   2.629   0.908  11.426 -0.8374  0.1933  0.0122
 5558TIP3    H140869   2.555   0.894  11.486 -0.2540 -0.5523  0.5793
 5558TIP3    H240870   2.596   0.971  11.362 -2.6078 -1.5540 -0.8867
 5559TIP3   OH240871   6.684   1.581  11.625  0.0887 -0.9762 -1.1714
 5559TIP3    H140872   6.603   1.538  11.654 -0.2994 -0.6456 -1.7554
 5559TIP3    H240873   6.668   1.602  11.533  0.7835 -0.7694 -1.2440
 5560TIP3   OH240874   4.885   3.879  11.991 -0.0922  0.3572  0.4438
 5560TIP3    H140875   4.917   3.868  12.081  1.6308 -2.8344 -0.4037
 5560TIP3    H240876   4.801   3.834  11.989  1.5021 -2.9011 -0.2152
 5561TIP3   OH240877   5.562   1.022  10.208 -0.1731  0.0217 -0.1590
 5561TIP3    H140878   5.595   1.091  10.151 -0.7359 -0.3539 -0.9683
 5561TIP3    H240879   5.545   1.066  10.292  0.7107  0.5683 -0.2537
 5562TIP3   OH240880   5.389   2.898  11.119  0.4238 -0.0574  0.2169
 5562TIP3    H140881   5.327   2.872  11.050  2.2936 -1.5122 -1.0182
 5562TIP3    H240882   5.377   2.832  11.188  0.8751 -0.6214 -0.2268
 5563TIP3   OH240883   7.424   6.985  12.534  0.0600 -0.4267 -0.3674
 5563TIP3    H140884   7.480   7.063  12.531 -2.0187  1.3104  1.9303
 5563TIP3    H240885   7.363   7.002  12.606 -2.8898 -2.5202 -2.1324
 5564TIP3   OH240886   6.994   2.757  10.168  0.2794 -0.4109 -0.2719
 5564TIP3    H140887   6.990   2.748  10.264  0.2482  1.2155 -0.0905
 5564TIP3    H240888   6.964   2.672  10.135 -0.4526 -0.7513  1.1636
 5565TIP3   OH240889   4.878   5.013  11.945 -0.0042 -0.6572 -0.4743
 5565TIP3    H140890   4.925   4.961  11.880  1.2490 -1.3327  0.8975
 5565TIP3    H240891   4.938   5.084  11.967 -0.0064 -0.9729  0.6058
 5566TIP3   OH240892   3.006   4.814  10.774  0.2885 -0.6244 -0.3067
 5566TIP3    H140893   3.005   4.897  10.727 -0.2654 -0.3136  0.2388
 5566TIP3    H240894   2.914   4.799  10.797  0.4376 -1.2054 -0.0866
 5567TIP3   OH240895   7.595   3.357  11.628 -0.1449 -0.2170  0.2706
 5567TIP3    H140896   7.675   3.312  11.601  0.6952  1.1937  0.3124
 5567TIP3    H240897   7.525   3.300  11.599  0.8644 -1.3244 -0.0886
 5568TIP3   OH240898   1.713   6.732  10.971  0.0781  0.3969 -0.3208
 5568TIP3    H140899   1.682   6.819  10.997  0.3708  0.7728 -1.1843
 5568TIP3    H240900   1.661   6.710  10.894  0.6892  0.2493 -0.7018
 5569TIP3   OH240901   3.902   6.219  11.212  0.3090  0.4032 -0.7893
 5569TIP3    H140902   3.993   6.242  11.197  0.7123 -0.6391 -0.0219
 5569TIP3    H240903   3.903   6.125  11.231 -1.0154  0.1935 -1.5858
 5570TIP3   OH240904   6.967   4.845  11.565 -0.5971  0.3493  0.2064
 5570TIP3    H140905   6.988   4.759  11.601  0.3440  1.5080  2.6782
 5570TIP3    H240906   7.013   4.907  11.622 -1.2488  2.5166 -1.4563
 5571TIP3   OH240907   6.613   2.097  10.605 -0.3099 -0.6336  0.2290
 5571TIP3    H140908   6.540   2.036  10.608  1.6202 -3.2353 -1.1546
 5571TIP3    H240909   6.605   2.140  10.520  0.8667 -2.5498 -0.9181
 5572TIP3   OH240910   0.865   1.667  11.423 -0.1280 -0.0088 -0.0211
 5572TIP3    H140911   0.791   1.609  11.439  0.0353 -0.0745  0.5134
 5572TIP3    H240912   0.833   1.729  11.357 -0.5818 -0.1761  0.0398
 5573TIP3   OH240913   2.929   6.402  11.162  0.3248  0.0302  0.9040
 5573TIP3    H140914   2.949   6.470  11.226  0.6808  2.6785 -1.7844
 5573TIP3    H240915   2.995   6.335  11.176  2.5886  2.1665  1.1154
 5574TIP3   OH240916   0.601   4.616  10.091  0.3825 -0.5037  0.7444
 5574TIP3    H140917   0.651   4.618  10.172  0.7286 -1.3210  0.5559
 5574TIP3    H240918   0.637   4.542  10.042 -1.5145 -1.6070  0.9353
 5575TIP3   OH240919   1.464   0.255  12.780 -0.3300 -0.0326 -0.4359
 5575TIP3    H140920   1.517   0.329  12.808 -0.3453 -0.0434 -0.3803
 5575TIP3    H240921   1.406   0.292  12.713  0.8468 -0.3631 -1.6692
 5576TIP3   OH240922   2.552   5.577   9.927  1.1576 -0.2420 -0.1438
 5576TIP3    H140923   2.571   5.484   9.936  1.9373 -0.1065 -0.3008
 5576TIP3    H240924   2.634   5.621   9.952 -0.4624  0.6241  4.4676
 5577TIP3   OH240925   6.979   6.472  10.900  0.8616  0.0400  1.1683
 5577TIP3    H140926   6.903   6.473  10.958  0.0670 -1.7669  0.2134
 5577TIP3    H240927   6.972   6.553  10.850 -1.6541 -1.0308 -0.3766
 5578TIP3   OH240928   7.554   7.329  12.266  0.0363  0.0487  0.0626
 5578TIP3    H140929   7.512   7.278  12.197 -0.3772  0.3992  0.0467
 5578TIP3    H240930   7.525   7.419  12.249 -1.6258 -0.1010  1.7881
 5579TIP3   OH240931   2.391   3.267  11.330 -0.2536 -0.2324  0.1710
 5579TIP3    H140932   2.307   3.275  11.285  0.7449 -2.1615 -2.2162
 5579TIP3    H240933   2.446   3.217  11.271  1.4175 -2.3775  3.2681
 5580TIP3   OH240934   2.616   0.501  10.870  0.3763 -0.3415 -0.2730
 5580TIP3    H140935   2.695   0.479  10.918  1.5417 -0.3450 -2.0668
 5580TIP3    H240936   2.589   0.419  10.828 -0.7986 -0.4177  0.5831
 5581TIP3   OH240937   2.468   0.292   9.839  0.0772  0.1818  0.3369
 5581TIP3    H140938   2.509   0.223   9.787 -2.1697 -0.1916 -1.0605
 5581TIP3    H240939   2.475   0.261   9.930  0.3280 -1.2058 -0.1327
 5582TIP3   OH240940   6.891   2.704  10.710 -0.2038  0.4670  0.5082
 5582TIP3    H140941   6.948   2.633  10.681  0.2197  0.7109  0.7419
 5582TIP3    H240942   6.879   2.689  10.804  0.2762  0.9678  0.6564
 5583TIP3   OH240943   1.228   1.790   9.703  0.1997  0.4197  0.0241
 5583TIP3    H140944   1.166   1.863   9.704 -0.2419  0.0884 -1.5644
 5583TIP3    H240945   1.261   1.787   9.614  1.6406 -0.1595  0.5510
 5584TIP3   OH240946   0.150   1.129  11.588 -0.0735  0.4013  0.1763
 5584TIP3    H140947   0.167   1.194  11.657 -2.5235  0.2051  1.0759
 5584TIP3    H240948   0.103   1.059  11.633 -0.0549 -0.6401 -1.3674
 5585TIP3   OH240949   4.457   0.945  10.466  0.1772  0.1086  0.5031
 5585TIP3    H140950   4.410   0.909  10.390  1.2854 -0.1302 -0.0960
 5585TIP3    H240951   4.548   0.949  10.437  0.7427 -0.6713  2.0790
 5586TIP3   OH240952   1.192   7.583   9.824 -0.8355 -0.0505 -0.2464
 5586TIP3    H140953   1.134   7.565   9.899  1.0255 -2.4440  0.7652
 5586TIP3    H240954   1.144   7.551   9.748 -0.8010 -2.3340  0.6177
 5587TIP3   OH240955   7.283   1.664  11.696  0.8074  0.1852  0.0119
 5587TIP3    H140956   7.225   1.658  11.620 -0.4293  0.7458  0.8747
 5587TIP3    H240957   7.371   1.648  11.661  0.2882  0.5720 -1.5452
 5588TIP3   OH240958   7.332   0.389  12.057 -0.2118 -0.5534  0.1357
 5588TIP3    H140959   7.251   0.381  12.107 -0.6090  2.1377  0.0412
 5588TIP3    H240960   7.330   0.313  11.998 -2.5796 -0.6537  0.2386
 5589TIP3   OH240961   6.133   7.066  11.564 -0.0355 -0.3279  0.1395
 5589TIP3    H140962   6.205   7.116  11.603 -2.1572  2.6084  0.6129
 5589TIP3    H240963   6.165   7.042  11.477  0.2052  4.7682 -1.5464
 5590TIP3   OH240964   6.617   1.922  12.556  0.2272  0.2780 -0.0260
 5590TIP3    H140965   6.534   1.874  12.560  0.9003 -0.9275 -0.0388
 5590TIP3    H240966   6.592   2.014  12.566 -1.1677 -0.0019 -0.6836
 5591TIP3   OH240967   6.597   3.614  12.080 -0.9291  0.3855  0.0996
 5591TIP3    H140968   6.578   3.529  12.038 -1.5481  0.7334 -0.3394
 5591TIP3    H240969   6.691   3.613  12.094 -0.9267 -0.3680  0.0692
 5592TIP3   OH240970   7.526   0.161  10.412 -0.1649 -0.2877 -0.7729
 5592TIP3    H140971   7.526   0.256  10.423  0.7023 -0.3611  0.0008
 5592TIP3    H240972   7.433   0.137  10.411 -0.4372  0.2103  2.5744
 5593TIP3   OH240973   1.652   6.075  11.990 -0.0692 -0.4830 -0.5296
 5593TIP3    H140974   1.626   6.091  11.899  0.0784  3.6299 -0.0637
 5593TIP3    H240975   1.748   6.081  11.989 -0.1218  0.8833 -0.0033
 5594TIP3   OH240976   2.561   7.600  12.221 -1.0135  0.2727  0.9421
 5594TIP3    H140977   2.517   7.521  12.252 -1.0050  0.1397  0.6181
 5594TIP3    H240978   2.644   7.569  12.184 -1.1335  0.4016  0.5615
 5595TIP3   OH240979   2.159   6.605  10.181 -0.0176 -0.0790 -0.3029
 5595TIP3    H140980   2.125   6.663  10.114 -0.0792  0.3616  0.1080
 5595TIP3    H240981   2.195   6.663  10.248  0.0984 -0.5117  0.0180
 5596TIP3   OH240982   2.380   3.377  12.855  0.3756  0.4625  0.2173
 5596TIP3    H140983   2.404   3.389  12.763  2.7343  2.1171  0.9490
 5596TIP3    H240984   2.423   3.295  12.880  1.5127  1.0835  0.3518
 5597TIP3   OH240985   0.661   5.059  12.046 -0.5759 -0.1935 -0.1983
 5597TIP3    H140986   0.679   5.074  11.953 -2.0204  0.0410 -0.4683
 5597TIP3    H240987   0.729   5.108  12.092 -1.1157  1.5399 -1.1355
 5598TIP3   OH240988   1.967   3.036  10.492 -0.1990 -0.3953 -0.1431
 5598TIP3    H140989   2.005   3.122  10.509 -0.9290  0.2897 -1.7772
 5598TIP3    H240990   1.992   2.984  10.568  3.2313  0.2398 -0.6749
 5599TIP3   OH240991   2.750   0.092  10.814 -0.1459 -0.6036  0.4492
 5599TIP3    H140992   2.706   0.167  10.772 -0.6000 -0.8173  0.5382
 5599TIP3    H240993   2.709   0.087  10.901  1.6683  0.6376  1.4507
 5600TIP3   OH240994   5.330   3.112  11.616  0.0407 -0.2056  0.0306
 5600TIP3    H140995   5.320   3.134  11.708 -0.7349 -1.7011  0.3181
 5600TIP3    H240996   5.263   3.047  11.599  0.7711 -0.6288 -1.3708
 5601TIP3   OH240997   6.344   3.067  11.035  0.4493  0.3812  0.0422
 5601TIP3    H140998   6.297   3.151  11.040  1.4155  1.1560 -2.5183
 5601TIP3    H240999   6.279   3.002  11.059 -0.9399  1.7017  0.0171
 5602TIP3   OH241000   7.542   0.836  10.545 -0.2209 -0.7439 -0.0659
 5602TIP3    H141001   7.457   0.834  10.590 -0.9376 -2.3085 -1.3988
 5602TIP3    H241002   7.527   0.889  10.467  0.5111  0.3535  0.5040
 5603TIP3   OH241003   5.295   6.940  10.531  0.3320 -0.2392  0.3259
 5603TIP3    H141004   5.229   7.002  10.560  0.1921  0.4935 -1.4534
 5603TIP3    H241005   5.249   6.856  10.528 -0.6115  0.2970 -1.0793
 5604TIP3   OH241006   0.389   4.105  11.142  0.0559 -0.6072 -0.5228
 5604TIP3    H141007   0.296   4.099  11.120 -0.0074  1.4185 -0.9647
 5604TIP3    H241008   0.427   4.025  11.105 -1.5778 -1.7654  0.1886
 5605TIP3   OH241009   3.390   0.487  12.485  0.1320  0.2232  0.5515
 5605TIP3    H141010   3.481   0.460  12.495  0.2720 -0.5502 -2.0906
 5605TIP3    H241011   3.391   0.582  12.496  1.3401  0.2685  0.1853
 5606TIP3   OH241012   1.870   7.291  10.463 -0.0610 -0.0242 -0.4906
 5606TIP3    H141013   1.865   7.274  10.369 -0.2605  0.5406 -0.5838
 5606TIP3    H241014   1.924   7.220  10.497 -0.6137 -0.6602 -0.9151
 5607TIP3   OH241015   7.210   1.423  10.673 -0.0073  0.0324 -0.0718
 5607TIP3    H141016   7.250   1.438  10.758 -0.4503 -0.7768  0.2835
 5607TIP3    H241017   7.173   1.335  10.678 -4.8976  1.8084  0.8952
 5608TIP3   OH241018   7.500   7.612  12.267  0.2076  0.3700 -0.1638
 5608TIP3    H141019   7.573   7.631  12.209 -0.3464  0.0443 -0.9943
 5608TIP3    H241020   7.462   7.697  12.287 -1.1517  0.3564 -2.3808
 5609TIP3   OH241021   7.565   3.260  11.876 -0.0184  0.0270  0.3898
 5609TIP3    H141022   7.573   3.339  11.822 -2.2024  1.0929  1.5213
 5609TIP3    H241023   7.630   3.272  11.946  1.9185 -0.7683 -1.1496
 5610TIP3   OH241024   7.464   4.474  11.344 -0.2145 -0.2758 -0.1917
 5610TIP3    H141025   7.492   4.560  11.313 -0.2297  0.3813  1.5008
 5610TIP3    H241026   7.370   4.471  11.325  0.0405 -0.4841 -1.4693
 5611TIP3   OH241027   1.150   6.554  11.333  0.2940 -0.1028 -0.1844
 5611TIP3    H141028   1.107   6.617  11.275 -0.8563 -1.9862 -1.4924
 5611TIP3    H241029   1.090   6.543  11.406 -0.9704 -1.7826 -1.3916
 5612TIP3   OH241030   4.966   5.665  12.197 -0.0284 -0.2757  0.2632
 5612TIP3    H141031   5.049   5.644  12.240 -0.3811 -0.8191  0.6995
 5612TIP3    H241032   4.937   5.746  12.239 -0.5787 -1.0224  1.3868
 5613TIP3   OH241033   4.432   5.896  11.712 -0.3253  0.3602  0.3416
 5613TIP3    H141034   4.443   5.813  11.665 -1.7214  0.1551  0.3159
 5613TIP3    H241035   4.515   5.942  11.700  0.0096 -0.4765 -0.7417
 5614TIP3   OH241036   7.170   5.768  10.858  0.0641  0.0412  0.7646
 5614TIP3    H141037   7.213   5.698  10.908 -0.3652 -0.7367  0.0722
 5614TIP3    H241038   7.079   5.739  10.851  0.3438 -0.4791 -1.4544
 5615TIP3   OH241039   7.117   3.343  10.710 -0.3429  0.2268  0.2673
 5615TIP3    H141040   7.130   3.311  10.621  2.9639  0.6582  0.4738
 5615TIP3    H241041   7.028   3.317  10.732 -0.4892 -1.8727 -2.3268
 5616TIP3   OH241042   6.842   1.924  12.687 -0.1060 -0.7354 -0.2632
 5616TIP3    H141043   6.847   1.839  12.731  1.9496 -0.7007 -0.2930
 5616TIP3    H241044   6.778   1.912  12.618 -0.2486 -2.0952  0.0741
 5617TIP3   OH241045   4.256   5.003  11.146 -0.1795  0.0065  0.5487
 5617TIP3    H141046   4.341   5.019  11.187 -0.4348  1.0096  0.7005
 5617TIP3    H241047   4.225   4.922  11.186  0.5215 -0.1491  0.7893
 5618TIP3   OH241048   6.981   5.679  10.048 -0.2567 -0.0856  0.1082
 5618TIP3    H141049   7.027   5.596  10.054 -0.3692 -0.4724 -2.8726
 5618TIP3    H241050   6.915   5.675  10.118  0.7176 -1.8227  0.9830
 5619TIP3   OH241051   6.074   4.233  10.822  0.6856 -0.5048  0.1408
 5619TIP3    H141052   6.049   4.320  10.791 -0.3728 -0.4318  1.1298
 5619TIP3    H241053   5.991   4.190  10.842  1.2300 -1.4661  0.3852
 5620TIP3   OH241054   5.816   2.063  11.442 -0.3085  0.2341  0.5135
 5620TIP3    H141055   5.859   1.978  11.429  0.6988  0.7245  0.5418
 5620TIP3    H241056   5.883   2.117  11.484 -0.3624  1.5522 -1.0132
 5621TIP3   OH241057   4.040   5.821  10.700  0.0166  0.2965 -0.6715
 5621TIP3    H141058   4.067   5.729  10.702  0.3838  0.3833  2.4545
 5621TIP3    H241059   4.100   5.863  10.638  2.0652 -0.9717  0.3585
 5622TIP3   OH241060   3.191   5.886  12.743  0.4537 -0.5520  0.1021
 5622TIP3    H141061   3.191   5.971  12.786 -1.4218 -1.2806  1.7005
 5622TIP3    H241062   3.136   5.899  12.665  2.7265  0.4192 -1.4256
 5623TIP3   OH241063   2.800   5.896  11.813 -0.3990 -0.5126  0.5310
 5623TIP3    H141064   2.819   5.937  11.728  0.2578  0.3571  1.0834
 5623TIP3    H241065   2.722   5.844  11.797  0.1624 -1.0005 -0.8151
 5624TIP3   OH241066   3.337   3.100  10.543 -0.2851  0.7203  0.5092
 5624TIP3    H141067   3.345   3.018  10.495 -0.9159  1.0092 -0.1080
 5624TIP3    H241068   3.420   3.108  10.591  1.3783  1.5250 -2.2759
 5625TIP3   OH241069   5.310   3.448  11.457  0.0140  0.0682  0.2479
 5625TIP3    H141070   5.278   3.377  11.402 -0.0751 -0.6388  1.1773
 5625TIP3    H241071   5.268   3.527  11.422  0.4400 -0.2641 -1.0558
 5626TIP3   OH241072   6.680   4.560  11.624 -0.2924  0.2586 -0.1690
 5626TIP3    H141073   6.589   4.563  11.653 -0.1641 -0.0167  0.2768
 5626TIP3    H241074   6.716   4.482  11.667 -0.6131 -1.3709 -2.6263
 5627TIP3   OH241075   5.516   3.489  10.551 -0.4614  0.0328 -0.2228
 5627TIP3    H141076   5.534   3.396  10.558  0.4803  0.1984 -0.2513
 5627TIP3    H241077   5.521   3.522  10.641 -0.3462  0.1320 -0.2654
 5628TIP3   OH241078   1.830   2.906  11.280 -0.1058 -0.3497  0.0152
 5628TIP3    H141079   1.841   2.987  11.328 -0.0153 -0.2359 -0.1942
 5628TIP3    H241080   1.766   2.927  11.211  1.6504  0.2063 -1.5156
 5629TIP3   OH241081   2.322   0.442  10.772  0.3314 -0.1004 -0.4172
 5629TIP3    H141082   2.287   0.460  10.859 -0.3224 -2.2450 -0.1739
 5629TIP3    H241083   2.306   0.522  10.722 -2.1770  0.0743  0.5577
 5630TIP3   OH241084   3.983   1.871  10.858 -0.1060  0.2857 -0.3627
 5630TIP3    H141085   3.949   1.958  10.878  2.0815  0.8211  1.4936
 5630TIP3    H241086   3.983   1.825  10.942  0.7746 -0.7324 -0.8884
 5631TIP3   OH241087   6.712   1.887   9.997 -0.2737 -0.2021 -0.2240
 5631TIP3    H141088   6.768   1.964  10.000 -0.3431 -0.1859  1.8598
 5631TIP3    H241089   6.686   1.872  10.087 -2.1344 -1.3234 -0.8867
 5632TIP3   OH241090   4.547   3.624  12.134  0.0266 -0.6631 -0.5132
 5632TIP3    H141091   4.505   3.571  12.066 -1.9436  2.0496 -1.5888
 5632TIP3    H241092   4.563   3.708  12.092  0.8795  0.3805  1.7639
 5633TIP3   OH241093   3.756   1.250  11.244 -0.3446 -0.2099  0.3259
 5633TIP3    H141094   3.792   1.334  11.272 -0.8783 -0.3040  1.3212
 5633TIP3    H241095   3.673   1.272  11.203 -1.0594 -0.3435  1.6670
 5634TIP3   OH241096   3.933   2.102  10.490 -0.9172  0.0199 -0.3237
 5634TIP3    H141097   3.999   2.033  10.502  0.4243  1.3606  0.3912
 5634TIP3    H241098   3.934   2.150  10.573 -0.7557  1.7822 -1.3115
 5635TIP3   OH241099   2.254   1.854  10.823  0.3400  0.1142  0.3915
 5635TIP3    H141100   2.202   1.843  10.743 -1.0165 -0.2493  1.2754
 5635TIP3    H241101   2.322   1.787  10.817  0.1883  0.0288 -0.4208
 5636TIP3   OH241102   3.047   4.642  11.024  0.1179  0.0911 -0.1581
 5636TIP3    H141103   3.098   4.709  11.069  1.6153 -1.0995  0.0155
 5636TIP3    H241104   3.042   4.671  10.933 -0.7448  1.2621  0.2400
 5637TIP3   OH241105   0.767   2.056  12.252  0.1611 -0.0791 -0.7917
 5637TIP3    H141106   0.773   1.987  12.318  1.1691  2.0121  1.4936
 5637TIP3    H241107   0.840   2.039  12.193 -0.0705 -1.3750 -0.7376
 5638TIP3   OH241108   1.184   7.009  11.100  0.3081 -0.2232 -0.0680
 5638TIP3    H141109   1.256   6.990  11.160 -0.0636  0.3728  0.5757
 5638TIP3    H241110   1.227   7.050  11.024  0.7273 -0.5876 -0.0333
 5639TIP3   OH241111   4.091   6.691  12.571 -0.0304  0.1799 -0.1691
 5639TIP3    H141112   4.109   6.599  12.590  1.2072  0.2460 -0.9327
 5639TIP3    H241113   4.084   6.695  12.475 -1.0534  0.7269 -0.0949
 5640TIP3   OH241114   0.168   0.238  12.365  0.0770 -0.3630 -0.0612
 5640TIP3    H141115   0.099   0.228  12.299  0.8553 -0.8168 -0.8236
 5640TIP3    H241116   0.138   0.312  12.418 -1.2725 -0.9020 -0.0147
 5641TIP3   OH241117   4.338   0.176  11.049  0.0139  0.3934  0.3963
 5641TIP3    H141118   4.324   0.175  11.144  0.4326 -0.7213  0.4583
 5641TIP3    H241119   4.433   0.187  11.039 -0.1989  2.2937  0.0600
 5642TIP3   OH241120   6.026   2.632  11.419  0.5246  0.1652  0.0982
 5642TIP3    H141121   6.069   2.717  11.410 -0.5505  0.7801  0.5209
 5642TIP3    H241122   6.007   2.625  11.513  3.7173 -2.1495  0.7437
 5643TIP3   OH241123   3.285   5.481  11.943  0.1785  0.0054 -0.1482
 5643TIP3    H141124   3.229   5.473  12.020  0.5529  0.5036  0.1816
 5643TIP3    H241125   3.319   5.570  11.947  2.1237 -0.7117  0.4496
 5644TIP3   OH241126   6.253   2.317  11.798 -0.8757 -0.0534  0.2024
 5644TIP3    H141127   6.301   2.273  11.728 -0.7678  0.5080 -0.0787
 5644TIP3    H241128   6.225   2.246  11.856 -0.0088 -0.4164  0.1884
 5645TIP3   OH241129   6.427   6.428  11.591 -0.4275  0.2676  0.2128
 5645TIP3    H141130   6.493   6.368  11.625 -1.1184 -0.0827  0.9666
 5645TIP3    H241131   6.455   6.446  11.501  1.9427  1.9473  1.1782
 5646TIP3   OH241132   2.736   7.629  10.559 -0.4806 -0.2301 -0.2365
 5646TIP3    H141133   2.655   7.666  10.523 -0.0693  1.0634  0.0960
 5646TIP3    H241134   2.731   7.648  10.653  0.1176 -0.2942 -0.1852
 5647TIP3   OH241135   0.810   2.166   9.974 -0.1345 -0.3932 -0.3445
 5647TIP3    H141136   0.730   2.183   9.923 -0.5663  1.9611  1.0037
 5647TIP3    H241137   0.778   2.124  10.054 -0.1175  0.9518  0.3919
 5648TIP3   OH241138   5.182   5.589  12.337  0.3497 -0.5116  0.3135
 5648TIP3    H141139   5.145   5.533  12.405 -0.4348 -0.2984  0.0683
 5648TIP3    H241140   5.275   5.567  12.336  0.7626  0.7961  2.7351
 5649TIP3   OH241141   2.199   5.170  10.333 -0.0148 -0.2891  0.0769
 5649TIP3    H141142   2.126   5.115  10.305 -0.1332  1.6185 -4.0915
 5649TIP3    H241143   2.275   5.112  10.330 -0.8280 -1.4749  1.1912
 5650TIP3   OH241144   2.253   3.687  10.580 -0.0786 -0.1390 -0.1812
 5650TIP3    H141145   2.195   3.715  10.510 -1.3391  0.0625  0.8926
 5650TIP3    H241146   2.329   3.744  10.573 -0.5074  0.3615 -0.9285
 5651TIP3   OH241147   2.014   2.223  12.374 -0.8698 -0.5617  0.5295
 5651TIP3    H141148   1.937   2.226  12.318 -0.0800 -0.6071 -0.6012
 5651TIP3    H241149   2.060   2.305  12.356  0.8393 -1.7694 -1.0876
 5652TIP3   OH241150   6.236   4.096  11.968  0.2270 -0.1712  0.6087
 5652TIP3    H141151   6.262   4.018  11.919  1.6911  0.3080  0.5711
 5652TIP3    H241152   6.227   4.065  12.058  0.6712 -0.4264  0.5724
 5653TIP3   OH241153   5.114   2.936  11.608 -0.5827  0.0286 -0.1759
 5653TIP3    H141154   5.069   3.011  11.567 -0.2786  0.9484  1.1240
 5653TIP3    H241155   5.070   2.925  11.692  0.7302  0.0817  0.5398
 5654TIP3   OH241156   6.836   3.756  10.605  0.5284  0.4954  0.1238
 5654TIP3    H141157   6.789   3.674  10.592  0.4001  0.5392  0.2990
 5654TIP3    H241158   6.793   3.797  10.680  0.6880  0.6523  0.1321
 5655TIP3   OH241159   1.074   3.948  10.892  0.5828 -0.5777  0.2368
 5655TIP3    H141160   1.119   3.880  10.943  4.7968  1.4009 -0.3932
 5655TIP3    H241161   1.080   3.917  10.801  1.6843  0.1020  0.0514
 5656TIP3   OH241162   6.521   0.618  10.486 -0.1036  0.3050 -0.3304
 5656TIP3    H141163   6.586   0.549  10.503  0.3613  0.8441  0.1364
 5656TIP3    H241164   6.502   0.655  10.572 -0.3246  0.7714 -0.5748
 5657TIP3   OH241165   7.639   2.066  11.076  0.0798 -0.0321  0.6031
 5657TIP3    H141166   7.564   2.077  11.135 -0.3355  3.8027 -0.3701
 5657TIP3    H241167   7.644   2.148  11.028  4.3751 -0.4838 -0.1085
 5658TIP3   OH241168   2.557   4.111  10.522  0.2149  0.1610 -0.0053
 5658TIP3    H141169   2.640   4.159  10.514  0.1189  0.2642 -0.4169
 5658TIP3    H241170   2.510   4.156  10.593  0.5816 -0.0036  0.3400
 5659TIP3   OH241171   1.936   7.325  11.686  0.0096 -0.1528 -0.8578
 5659TIP3    H141172   1.956   7.238  11.721 -1.1158 -0.4858 -1.0192
 5659TIP3    H241173   2.008   7.380  11.717 -0.0430 -0.8140  0.5116
 5660TIP3   OH241174   6.580   4.297  11.361  0.3703  0.5977 -0.2303
 5660TIP3    H141175   6.604   4.230  11.297  0.5365 -0.5266  0.9622
 5660TIP3    H241176   6.652   4.360  11.358  0.1883  0.7638 -1.4093
 5661TIP3   OH241177   3.832   3.031  10.300  0.7257 -0.1749 -0.1686
 5661TIP3    H141178   3.771   2.975  10.253 -0.2741  0.1988  0.6571
 5661TIP3    H241179   3.812   3.017  10.392 -0.0722  2.0886  0.0640
 5662TIP3   OH241180   0.632   1.504  10.194  0.2948  0.1136 -0.3898
 5662TIP3    H141181   0.542   1.519  10.165 -1.0446  0.2260  3.2622
 5662TIP3    H241182   0.665   1.592  10.216  1.1623  0.0278 -1.2977
 5663TIP3   OH241183   6.376   6.167  10.598  0.4195 -0.1279 -0.3214
 5663TIP3    H141184   6.411   6.229  10.534  0.5599 -0.4904 -0.6042
 5663TIP3    H241185   6.435   6.091  10.592 -1.6092 -1.7289 -2.4607
 5664TIP3   OH241186   1.778   7.459  10.805  0.1257  0.0393 -0.4227
 5664TIP3    H141187   1.846   7.391  10.808 -0.5491 -0.6264  1.7608
 5664TIP3    H241188   1.718   7.430  10.736  0.0700 -1.4269  0.1944
 5665TIP3   OH241189   3.947   5.786  10.333  0.1630 -0.0335  0.1881
 5665TIP3    H141190   3.882   5.716  10.327  0.0110  0.2054 -1.9651
 5665TIP3    H241191   4.030   5.740  10.347  0.0572 -0.6925 -1.1487
 5666TIP3   OH241192   1.313   2.402  11.222 -0.6140 -0.6121 -0.6506
 5666TIP3    H141193   1.263   2.353  11.156  1.2584 -1.9398 -1.1714
 5666TIP3    H241194   1.278   2.491  11.217 -1.2472 -0.9164 -2.7213
 5667TIP3   OH241195   5.730   0.250  10.008 -0.0316  0.0266 -0.4213
 5667TIP3    H141196   5.637   0.251   9.986  0.0361  1.4798 -0.7652
 5667TIP3    H241197   5.733   0.283  10.098 -0.1014 -3.4910  1.0246
 5668TIP3   OH241198   1.553   0.209   9.954 -0.7835 -0.3504  0.2963
 5668TIP3    H141199   1.459   0.192   9.947 -0.7749  0.1610 -1.4484
 5668TIP3    H241200   1.561   0.303   9.937 -0.1274  0.0965  2.6328
 5669TIP3   OH241201   1.136   1.686  12.780  0.2073 -0.6026  0.2203
 5669TIP3    H141202   1.231   1.684  12.792  0.3498  1.8476  0.0389
 5669TIP3    H241203   1.103   1.730  12.858 -0.7750 -1.2093  0.1681
 5670TIP3   OH241204   3.001   3.090  12.214  0.5157 -0.3219  0.1391
 5670TIP3    H141205   3.055   3.168  12.226  2.9590 -2.0662  1.4179
 5670TIP3    H241206   3.004   3.074  12.120  1.2016  0.3291  0.0361
 5671TIP3   OH241207   7.216   6.068  11.525  0.4221 -0.0755  0.0954
 5671TIP3    H141208   7.220   6.115  11.441 -2.7024 -0.7325 -0.5645
 5671TIP3    H241209   7.229   5.977  11.501  0.5274 -0.1605  0.4815
 5672TIP3   OH241210   6.062   4.857  11.641  0.5784 -0.3688 -0.0853
 5672TIP3    H141211   6.057   4.763  11.623  1.5769 -0.6728  1.0761
 5672TIP3    H241212   6.149   4.882  11.609  1.1614 -0.3072  1.4728
 5673TIP3   OH241213   2.114   5.634  10.570  0.3187  0.2194 -0.4022
 5673TIP3    H141214   2.040   5.597  10.618  2.3412 -0.8988  2.0438
 5673TIP3    H241215   2.080   5.717  10.535 -2.1042 -0.3219  0.4417
 5674TIP3   OH241216   7.075   4.929  12.011  0.5236  0.2847 -0.2096
 5674TIP3    H141217   7.104   5.011  12.052  0.5761 -0.1488  0.6411
 5674TIP3    H241218   7.102   4.861  12.072  0.3693 -0.3640 -0.8533
 5675TIP3   OH241219   2.999   5.703  11.889  0.6431  0.2914 -0.6211
 5675TIP3    H141220   3.057   5.697  11.965  0.6520 -0.1742 -0.6570
 5675TIP3    H241221   2.949   5.783  11.902  0.5207  0.1233 -0.0317
 5676TIP3   OH241222   6.250   0.430  11.264  0.7046  0.2765  0.0707
 5676TIP3    H141223   6.267   0.350  11.314  1.1242  0.8715  0.8897
 5676TIP3    H241224   6.335   0.474  11.259  0.7041  0.1745 -1.2847
 5677TIP3   OH241225   2.673   4.742  11.111 -0.2891 -0.6901  0.0783
 5677TIP3    H141226   2.719   4.664  11.141 -0.4615 -0.7682  0.1395
 5677TIP3    H241227   2.664   4.796  11.189  0.2768 -0.3810 -0.0638
 5678TIP3   OH241228   7.510   1.155  12.160 -0.2222  0.0263  0.5651
 5678TIP3    H141229   7.600   1.125  12.172 -0.7180 -1.5215  0.6065
 5678TIP3    H241230   7.513   1.248  12.180  1.5289  0.1851 -0.2409
 5679TIP3   OH241231   1.645   7.071  11.393 -0.0046 -0.4477  0.1453
 5679TIP3    H141232   1.716   7.011  11.368 -0.6846 -0.4375 -2.0900
 5679TIP3    H241233   1.568   7.036  11.348 -1.7523 -1.1031  3.3821
 5680TIP3   OH241234   0.702   6.969  12.561 -0.0144 -0.4708 -0.1387
 5680TIP3    H141235   0.614   6.954  12.526 -0.6390 -2.2051  1.9707
 5680TIP3    H241236   0.746   6.884  12.552  0.3818 -0.4740  1.5637
 5681TIP3   OH241237   1.821   5.233  10.150 -0.0215 -0.3628  0.5950
 5681TIP3    H141238   1.768   5.163  10.188 -0.7278  0.6086  1.4332
 5681TIP3    H241239   1.761   5.279  10.092  0.5412 -0.6538 -0.2418
 5682TIP3   OH241240   6.755   0.074   9.907  0.1253  0.1700 -0.5751
 5682TIP3    H141241   6.724   0.163   9.890 -1.4141 -0.1857  0.2581
 5682TIP3    H241242   6.720   0.022   9.835 -1.0365 -0.1884  0.2357
 5683TIP3   OH241243   1.119   2.884  11.258 -0.4121  0.2438 -0.2755
 5683TIP3    H141244   1.068   2.888  11.177 -1.0144 -0.5807  0.0490
 5683TIP3    H241245   1.149   2.974  11.272  0.0262  0.3262 -1.6087
 5684TIP3   OH241246   2.886   0.029  12.705  0.1956  0.1669 -0.3409
 5684TIP3    H141247   2.798   0.046  12.738  0.7161  0.6912  0.8374
 5684TIP3    H241248   2.918  -0.043  12.759  0.8597  0.6660 -0.0564
 5685TIP3   OH241249   3.203   6.434  11.494  0.5703  0.1727 -0.4949
 5685TIP3    H141250   3.204   6.362  11.556  0.3017  0.5209 -0.0840
 5685TIP3    H241251   3.202   6.513  11.548 -1.6817  0.4872 -0.8807
 5686TIP3   OH241252   7.439   6.937  11.378  0.7061 -0.7840  0.3231
 5686TIP3    H141253   7.427   7.025  11.342  1.4847 -1.1220 -0.8335
 5686TIP3    H241254   7.392   6.880  11.317  0.6685 -1.2203  0.7585
 5687TIP3   OH241255   0.443   5.021  12.196  0.5276  0.0387 -0.0540
 5687TIP3    H141256   0.516   5.040  12.137  0.2875 -0.1090 -0.3950
 5687TIP3    H241257   0.472   5.055  12.281  0.5936  0.8652 -0.3995
 5688TIP3   OH241258   6.447   2.182  12.016  0.0128 -0.4432 -0.3496
 5688TIP3    H141259   6.364   2.164  11.972 -0.9290 -0.4209  1.3417
 5688TIP3    H241260   6.427   2.255  12.075  1.3701 -0.1352 -0.2468
 5689TIP3   OH241261   3.061   0.539  12.554  0.5456 -0.4205 -0.0430
 5689TIP3    H141262   3.036   0.458  12.510 -1.7642  0.0289  0.3041
 5689TIP3    H241263   3.044   0.522  12.647 -1.9974  1.0409 -0.1508
 5690TIP3   OH241264   4.693   4.471  10.717 -0.0127 -0.7979 -0.4618
 5690TIP3    H141265   4.611   4.521  10.722  0.5874  0.1163  0.4798
 5690TIP3    H241266   4.668   4.382  10.744 -0.4321 -0.1810  1.3292
 5691TIP3   OH241267   0.814   7.151  10.249  0.2416 -0.1286  0.3557
 5691TIP3    H141268   0.894   7.166  10.199  0.4844  0.4937  0.9204
 5691TIP3    H241269   0.783   7.238  10.272 -1.0573 -0.3213 -0.5469
 5692TIP3   OH241270   0.397   3.784  12.127 -0.2738  0.2293 -0.1047
 5692TIP3    H141271   0.434   3.805  12.212 -1.3303 -1.7040  0.8979
 5692TIP3    H241272   0.424   3.694  12.110 -1.1710  0.1384 -1.1963
 5693TIP3   OH241273   2.666   5.046  10.513  0.2344  0.4439  0.3784
 5693TIP3    H141274   2.612   5.106  10.565 -2.3006 -2.1056  0.9411
 5693TIP3    H241275   2.710   4.992  10.579 -1.0388 -1.1691 -0.0344
 5694TIP3   OH241276   2.386   3.552  12.114  0.0132 -0.1262 -0.6204
 5694TIP3    H141277   2.360   3.593  12.197  1.2782 -1.4285  0.4802
 5694TIP3    H241278   2.450   3.612  12.076  0.5555 -0.2153  0.1218
 5695TIP3   OH241279   6.107   7.405  10.300  0.0235 -0.2458 -0.1204
 5695TIP3    H141280   6.120   7.353  10.380  0.1367  0.5047  0.3564
 5695TIP3    H241281   6.025   7.451  10.315 -0.3667 -0.7202 -0.7839
 5696TIP3   OH241282   7.188   1.160  11.504 -0.4607 -0.6808  0.2363
 5696TIP3    H141283   7.160   1.243  11.543 -0.0075 -0.7710  0.7602
 5696TIP3    H241284   7.280   1.173  11.482 -0.1675 -1.3161  1.0663
 5697TIP3   OH241285   2.976   4.452  10.384 -0.2523  0.0743 -0.9725
 5697TIP3    H141286   2.885   4.432  10.361 -0.4203 -0.5601  0.1806
 5697TIP3    H241287   2.974   4.542  10.417 -0.8402 -0.5775  0.9056
 5698TIP3   OH241288   5.225   5.614  10.430 -0.0571  0.2208 -0.4792
 5698TIP3    H141289   5.145   5.576  10.394 -1.1298  0.7935  1.1755
 5698TIP3    H241290   5.248   5.683  10.369 -0.6735 -0.1223 -1.1215
 5699TIP3   OH241291   5.218   0.541  13.082  0.0204 -0.5772 -0.2829
 5699TIP3    H141292   5.303   0.565  13.044  0.1832 -1.6518 -0.6259
 5699TIP3    H241293   5.206   0.449  13.058  0.0876 -1.2900  2.2025
 5700TIP3   OH241294   2.674   0.388  12.383  0.4663 -0.0227  0.3638
 5700TIP3    H141295   2.652   0.478  12.357  1.3518  0.1222  0.0720
 5700TIP3    H241296   2.660   0.386  12.477  0.6805  0.4942  0.4097
 5701TIP3   OH241297   2.695   6.364  11.625  0.4581  0.0930 -0.0700
 5701TIP3    H141298   2.673   6.294  11.563  0.5104  0.8540 -0.9762
 5701TIP3    H241299   2.751   6.323  11.689 -0.2175 -0.9062 -0.0944
 5702TIP3   OH241300   3.778   0.122  10.182 -0.2838  0.5505 -0.0344
 5702TIP3    H141301   3.773   0.032  10.151  0.7110  0.0561  1.2055
 5702TIP3    H241302   3.871   0.139  10.195 -0.4926  1.5771  0.2682
 5703TIP3   OH241303   7.477   1.058  11.565  0.0675 -0.2029  0.0879
 5703TIP3    H141304   7.533   1.027  11.494  0.7347  1.1797 -0.0212
 5703TIP3    H241305   7.517   1.022  11.645 -0.5996 -1.6357 -0.1891
 5704TIP3   OH241306   6.894   2.629  10.973 -0.0514 -0.0791  0.2003
 5704TIP3    H141307   6.944   2.684  11.032 -0.5705  0.1017  0.4849
 5704TIP3    H241308   6.803   2.639  11.002 -0.2949 -0.1244 -0.5203
 5705TIP3   OH241309   6.918   7.317  11.318 -0.1553 -0.4995 -0.2545
 5705TIP3    H141310   6.857   7.360  11.378 -1.5733  0.1913 -2.1047
 5705TIP3    H241311   6.930   7.230  11.354 -2.5756 -0.7856 -0.0100
 5706TIP3   OH241312   1.272   4.697  10.858 -0.0249 -0.0383  0.2770
 5706TIP3    H141313   1.343   4.736  10.806 -0.6001  0.7128  0.0264
 5706TIP3    H241314   1.263   4.755  10.934 -0.5172  0.0149  0.1855
 5707TIP3   OH241315   7.033   0.904  10.066  0.2158 -0.1919  0.1005
 5707TIP3    H141316   6.979   0.964  10.118  2.7212  1.1436  1.3811
 5707TIP3    H241317   7.045   0.828  10.123 -0.5157 -0.5993 -0.2882
 5708TIP3   OH241318   0.165   1.954  12.526 -0.2346  0.2905 -0.0228
 5708TIP3    H141319   0.107   1.973  12.452 -0.8955 -2.0180 -0.1795
 5708TIP3    H241320   0.118   1.889  12.578  0.8274  0.8129  1.6672
 5709TIP3   OH241321   5.215   1.200  10.700 -0.4847  0.5134  0.1390
 5709TIP3    H141322   5.198   1.239  10.615 -2.3493  1.3306  0.8203
 5709TIP3    H241323   5.297   1.240  10.729  0.0056  0.4547 -1.1179
 5710TIP3   OH241324   1.856   0.327  11.265  0.2862  0.1309  0.0837
 5710TIP3    H141325   1.861   0.299  11.174 -0.3840 -2.0060  0.6417
 5710TIP3    H241326   1.793   0.399  11.264  1.2964  1.0562 -1.2918
 5711TIP3   OH241327   1.689   5.593  11.757 -0.0731 -0.2285 -0.8495
 5711TIP3    H141328   1.608   5.557  11.721 -1.7542  1.2395  1.1860
 5711TIP3    H241329   1.684   5.573  11.851  1.8769  0.0450 -0.6444
 5712TIP3   OH241330   5.761   0.799  12.745  0.2646 -0.4431 -0.6224
 5712TIP3    H141331   5.721   0.712  12.740  0.7722 -0.7229 -0.0835
 5712TIP3    H241332   5.693   0.855  12.781  0.1570 -0.7768 -0.2969
 5713TIP3   OH241333   5.511   3.001  11.793  0.1907  0.2063 -0.1090
 5713TIP3    H141334   5.507   3.086  11.748  0.0850 -0.2867 -1.0584
 5713TIP3    H241335   5.444   2.948  11.749 -1.4411  0.3333  2.0102
 5714TIP3   OH241336   1.904   0.013  11.267  0.3445 -0.6246  0.0164
 5714TIP3    H141337   1.926   0.096  11.309 -2.9781  1.1211 -1.2824
 5714TIP3    H241338   1.870  -0.042  11.337  0.7484 -0.1560  0.5845
 5715TIP3   OH241339   1.506   4.030  10.352 -0.0791 -0.3627 -0.1905
 5715TIP3    H141340   1.575   3.964  10.346  0.9704  0.4735  1.6605
 5715TIP3    H241341   1.544   4.107  10.311  0.3067  0.2115  1.1660
 5716TIP3   OH241342   1.914   1.630  11.847  0.0885  0.4133  0.1035
 5716TIP3    H141343   1.978   1.641  11.777  1.8013  0.8581  1.6489
 5716TIP3    H241344   1.872   1.547  11.829  1.0612  0.1430 -1.0264
 5717TIP3   OH241345   1.236   4.205  11.462  0.0433 -0.3541  0.4193
 5717TIP3    H141346   1.158   4.256  11.439  1.4516  0.8031 -2.2213
 5717TIP3    H241347   1.257   4.234  11.551 -0.5463  2.0408 -0.1275
 5718TIP3   OH241348   1.059   1.820  11.889  0.1523 -0.0967  0.0845
 5718TIP3    H141349   0.975   1.776  11.904 -0.3190  0.8247  0.2108
 5718TIP3    H241350   1.084   1.795  11.800  0.0016 -0.7755  0.2221
 5719TIP3   OH241351   6.438   7.319  10.188 -0.2016  0.2656  0.9487
 5719TIP3    H141352   6.360   7.343  10.139 -0.9922 -0.6165  1.7463
 5719TIP3    H241353   6.500   7.390  10.170 -0.5423  0.1178 -1.0871
 5720TIP3   OH241354   6.463   7.644  10.020  0.0558  0.3176 -0.3712
 5720TIP3    H141355   6.387   7.587  10.026  0.0554  0.2833 -0.6876
 5720TIP3    H241356   6.446   7.715  10.082  0.0284  0.0061 -0.0227
 5721TIP3   OH241357   0.685   6.171  12.059 -0.8783 -0.1576  0.2043
 5721TIP3    H141358   0.649   6.196  11.974  1.7758  1.3033 -0.6325
 5721TIP3    H241359   0.651   6.236  12.120  0.1434  1.1291 -0.5398
 5722TIP3   OH241360   3.362   0.088   9.677 -0.6343 -0.0476 -0.6725
 5722TIP3    H141361   3.413   0.151   9.625 -0.6240  0.8156  0.3476
 5722TIP3    H241362   3.278   0.082   9.632 -0.0781 -0.5491 -1.6807
 5723TIP3   OH241363   1.620   0.111  10.199 -0.0226 -0.6698  0.4967
 5723TIP3    H141364   1.590   0.139  10.112  0.1158 -0.7308  0.4296
 5723TIP3    H241365   1.714   0.095  10.188  0.6194  2.0053  1.2892
 5724TIP3   OH241366   7.493   5.458  11.364 -0.3868  0.1740  0.1872
 5724TIP3    H141367   7.541   5.450  11.281  1.4158  0.3332  1.1704
 5724TIP3    H241368   7.407   5.420  11.346  0.0108  0.0921 -1.7167
 5725TIP3   OH241369   7.300   0.452  12.453  0.6062 -0.2021  0.2340
 5725TIP3    H141370   7.226   0.440  12.393 -0.7115  1.1399  1.4795
 5725TIP3    H241371   7.377   0.457  12.396 -0.5354  0.6521 -1.3195
 5726TIP3   OH241372   6.420   4.118  10.296  0.1173 -0.2670 -0.3903
 5726TIP3    H141373   6.499   4.064  10.297  1.1370  1.1466  0.8392
 5726TIP3    H241374   6.380   4.104  10.382  1.7606  2.7015  1.0010
 5727TIP3   OH241375   5.634   0.648  13.025 -0.4199  0.4704 -0.7544
 5727TIP3    H141376   5.670   0.571  12.980  0.0461 -0.4706  1.0949
 5727TIP3    H241377   5.548   0.661  12.986 -0.3161 -0.7063 -1.4352
 5728TIP3   OH241378   5.372   5.007  11.406 -0.0409  0.4783  0.5380
 5728TIP3    H141379   5.433   5.048  11.467  0.6045 -1.1079  1.0153
 5728TIP3    H241380   5.300   5.069  11.398  1.4853  2.2741  0.1858
 5729TIP3   OH241381   1.661   3.829  12.315 -0.2202 -0.2162  0.4446
 5729TIP3    H141382   1.577   3.798  12.279  0.1491 -1.2286  0.4251
 5729TIP3    H241383   1.640   3.915  12.353 -0.9439  0.2084 -0.8469
 5730TIP3   OH241384   7.022   0.304  10.876 -0.4412 -0.1009 -0.0696
 5730TIP3    H141385   7.056   0.341  10.957 -1.7471 -0.0296  0.4694
 5730TIP3    H241386   7.093   0.251  10.842 -0.3889 -1.4522  1.9770
 5731TIP3   OH241387   1.407   4.537  11.339 -0.2143  0.6717 -0.2088
 5731TIP3    H141388   1.320   4.505  11.315  0.4507 -1.0490 -0.4380
 5731TIP3    H241389   1.438   4.585  11.262 -0.2069 -0.3301 -0.8324
 5732TIP3   OH241390   1.637   1.694  10.295  0.1324  0.2933 -0.1176
 5732TIP3    H141391   1.651   1.617  10.239  1.1256  0.7463 -0.5102
 5732TIP3    H241392   1.581   1.662  10.366  0.5745 -0.8049 -0.2472
 5733TIP3   OH241393   3.014   7.134  10.281  0.3321  0.2786 -0.2207
 5733TIP3    H141394   3.022   7.052  10.330  0.7707  0.4684  0.0363
 5733TIP3    H241395   2.995   7.108  10.192 -1.9119 -0.0548  0.3035
 5734TIP3   OH241396   3.705   2.742  11.733  0.2971 -0.2666  1.1374
 5734TIP3    H141397   3.796   2.763  11.711  0.1012  3.0230  2.7887
 5734TIP3    H241398   3.654   2.772  11.658  0.4358 -0.4831  0.9542
 5735TIP3   OH241399   0.866   4.874  11.927  0.4823  0.1838 -1.0029
 5735TIP3    H141400   0.836   4.892  12.016  0.8067  0.2786 -0.9086
 5735TIP3    H241401   0.890   4.960  11.892 -2.0587  0.5191 -2.1108
 5736TIP3   OH241402   4.668   3.692  12.421 -0.1516 -0.2320 -0.2408
 5736TIP3    H141403   4.614   3.743  12.360  0.4635 -0.2574 -0.8147
 5736TIP3    H241404   4.639   3.602  12.409  2.1876 -0.7608 -2.9775
 5737TIP3   OH241405   5.820   4.910  11.790  0.4333 -0.0516 -0.8936
 5737TIP3    H141406   5.773   4.855  11.728  0.3782 -1.3786  0.2667
 5737TIP3    H241407   5.907   4.920  11.753  0.3821 -0.7755 -1.2221
 5738TIP3   OH241408   2.453   0.121  10.488  0.0179  0.2433 -0.1674
 5738TIP3    H141409   2.514   0.193  10.473 -2.3039  2.0431 -1.6463
 5738TIP3    H241410   2.482   0.053  10.427 -0.4593  1.7689 -2.1907
 5739TIP3   OH241411   0.072   0.997  10.785 -0.0591  0.5915 -0.7666
 5739TIP3    H141412   0.106   1.048  10.711 -0.2359  0.6965 -0.7758
 5739TIP3    H241413   0.110   0.910  10.773 -0.4329  0.4848 -1.2271
 5740TIP3   OH241414   3.350   3.826  10.528  0.1114 -0.1863 -0.1559
 5740TIP3    H141415   3.279   3.772  10.564 -0.1842  0.6698  0.5911
 5740TIP3    H241416   3.408   3.841  10.603 -0.8624  2.1862  0.2025
 5741TIP3   OH241417   3.442   6.237  11.292 -0.3375  0.5044 -0.2753
 5741TIP3    H141418   3.396   6.192  11.363 -0.8642  0.4887 -0.6174
 5741TIP3    H241419   3.510   6.175  11.264  0.9448  1.1565  1.2790
 5742TIP3   OH241420   6.968   1.968  10.687 -0.0757 -0.3567 -0.2985
 5742TIP3    H141421   6.937   1.967  10.596  1.3106  0.8109 -0.8274
 5742TIP3    H241422   6.889   1.980  10.739 -0.7381  0.6338 -1.4634
 5743TIP3   OH241423   2.102   1.059  17.772  0.6266 -0.7264  0.1362
 5743TIP3    H141424   2.155   0.998  17.721  0.1164 -0.6002 -0.5717
 5743TIP3    H241425   2.027   1.078  17.715  1.1676  1.1931 -0.0065
 5744TIP3   OH241426   6.060   5.157  11.864  0.1091 -0.2869  0.1459
 5744TIP3    H141427   6.077   5.077  11.915  0.3333 -0.5603 -0.3582
 5744TIP3    H241428   6.106   5.225  11.912  2.0413 -0.8831 -0.7798
 5745TIP3   OH241429   7.235   1.995  11.264  0.3310  0.3763  0.1752
 5745TIP3    H141430   7.324   2.005  11.297  0.0680  1.2608  0.6279
 5745TIP3    H241431   7.219   2.074  11.213  0.1947 -0.2866 -0.8513
 5746TIP3   OH241432   1.347   2.133  10.378  0.0131 -0.3757 -0.5707
 5746TIP3    H141433   1.256   2.151  10.355 -0.2014  0.9803  1.1505
 5746TIP3    H241434   1.364   2.047  10.341 -2.5172 -1.4695  0.5611
 5747TIP3   OH241435   6.620   5.369  10.553  0.1573  0.1789  0.1851
 5747TIP3    H141436   6.683   5.431  10.589  0.9743 -0.9144  0.6877
 5747TIP3    H241437   6.622   5.295  10.612 -1.5815  0.0800  0.1750
 5748TIP3   OH241438   3.707   3.850  11.381 -0.1830 -0.2474 -0.0441
 5748TIP3    H141439   3.651   3.789  11.334  0.4085 -1.4227  0.7323
 5748TIP3    H241440   3.791   3.805  11.388  0.4206  0.8659  0.1071
 5749TIP3   OH241441   1.893   3.535  12.538  0.4173  0.1297 -0.3976
 5749TIP3    H141442   1.820   3.522  12.477  0.4040  0.3953 -0.4397
 5749TIP3    H241443   1.879   3.470  12.606 -0.5931  1.0363  0.2928
 5750TIP3   OH241444   3.488   1.135  10.009 -0.5869 -0.4114  0.3369
 5750TIP3    H141445   3.404   1.175   9.986 -1.4893 -2.0443  0.6780
 5750TIP3    H241446   3.479   1.109  10.101  1.4631  2.1983  1.4298
 5751TIP3   OH241447   5.716   5.139  10.753 -0.4602  0.2006 -0.7215
 5751TIP3    H141448   5.696   5.117  10.844 -1.1458 -0.9411 -1.1253
 5751TIP3    H241449   5.688   5.230  10.743  0.0053  0.4650  0.3181
 5752TIP3   OH241450   0.015   6.288  11.124 -0.0378 -0.1793 -0.4534
 5752TIP3    H141451  -0.018   6.305  11.212  1.7738 -0.1411  0.2607
 5752TIP3    H241452  -0.025   6.356  11.070 -0.9389 -0.0206  0.3720
 5753TIP3   OH241453   0.758   1.744  10.182 -0.1464  0.2604  0.1239
 5753TIP3    H141454   0.765   1.753  10.277 -0.0233 -2.2434  0.4292
 5753TIP3    H241455   0.849   1.752  10.151  0.2828 -1.9399  0.6283
 5754TIP3   OH241456   1.334   0.946  11.757 -0.0198 -0.2394 -0.0458
 5754TIP3    H141457   1.400   0.889  11.798 -0.9404 -0.9548  0.4825
 5754TIP3    H241458   1.318   1.014  11.823  0.1988 -0.0578 -0.1797
 5755TIP3   OH241459   1.484   1.319  12.738  0.6110 -0.1128 -0.2880
 5755TIP3    H141460   1.495   1.244  12.797  1.0537 -0.0465 -0.2825
 5755TIP3    H241461   1.497   1.396  12.794 -1.8160  0.0537  0.1521
 5756TIP3   OH241462   3.774   1.330  11.994 -0.1615 -0.4150 -0.0969
 5756TIP3    H141463   3.734   1.371  12.071 -0.0961  0.0940 -0.3348
 5756TIP3    H241464   3.862   1.306  12.023 -0.2853 -0.6155  0.1178
 5757TIP3   OH241465   2.493   6.054  11.567  0.5961 -0.7178 -0.2469
 5757TIP3    H141466   2.587   6.050  11.587  0.1811 -0.7480  1.9002
 5757TIP3    H241467   2.470   5.963  11.545  0.2636 -1.7455  3.6440
 5758TIP3   OH241468   7.434   2.727  11.251 -0.0866  0.2357 -0.4839
 5758TIP3    H141469   7.487   2.747  11.329 -0.9342  1.0640 -0.0968
 5758TIP3    H241470   7.435   2.632  11.246  1.4084  0.2311 -0.4739
 5759TIP3   OH241471   1.982   2.275  12.749  0.2569 -0.1449  0.1194
 5759TIP3    H141472   2.029   2.247  12.671  1.4739 -2.5409  1.5633
 5759TIP3    H241473   1.971   2.369  12.739  3.8688  0.2943 -1.1485
 5760TIP3   OH241474   3.059   0.207  12.826 -0.2070 -0.2876  0.1160
 5760TIP3    H141475   3.134   0.205  12.767 -0.9359  0.0639 -0.8475
 5760TIP3    H241476   2.995   0.148  12.786  0.1814 -1.9819  1.8407
 5761TIP3   OH241477   1.760   0.608  11.647 -0.6289 -0.0836 -0.2809
 5761TIP3    H141478   1.692   0.619  11.714 -1.3584 -1.0118 -0.8234
 5761TIP3    H241479   1.725   0.653  11.570 -0.6663 -0.5991 -0.5750
 5762TIP3   OH241480   1.267   2.459  12.577 -0.4422 -0.2532  0.4012
 5762TIP3    H141481   1.215   2.380  12.591 -0.8635  0.0808  0.7609
 5762TIP3    H241482   1.317   2.469  12.658  1.3005 -1.3662 -0.4650
 5763TIP3   OH241483   4.488   1.250  11.435  0.0087 -0.6513  0.2265
 5763TIP3    H141484   4.558   1.291  11.485 -0.4031  1.0656 -0.5207
 5763TIP3    H241485   4.509   1.271  11.343 -0.4157 -1.8488 -0.1603
 5764TIP3   OH241486   0.862   7.674  10.906 -0.1826 -0.3331 -0.3511
 5764TIP3    H141487   0.859   7.684  11.001 -2.6210 -0.1293 -0.4058
 5764TIP3    H241488   0.828   7.587  10.890 -2.6688  0.7081 -1.1332
 5765TIP3   OH241489   7.062   1.106  12.124 -0.2094  0.0347 -0.1482
 5765TIP3    H141490   6.970   1.122  12.103  0.0995  1.1455 -0.7366
 5765TIP3    H241491   7.099   1.193  12.137  0.2237 -0.4399  2.5490
 5766TIP3   OH241492   4.316   4.145  11.782 -0.1673 -0.0259  0.0096
 5766TIP3    H141493   4.406   4.116  11.797 -0.2436  0.2898  1.1167
 5766TIP3    H241494   4.265   4.064  11.780 -0.0248 -0.1308  0.5851
 5767TIP3   OH241495   3.895   0.285  12.108 -0.2210 -0.1476  0.0492
 5767TIP3    H141496   3.931   0.199  12.131 -0.8007 -0.6394 -0.8456
 5767TIP3    H241497   3.917   0.296  12.016 -2.0657 -0.3225 -0.4334
 5768TIP3   OH241498   1.168   5.381  10.015  0.1429 -0.6136 -0.1048
 5768TIP3    H141499   1.118   5.386  10.096  2.8747  0.6144  1.6637
 5768TIP3    H241500   1.208   5.294  10.016 -0.9359 -1.1500 -0.9330
 5769TIP3   OH241501   2.039   0.050  11.030 -0.2605 -0.2609 -0.1395
 5769TIP3    H141502   1.977   0.038  11.102 -1.1220  1.1165 -0.6158
 5769TIP3    H241503   2.060  -0.039  11.001 -0.6760 -0.7970  1.1469
 5770TIP3   OH241504   2.392   5.659  11.098  0.6025 -0.3250 -0.0435
 5770TIP3    H141505   2.380   5.615  11.182 -1.0087  1.1005  0.5258
 5770TIP3    H241506   2.454   5.730  11.116 -0.5763  0.6635  0.2438
 5771TIP3   OH241507   5.627   5.868  10.104  0.3862  0.0027  0.2336
 5771TIP3    H141508   5.631   5.792  10.047  0.6744  0.9780 -1.0984
 5771TIP3    H241509   5.540   5.865  10.144  0.0101 -0.4557 -0.6137
 5772TIP3   OH241510   3.782   4.707  11.553  0.6737  0.4084  0.7758
 5772TIP3    H141511   3.778   4.695  11.458  2.4410  0.4275  0.6762
 5772TIP3    H241512   3.745   4.626  11.588  0.4593  0.1953  0.0868
 5773TIP3   OH241513   7.190   3.506  11.024  0.3100  0.0155 -0.5535
 5773TIP3    H141514   7.097   3.513  11.047  0.8834  0.2777  2.0095
 5773TIP3    H241515   7.236   3.546  11.098  2.5603 -2.3730 -0.5138
 5774TIP3   OH241516   6.908   0.015  11.712 -0.9821  0.4016 -0.3823
 5774TIP3    H141517   6.996  -0.004  11.745 -1.1177 -1.2626 -0.8882
 5774TIP3    H241518   6.909   0.109  11.696  0.7576  0.4157 -0.4829
 5775TIP3   OH241519   7.618   5.373  12.565  0.4770  0.6469  0.5445
 5775TIP3    H141520   7.558   5.300  12.544  0.0583  1.7783 -2.9026
 5775TIP3    H241521   7.576   5.417  12.638 -1.5817 -0.1338 -0.0573
 5776TIP3   OH241522   5.181   2.153  10.739  0.0212  0.5066 -0.2332
 5776TIP3    H141523   5.176   2.218  10.669 -1.3207 -0.9148 -1.5234
 5776TIP3    H241524   5.259   2.101  10.718 -0.0815  0.4092 -0.3734
 5777TIP3   OH241525   2.239   3.445  11.001  0.0317 -0.6812 -1.1020
 5777TIP3    H141526   2.268   3.536  11.013 -0.5685 -0.5717 -0.3417
 5777TIP3    H241527   2.144   3.452  10.988 -0.2484 -1.2678  0.3742
 5778TIP3   OH241528   5.856   5.559  11.441  0.2351 -0.5657 -0.3898
 5778TIP3    H141529   5.927   5.598  11.491  1.4921 -0.5340 -2.0951
 5778TIP3    H241530   5.900   5.516  11.367 -1.5804  0.6708 -2.3079
 5779TIP3   OH241531   1.194   5.707  10.321 -0.2024  0.4359 -0.5049
 5779TIP3    H141532   1.116   5.757  10.341 -1.0386 -0.3183 -1.7199
 5779TIP3    H241533   1.198   5.707  10.225  1.2249  0.3724 -0.4663
 5780TIP3   OH241534   1.619   4.577  10.784 -0.0358 -0.0663 -0.2975
 5780TIP3    H141535   1.707   4.541  10.801  0.2326  0.6462 -0.1488
 5780TIP3    H241536   1.594   4.617  10.868 -0.7145 -0.6972 -0.1931
 5781TIP3   OH241537   0.943   2.722  11.624  0.0915 -0.2006 -0.6645
 5781TIP3    H141538   0.997   2.802  11.627 -2.7810  1.8678  0.4900
 5781TIP3    H241539   0.989   2.660  11.681  1.2788  1.4506  0.2834
 5782TIP3   OH241540   3.539   0.347  11.306 -0.5979 -0.6345  0.0509
 5782TIP3    H141541   3.553   0.362  11.213  1.3706  0.0351  0.4000
 5782TIP3    H241542   3.525   0.434  11.344 -2.6531 -1.0063  0.2381
 5783TIP3   OH241543   4.056   1.278  12.024  0.0877  0.3271  0.3947
 5783TIP3    H141544   4.093   1.334  11.956 -1.8105 -0.8993 -1.8034
 5783TIP3    H241545   4.082   1.190  12.000  0.2214 -0.0793  1.8856
 5784TIP3   OH241546   1.743   1.417  13.027 -0.1499  0.1689 -0.4549
 5784TIP3    H141547   1.736   1.335  13.075 -1.0397  2.5624  4.0177
 5784TIP3    H241548   1.836   1.437  13.026 -0.0644 -0.2138 -0.3101
 5785TIP3   OH241549   5.038   7.454  11.079  0.0896  0.5524  0.7472
 5785TIP3    H141550   5.017   7.435  10.988  0.9762  2.1930  0.1428
 5785TIP3    H241551   4.953   7.468  11.121 -0.4095 -1.5840  0.5635
 5786TIP3   OH241552   2.875   6.089  11.030 -0.3535 -0.1539 -0.8553
 5786TIP3    H141553   2.840   6.177  11.014  0.8768  0.2914 -1.1892
 5786TIP3    H241554   2.894   6.055  10.942  0.4721 -0.1982 -0.6651
 5787TIP3   OH241555   0.096   1.627   9.843 -0.0841 -0.1229  0.2379
 5787TIP3    H141556   0.126   1.538   9.861  0.1228 -0.0756  0.1280
 5787TIP3    H241557   0.144   1.653   9.764 -1.2046 -0.4418 -0.5796
 5788TIP3   OH241558   6.712   6.741  12.835  0.3126  0.0318 -0.0171
 5788TIP3    H141559   6.760   6.759  12.754 -0.4894 -2.6262 -1.2146
 5788TIP3    H241560   6.698   6.827  12.875  3.0211  1.2006 -1.3229
 5789TIP3   OH241561   4.386   4.239  11.509 -0.1838  0.3670  0.2548
 5789TIP3    H141562   4.430   4.313  11.551 -0.4386 -0.1662  1.5205
 5789TIP3    H241563   4.338   4.197  11.580 -1.5918  0.0969 -0.8194
 5790TIP3   OH241564   3.468   7.495  11.334 -0.4416 -0.1390 -0.2234
 5790TIP3    H141565   3.528   7.421  11.322  0.3619  0.6354 -1.0900
 5790TIP3    H241566   3.439   7.517  11.245 -1.4120 -0.0092  0.1181
 5791TIP3   OH241567   4.302   4.907  10.415 -0.0741 -0.0674 -0.1718
 5791TIP3    H141568   4.345   4.989  10.391 -0.4142 -0.2868 -1.6017
 5791TIP3    H241569   4.218   4.935  10.453  1.2591  0.3655  2.6897
 5792TIP3   OH241570   2.587   2.269  11.716  0.1791 -0.3545  1.1079
 5792TIP3    H141571   2.494   2.254  11.698  0.7565 -1.0822 -1.8194
 5792TIP3    H241572   2.595   2.364  11.725 -0.6695 -0.1867  0.2289
 5793TIP3   OH241573   2.428   0.003  11.945  0.6436  0.0711  0.7599
 5793TIP3    H141574   2.341   0.039  11.929  0.0502 -1.8813 -0.9424
 5793TIP3    H241575   2.439   0.009  12.040 -1.1616  0.7467  0.9816
 5794TIP3   OH241576   0.485   3.193  10.297  0.1936  0.1265  0.1568
 5794TIP3    H141577   0.502   3.280  10.262  1.9598 -0.3567 -0.2795
 5794TIP3    H241578   0.394   3.197  10.328  0.0137  1.8900 -0.4837
 5795TIP3   OH241579   6.963   6.518  10.115  0.4795 -0.5080 -0.2393
 5795TIP3    H141580   6.945   6.500  10.023  1.1530 -1.1287 -0.2536
 5795TIP3    H241581   7.052   6.551  10.116  0.2053  0.2477  0.1067
 5796TIP3   OH241582   2.051   0.235  12.186  0.1705 -0.3665  0.9586
 5796TIP3    H141583   2.041   0.203  12.275  0.7655  0.7227  1.4410
 5796TIP3    H241584   2.070   0.328  12.196  0.2102 -0.2165 -0.3105
 5797TIP3   OH241585   5.353   4.966  11.032 -0.3323  0.9080 -0.0663
 5797TIP3    H141586   5.409   5.019  10.974 -0.9092  1.4504 -0.1366
 5797TIP3    H241587   5.414   4.910  11.079  0.2920  1.6358  0.0068
 5798TIP3   OH241588   2.113   0.810  10.249 -0.2496 -0.3286 -0.0818
 5798TIP3    H141589   2.189   0.827  10.305 -0.1721  0.4513 -0.4042
 5798TIP3    H241590   2.048   0.874  10.278 -0.7342 -0.8900  0.0876
 5799TIP3   OH241591   0.492   4.134  10.360  0.6616  0.4758  0.2770
 5799TIP3    H141592   0.496   4.045  10.325  0.7995  0.2546  0.8356
 5799TIP3    H241593   0.469   4.122  10.452 -1.3523  1.1198 -0.0961
 5800TIP3   OH241594   7.541   5.150  10.971  0.5221  0.6212 -0.1098
 5800TIP3    H141595   7.591   5.121  10.895 -0.9213 -1.9501 -0.1609
 5800TIP3    H241596   7.456   5.178  10.936  0.6759  1.7237  0.3391
 5801TIP3   OH241597   7.376   2.197  11.046  0.0192 -0.1033 -0.1014
 5801TIP3    H141598   7.340   2.207  10.958 -1.8544 -0.4592  0.5647
 5801TIP3    H241599   7.314   2.243  11.102  3.0083  3.2977  0.7913
 5802TIP3   OH241600   0.084   3.785  11.199  0.0081  0.3373  0.0499
 5802TIP3    H141601  -0.008   3.784  11.227 -0.1402 -0.3665 -0.4537
 5802TIP3    H241602   0.101   3.877  11.177 -0.1446  0.7382  1.5245
 5803TIP3   OH241603   5.652   2.979  11.088 -0.2962 -0.5139 -0.2236
 5803TIP3    H141604   5.557   2.972  11.080 -0.5163  0.1416  1.4250
 5803TIP3    H241605   5.666   3.007  11.179  1.2318  3.2351 -1.4199
 5804TIP3   OH241606   4.495   3.111  10.524 -0.0280 -0.7540  0.2543
 5804TIP3    H141607   4.577   3.062  10.529  0.1508 -0.5859 -0.8069
 5804TIP3    H241608   4.520   3.203  10.534 -0.0210 -0.6612 -0.6027
 5805TIP3   OH241609   3.243   4.551  11.778  0.4815 -0.4470  0.1946
 5805TIP3    H141610   3.278   4.540  11.866 -0.1171 -0.5014  0.4348
 5805TIP3    H241611   3.162   4.601  11.791  0.3526 -0.5198 -0.3135
 5806TIP3   OH241612   2.484   2.105  12.676  0.2265  0.6620  0.2649
 5806TIP3    H141613   2.485   2.194  12.712  0.8247  0.5408  0.5575
 5806TIP3    H241614   2.576   2.082  12.668  0.1601  1.0216 -2.1915
 5807TIP3   OH241615   5.153   2.552  10.332 -0.1520  0.4439  0.0545
 5807TIP3    H141616   5.148   2.625  10.393  0.9416  0.8307 -0.2986
 5807TIP3    H241617   5.062   2.527  10.317 -0.5220  1.5189  0.4340
 5808TIP3   OH241618   3.813   4.021  10.712 -0.0066  0.3265 -0.0158
 5808TIP3    H141619   3.752   3.951  10.689  0.1885  0.7371 -1.9185
 5808TIP3    H241620   3.879   4.020  10.643  0.1898  2.1712  0.0896
 5809TIP3   OH241621   1.716   6.683  11.616 -0.4497 -0.4476 -0.0930
 5809TIP3    H141622   1.646   6.620  11.599  0.1669 -1.4597  0.9086
 5809TIP3    H241623   1.793   6.629  11.635  0.4842  0.6280 -0.6454
 5810TIP3   OH241624   2.105   5.639  10.034  0.2234  0.2959 -0.3949
 5810TIP3    H141625   2.063   5.590   9.964 -1.9084  1.4272 -0.0170
 5810TIP3    H241626   2.116   5.576  10.105  0.7418 -0.4236 -1.0981
 5811TIP3   OH241627   6.831   7.113  11.018 -0.2308 -0.2542  0.6914
 5811TIP3    H141628   6.925   7.116  11.034 -0.1388  1.9315  0.0266
 5811TIP3    H241629   6.815   7.180  10.951 -2.0743 -1.5784 -0.3208
 5812TIP3   OH241630   6.404   0.200  11.175  0.4301  0.0842  0.3919
 5812TIP3    H141631   6.492   0.184  11.211  0.0322  0.4514  1.5647
 5812TIP3    H241632   6.357   0.118  11.190  0.1255  0.3907  1.1449
 5813TIP3   OH241633   5.892   4.277  10.119 -0.3278  0.5915 -0.8247
 5813TIP3    H141634   5.916   4.288  10.027 -1.3859  2.1219 -0.9562
 5813TIP3    H241635   5.946   4.340  10.167 -0.5976  0.6235 -0.5518
 5814TIP3   OH241636   6.327   1.266  10.458 -0.5583  0.2290  0.8583
 5814TIP3    H141637   6.422   1.259  10.450 -0.7144  0.1007 -1.8785
 5814TIP3    H241638   6.311   1.358  10.481  0.2135  1.2041 -2.0166
 5815TIP3   OH241639   6.498   2.951  11.268 -0.0466 -0.0797 -0.2070
 5815TIP3    H141640   6.544   3.019  11.317  2.1042  0.9699 -3.3344
 5815TIP3    H241641   6.452   2.999  11.199 -1.7098 -1.5656 -0.1894
 5816TIP3   OH241642   2.671   3.969  11.477 -0.3662  0.4276 -0.0396
 5816TIP3    H141643   2.687   3.877  11.456  1.7009  0.7119  0.0769
 5816TIP3    H241644   2.639   4.007  11.396  1.1705  0.0908 -0.8497
 5817TIP3   OH241645   2.286   5.704  10.856  0.3319  0.0899  0.0797
 5817TIP3    H141646   2.354   5.644  10.824 -0.3080 -0.9283  0.5983
 5817TIP3    H241647   2.284   5.691  10.951 -2.2300 -1.7430 -0.1173
 5818TIP3   OH241648   6.571   7.541  11.855 -0.0317  0.2668  0.0483
 5818TIP3    H141649   6.640   7.485  11.820 -0.6952 -1.1590  0.9430
 5818TIP3    H241650   6.499   7.482  11.874 -0.9148  1.4860  0.6518
 5819TIP3   OH241651   4.268   1.170  11.015 -0.1047 -0.1985 -0.5629
 5819TIP3    H141652   4.222   1.235  10.962 -0.3910 -0.9579 -1.2683
 5819TIP3    H241653   4.361   1.186  10.997 -0.1230  0.6071 -0.0071
 5820TIP3   OH241654   5.823   2.742  10.425 -0.2223  0.5371  0.2104
 5820TIP3    H141655   5.795   2.820  10.378  0.0198  0.5503  0.0821
 5820TIP3    H241656   5.915   2.731  10.400 -0.3053  0.1079  0.0826
 5821TIP3   OH241657   3.394   4.348  11.654  0.8873  0.3572  0.2508
 5821TIP3    H141658   3.352   4.276  11.702  0.9840  0.2602  0.1886
 5821TIP3    H241659   3.340   4.424  11.674 -0.5273 -0.1441 -1.4748
 5822TIP3   OH241660   0.997   2.983  10.536  0.0230 -0.0849 -0.1494
 5822TIP3    H141661   1.085   3.017  10.519 -0.6968  1.6404 -0.6826
 5822TIP3    H241662   0.947   3.007  10.457 -0.8092 -1.5040 -0.0857
 5823TIP3   OH241663   5.172   3.638   9.884 -0.8517  1.0027 -0.2843
 5823TIP3    H141664   5.234   3.600   9.946  0.5644  1.0691 -1.5926
 5823TIP3    H241665   5.087   3.630   9.926 -0.2207 -0.9349  0.7137
 5824TIP3   OH241666   1.810   6.527  11.233  0.1612 -0.0243 -0.0826
 5824TIP3    H141667   1.811   6.501  11.141  0.5970 -2.0635  0.4648
 5824TIP3    H241668   1.734   6.585  11.241  0.7167  1.0242 -1.9218
 5825TIP3   OH241669   2.326   7.039  10.815 -0.1174  0.3460  0.4110
 5825TIP3    H141670   2.248   6.999  10.777 -0.9570  3.1173 -1.0958
 5825TIP3    H241671   2.303   7.053  10.907 -0.8529 -0.1037  0.3071
 5826TIP3   OH241672   3.045   5.996  12.169 -0.4145  0.2326  0.6751
 5826TIP3    H141673   2.974   5.985  12.232 -2.2014 -0.6146 -1.3456
 5826TIP3    H241674   3.094   5.914  12.172 -0.1882  0.3842  1.2683
 5827TIP3   OH241675   5.696   6.814   9.771 -0.0922  0.0098 -0.2435
 5827TIP3    H141676   5.763   6.799   9.704 -0.1440 -1.7498  0.0662
 5827TIP3    H241677   5.660   6.727   9.790 -0.0037  0.4225  2.1581
 5828TIP3   OH241678   4.687   6.680  11.999 -0.2178 -0.6667 -0.7787
 5828TIP3    H141679   4.738   6.617  12.050 -0.7389 -0.2136  0.3187
 5828TIP3    H241680   4.658   6.630  11.922 -0.5679 -1.7672  0.0423
 5829TIP3   OH241681   0.855   5.478  10.611 -0.0879  0.1644 -0.2536
 5829TIP3    H141682   0.870   5.410  10.676  0.4536 -0.1924 -0.7406
 5829TIP3    H241683   0.930   5.473  10.552 -0.2651  0.8826 -0.5606
 5830TIP3   OH241684   6.599   1.930  11.798 -0.4836 -0.0418 -0.6886
 5830TIP3    H141685   6.630   1.999  11.857  0.4778 -0.9695 -0.0610
 5830TIP3    H241686   6.611   1.966  11.710 -0.0446  0.6159 -0.3708
 5831TIP3   OH241687   1.133   3.860  12.224  0.3597 -0.0463 -0.1671
 5831TIP3    H141688   1.141   3.946  12.265  2.3442  0.5547 -1.6553
 5831TIP3    H241689   1.088   3.877  12.141  1.2875 -0.3228 -0.7404
 5832TIP3   OH241690   6.466   7.329  10.654  0.0423 -0.4840 -0.4740
 5832TIP3    H141691   6.507   7.261  10.708  2.1655 -1.2687 -2.8507
 5832TIP3    H241692   6.430   7.391  10.717 -1.3349 -3.3572  1.8326
 5833TIP3   OH241693   6.120   3.776  10.842  0.5620 -0.1388 -0.6696
 5833TIP3    H141694   6.045   3.801  10.789  0.1540 -0.8305 -0.4350
 5833TIP3    H241695   6.127   3.681  10.830  0.6371 -0.2614  0.2811
 5834TIP3   OH241696   4.099   1.172  12.838  0.6907 -0.2410 -1.4244
 5834TIP3    H141697   4.035   1.177  12.909  1.8191 -0.2049 -0.3623
 5834TIP3    H241698   4.136   1.260  12.833  3.3188 -1.0898  0.6189
 5835TIP3   OH241699   4.582   0.678  10.933  0.4682 -0.5016 -0.2417
 5835TIP3    H141700   4.666   0.693  10.977  0.5168 -0.5037 -0.3341
 5835TIP3    H241701   4.572   0.753  10.875  1.7168 -1.8152 -2.2721
 5836TIP3   OH241702   4.006   0.354  11.354 -0.1417 -0.0253 -0.0681
 5836TIP3    H141703   3.924   0.306  11.348 -0.2676 -0.3185  2.7758
 5836TIP3    H241704   4.001   0.401  11.437  2.1871  0.6931 -0.2499
 5837TIP3   OH241705   0.576   7.117  12.772 -0.2783  0.0794 -0.0405
 5837TIP3    H141706   0.617   7.116  12.686  1.7860  0.2236  0.8860
 5837TIP3    H241707   0.589   7.029  12.806  0.1894  0.4076  0.6628
 5838TIP3   OH241708   4.694   0.469  10.304 -0.0053 -0.5715  0.1751
 5838TIP3    H141709   4.750   0.530  10.352 -0.0640 -0.5025  0.1556
 5838TIP3    H241710   4.733   0.464  10.217 -0.7805  0.5007 -0.2612
 5839TIP3   OH241711   5.856   5.113  10.127 -0.3586 -0.0708  0.0917
 5839TIP3    H141712   5.817   5.182  10.180 -0.4975  0.9253 -1.2409
 5839TIP3    H241713   5.782   5.077  10.077  0.0390  0.2503 -0.7454
 5840TIP3   OH241714   6.628   7.239  12.283 -0.1373  0.2692  0.2483
 5840TIP3    H141715   6.627   7.246  12.188 -0.0163  0.5425  0.2638
 5840TIP3    H241716   6.719   7.221  12.305 -0.3469 -0.8080  0.2519
 5841TIP3   OH241717   3.521   6.287  10.234 -0.5451  0.0116  0.0404
 5841TIP3    H141718   3.568   6.207  10.211 -0.9863  0.0138 -0.8772
 5841TIP3    H241719   3.583   6.357  10.215  0.2748 -0.1305  1.9141
 5842TIP3   OH241720   5.775   6.331  10.828 -0.3349 -0.7218  0.4958
 5842TIP3    H141721   5.820   6.381  10.895  0.8433  0.9158 -1.4025
 5842TIP3    H241722   5.842   6.273  10.792  0.2054  1.1727 -1.8081
 5843TIP3   OH241723   3.304   2.869  10.409 -0.3851  0.4258 -0.2197
 5843TIP3    H141724   3.241   2.823  10.354 -1.4031 -0.4805  1.6048
 5843TIP3    H241725   3.377   2.808  10.420 -0.5530  0.2749  0.0773
 5844TIP3   OH241726   0.555   7.075  11.350 -0.2102  0.3948  0.2130
 5844TIP3    H141727   0.589   7.155  11.311 -0.4919  0.5172  0.2138
 5844TIP3    H241728   0.503   7.034  11.281  1.1916 -0.5898 -0.2999
 5845TIP3   OH241729   1.630   4.279  10.625 -0.0130 -0.5164  0.4547
 5845TIP3    H141730   1.700   4.219  10.601  0.0262 -0.9350  1.5806
 5845TIP3    H241731   1.633   4.283  10.721 -1.2803 -0.2494  0.5026
 5846TIP3   OH241732   4.195   0.786  11.547 -0.3421 -0.2579  0.1534
 5846TIP3    H141733   4.167   0.869  11.510  0.2806  0.3244  0.9506
 5846TIP3    H241734   4.285   0.775  11.516 -0.0778 -0.1323  0.8518
 5847TIP3   OH241735   1.590   6.927  11.675  0.3144  0.3577 -0.3045
 5847TIP3    H141736   1.666   6.869  11.677  0.6171  0.7743  1.0024
 5847TIP3    H241737   1.608   6.988  11.604  2.1107  1.6052  1.1063
 5848TIP3   OH241738   3.679   4.299  12.061  0.2406  0.0189  0.0125
 5848TIP3    H141739   3.704   4.227  12.004 -1.3366  0.4187 -1.2650
 5848TIP3    H241740   3.591   4.276  12.091 -0.2841  1.3775 -0.3986
 5849TIP3   OH241741   6.059   2.407  10.931 -0.0755 -0.5052 -0.1390
 5849TIP3    H141742   5.965   2.398  10.916 -0.2929  1.0687  0.0605
 5849TIP3    H241743   6.066   2.482  10.991  1.4052  0.8717 -1.9244
 5850TIP3   OH241744   6.505   4.279  12.013  0.8157 -0.5096  0.5492
 5850TIP3    H141745   6.524   4.348  12.076  1.0757 -0.1248  0.0619
 5850TIP3    H241746   6.419   4.246  12.038  0.1780  0.7726  0.1084
 5851TIP3   OH241747   0.017   1.753  11.674 -0.1105  0.4443 -0.1203
 5851TIP3    H141748  -0.050   1.697  11.635 -0.3885  1.0226 -0.4914
 5851TIP3    H241749  -0.031   1.806  11.738  0.3145 -0.3838  0.9109
 5852TIP3   OH241750   4.328   5.561  11.146  0.7374  0.2235  0.1913
 5852TIP3    H141751   4.272   5.601  11.213  1.0260 -0.2244  0.7068
 5852TIP3    H241752   4.274   5.561  11.067 -0.1181 -0.4740  0.7576
 5853TIP3   OH241753   3.905   6.602  10.426 -0.3659 -0.0025  0.3070
 5853TIP3    H141754   3.924   6.650  10.345 -0.1294  1.0002  0.9352
 5853TIP3    H241755   3.828   6.647  10.463 -0.6856 -0.6717  0.4655
 5854TIP3   OH241756   0.340   6.277  10.714 -0.0458 -0.1471 -0.4842
 5854TIP3    H141757   0.261   6.330  10.701  0.1098 -0.3993 -2.9060
 5854TIP3    H241758   0.403   6.338  10.751 -0.1343  1.2309 -2.4214
 5855TIP3   OH241759   3.820   0.648  11.816 -0.0221 -0.3702  0.2742
 5855TIP3    H141760   3.825   0.644  11.720 -0.5391 -1.3987  0.2829
 5855TIP3    H241761   3.888   0.711  11.840 -1.6921  2.0936 -0.9391
 5856TIP3   OH241762   1.734   5.991  10.436 -0.5332  0.8677  0.0109
 5856TIP3    H141763   1.656   6.038  10.407 -0.8215  2.3529  2.8449
 5856TIP3    H241764   1.711   5.899  10.427 -2.3932  1.2777  0.1855
 5857TIP3   OH241765   7.181   0.919  11.612  0.4632  0.0911  0.1571
 5857TIP3    H141766   7.119   0.958  11.674  0.0939  1.1896 -0.8530
 5857TIP3    H241767   7.203   0.991  11.553  2.9362 -0.1821  0.6414
 5858TIP3   OH241768   4.345   4.376  10.914 -0.0271  0.3345 -0.6011
 5858TIP3    H141769   4.314   4.392  10.825 -0.7507  0.3098 -0.3588
 5858TIP3    H241770   4.418   4.437  10.925  0.2134  0.1788 -1.2830
 5859TIP3   OH241771   2.631   7.381  10.880 -0.0209 -0.0727 -0.2870
 5859TIP3    H141772   2.681   7.301  10.868 -0.4855 -0.8333  2.3305
 5859TIP3    H241773   2.695   7.446  10.906  0.0145 -0.2919  0.1824
 5860TIP3   OH241774   1.619   0.536  10.293 -0.1373  0.4005 -0.0434
 5860TIP3    H141775   1.612   0.454  10.342 -2.4787  0.6505  0.1856
 5860TIP3    H241776   1.666   0.595  10.352 -0.6747 -0.0549  0.8736
 5861TIP3   OH241777   3.969   5.849  10.991  0.1257 -0.1411 -0.1874
 5861TIP3    H141778   3.950   5.833  10.899 -2.8345  0.9932  0.1112
 5861TIP3    H241779   3.919   5.928  11.013  2.5137  0.9588  1.8902
 5862TIP3   OH241780   0.305   7.590  10.979  0.2839 -0.2415  0.6335
 5862TIP3    H141781   0.244   7.656  11.013  0.3457 -0.7339  1.7096
 5862TIP3    H241782   0.248   7.524  10.939  0.1923  0.1130  0.1703
 5863TIP3   OH241783   4.717   1.406  12.534 -0.4126  0.0254  0.3473
 5863TIP3    H141784   4.736   1.407  12.628 -1.6843 -1.9003  0.6837
 5863TIP3    H241785   4.773   1.337  12.499  0.7642  1.3683 -0.5328
 5864TIP3   OH241786   0.508   3.870  10.311  0.0395 -0.8748 -0.1588
 5864TIP3    H141787   0.493   3.794  10.367  1.3302 -0.4635  0.7911
 5864TIP3    H241788   0.521   3.833  10.224 -0.1352 -1.6739  0.1407
 5865TIP3   OH241789   4.814   2.222   9.973  0.0843 -0.2885 -0.2774
 5865TIP3    H141790   4.807   2.317   9.969  0.6043 -0.2930 -1.6809
 5865TIP3    H241791   4.907   2.204   9.966 -0.1589 -0.9620 -2.2581
 5866TIP3   OH241792   1.521   7.500  10.916  0.3346 -0.3577 -0.2295
 5866TIP3    H141793   1.582   7.454  10.858 -0.2661 -0.1372 -1.0359
 5866TIP3    H241794   1.578   7.547  10.977  0.9728 -0.1935 -0.9410
 5867TIP3   OH241795   2.250   0.888  10.934 -0.5271 -0.0699 -0.4840
 5867TIP3    H141796   2.227   0.852  10.848  3.3033 -0.5887 -1.4667
 5867TIP3    H241797   2.283   0.813  10.984  0.3484  0.7676  0.2400
 5868TIP3   OH241798   3.885   5.618  11.127 -0.2254 -0.7529 -0.4034
 5868TIP3    H141799   3.939   5.676  11.075  1.3540  0.0567  1.9602
 5868TIP3    H241800   3.795   5.639  11.100  0.4078  1.1894 -1.2144
 5869TIP3   OH241801   2.368   3.926  11.627  0.0155 -0.3371 -0.1220
 5869TIP3    H141802   2.337   3.993  11.566  2.3477  0.4193 -0.5550
 5869TIP3    H241803   2.432   3.970  11.682  0.3760 -1.8213  0.7240
 5870TIP3   OH241804   4.936   7.170  10.345  0.1114  0.1233 -0.1728
 5870TIP3    H141805   4.958   7.263  10.335  0.6260 -0.0406 -0.6875
 5870TIP3    H241806   5.012   7.132  10.389 -0.3092  0.0326  0.4810
 5871TIP3   OH241807   4.819   0.048  10.519 -0.2254 -0.3829 -0.2934
 5871TIP3    H141808   4.782  -0.037  10.544  2.5575 -1.0872  1.7928
 5871TIP3    H241809   4.769   0.111  10.570 -0.5389 -1.0269  0.2187
 5872TIP3   OH241810   2.987   6.778  11.732  0.2002  0.0942  0.2900
 5872TIP3    H141811   3.008   6.795  11.823 -1.4271  0.8033  0.5701
 5872TIP3    H241812   2.891   6.786  11.727  0.3039  0.8450 -1.6134
 5873TIP3   OH241813   2.729   2.719  12.576  0.2949 -0.4805  0.5699
 5873TIP3    H141814   2.715   2.658  12.648  0.9870  1.2656  2.2768
 5873TIP3    H241815   2.744   2.803  12.619 -0.2342  0.8293 -1.6616
 5874TIP3   OH241816   7.043   1.408  10.380  0.3970 -0.4062 -0.2445
 5874TIP3    H141817   7.100   1.449  10.315  0.8160  0.8652  0.8816
 5874TIP3    H241818   7.083   1.323  10.398  1.3874  0.0617 -0.1960
 5875TIP3   OH241819   1.701   1.231  13.248  0.8175  0.3031  0.0408
 5875TIP3    H141820   1.723   1.182  13.328  0.4098 -1.1431 -0.6969
 5875TIP3    H241821   1.628   1.287  13.273 -0.6354 -1.5727  0.2422
 5876TIP3   OH241822   4.601   3.800  10.724 -0.1551 -0.2974 -0.0958
 5876TIP3    H141823   4.663   3.727  10.720  1.5561  0.8720  2.4327
 5876TIP3    H241824   4.519   3.760  10.753  0.4426 -1.3775  0.1744
 5877TIP3   OH241825   4.014   0.548  11.141 -0.1657  0.0377  0.4644
 5877TIP3    H141826   4.108   0.538  11.122  0.2592  0.1698  2.2907
 5877TIP3    H241827   3.994   0.476  11.200 -1.0662  0.3717  0.5804
 5878TIP3   OH241828   1.263   0.902  12.180 -0.2944 -0.3734 -0.0540
 5878TIP3    H141829   1.187   0.851  12.208 -1.1571  0.1871 -1.3202
 5878TIP3    H241830   1.322   0.898  12.255 -1.9218 -0.1072  1.3147
 5879TIP3   OH241831   6.597   1.085  10.078 -0.1914  0.2243  0.0476
 5879TIP3    H141832   6.523   1.110  10.133 -0.9341  1.4554 -1.4295
 5879TIP3    H241833   6.644   1.019  10.129 -1.5681  0.3606  1.5691
 5880TIP3   OH241834   6.777   4.756  12.440 -0.1369  0.3316 -0.4764
 5880TIP3    H141835   6.868   4.785  12.449 -0.5963  2.1532 -1.0722
 5880TIP3    H241836   6.749   4.735  12.529  0.9462 -0.5493 -0.3301
 5881TIP3   OH241837   5.274   5.565  10.087 -0.7307  0.2481  0.2977
 5881TIP3    H141838   5.316   5.626  10.148 -1.0955  0.9568 -0.1488
 5881TIP3    H241839   5.181   5.588  10.091 -0.7275  0.4585 -0.7011
 5882TIP3   OH241840   6.818   7.134  12.649  0.2957 -0.4231  0.1666
 5882TIP3    H141841   6.848   7.156  12.561  3.0588 -0.5635  0.9752
 5882TIP3    H241842   6.826   7.216  12.698 -2.1332 -0.1024  0.1392
 5883TIP3   OH241843   7.512   2.087  10.316  0.4710 -0.4708 -0.0300
 5883TIP3    H141844   7.418   2.106  10.309  0.5918  0.7886  1.2969
 5883TIP3    H241845   7.528   2.021  10.248 -1.1324  0.1391 -1.0699
 5884TIP3   OH241846   6.307   1.878  11.142 -0.5850 -0.1650  0.1728
 5884TIP3    H141847   6.399   1.883  11.167 -0.4263  0.6030 -0.5162
 5884TIP3    H241848   6.309   1.844  11.052 -1.0251 -0.8830  0.4255
 5885TIP3   OH241849   1.900   7.340  11.200  0.4775 -0.6062 -0.4516
 5885TIP3    H141850   1.838   7.404  11.233  0.8468  0.6034 -1.9906
 5885TIP3    H241851   1.973   7.343  11.262 -0.3203 -0.9787  0.5431
 5886TIP3   OH241852   2.626   2.176  10.419 -0.6268  0.4006  0.7352
 5886TIP3    H141853   2.697   2.113  10.431 -0.5673 -0.0115 -1.3872
 5886TIP3    H241854   2.556   2.145  10.476 -0.2848 -1.1222  0.3677
 5887TIP3   OH241855   1.862   5.167  12.144  0.5916  1.0037 -0.0185
 5887TIP3    H141856   1.833   5.250  12.182  2.3741  2.1696 -1.0668
 5887TIP3    H241857   1.931   5.137  12.203  0.7131  0.8432 -0.2423
 5888TIP3   OH241858   2.987   3.670  11.861 -0.2737 -0.2676 -0.1877
 5888TIP3    H141859   2.901   3.665  11.818  0.2383  0.2817 -1.3266
 5888TIP3    H241860   3.024   3.583  11.849  0.0231 -0.0160 -1.2620
 5889TIP3   OH241861   5.264   3.164  11.867  0.0344  0.0380  0.9014
 5889TIP3    H141862   5.261   3.249  11.824  1.0974  0.9486  2.5223
 5889TIP3    H241863   5.232   3.181  11.956 -1.7416 -1.6973  0.6560
 5890TIP3   OH241864   6.254   5.710  11.366 -0.1651 -0.0756  0.1113
 5890TIP3    H141865   6.337   5.705  11.317 -1.2863  0.7007 -1.9743
 5890TIP3    H241866   6.247   5.802  11.391  0.0804 -0.3451  1.2257
 5891TIP3   OH241867   1.117   2.218  12.648 -0.3514 -0.2846 -0.4059
 5891TIP3    H141868   1.137   2.171  12.729 -0.1937 -1.5456 -1.1685
 5891TIP3    H241869   1.068   2.156  12.595  1.1387 -0.1288 -2.0450
 5892TIP3   OH241870   3.079   0.829   9.855  0.4045  0.1337 -0.0146
 5892TIP3    H141871   3.117   0.756   9.904  0.1182 -0.3617 -0.5178
 5892TIP3    H241872   2.985   0.820   9.868  0.3053 -0.1625 -0.8521
 5893TIP3   OH241873   5.274   3.695  10.624  0.0536  0.3570 -0.2543
 5893TIP3    H141874   5.360   3.685  10.583  0.5940  1.0646  0.6805
 5893TIP3    H241875   5.268   3.788  10.644 -0.5754  0.1679  0.4600
 5894TIP3   OH241876   3.306   5.918  12.453  0.5850  0.1534  0.0168
 5894TIP3    H141877   3.235   5.978  12.477  1.0731  0.0179  1.9243
 5894TIP3    H241878   3.266   5.831  12.459  0.5563  0.1489 -0.2367
 5895TIP3   OH241879   2.959   3.394  11.748  0.6397  0.0647  0.0346
 5895TIP3    H141880   3.041   3.406  11.699  0.3073  2.0006 -0.1095
 5895TIP3    H241881   2.891   3.424  11.688 -0.0111  0.1240  0.7944
 5896TIP3   OH241882   6.515   1.644  10.681  0.2653 -0.0688  0.4579
 5896TIP3    H141883   6.514   1.721  10.738 -0.8865  1.1420 -1.1125
 5896TIP3    H241884   6.542   1.573  10.738 -0.5424  1.1319  2.4417
 5897TIP3   OH241885   2.976   7.445  10.494  0.0283 -0.3926  0.3254
 5897TIP3    H141886   2.894   7.492  10.510 -0.1639 -0.5826 -0.0875
 5897TIP3    H241887   3.018   7.495  10.424 -1.1798 -1.9991 -1.6796
 5898TIP3   OH241888   5.692   4.235  11.062  0.3029  0.1810  0.0844
 5898TIP3    H141889   5.670   4.180  10.986 -0.8686 -3.9540  3.0540
 5898TIP3    H241890   5.772   4.196  11.097 -0.2943  0.6230  2.0462
 5899TIP3   OH241891   5.039   5.962  10.961 -0.3226 -0.2693 -0.5072
 5899TIP3    H141892   5.055   6.041  11.011 -2.4891 -0.6457  0.9083
 5899TIP3    H241893   5.066   5.984  10.872 -2.0404  2.5128 -0.4558
 5900TIP3   OH241894   2.209   4.640  11.612 -0.3407 -0.1104  0.2112
 5900TIP3    H141895   2.236   4.554  11.644 -1.6482 -0.0472  1.6139
 5900TIP3    H241896   2.223   4.698  11.687 -1.7302  0.4187  0.0880
 5901TIP3   OH241897   7.135   6.262  10.789 -0.9582  0.9723  0.1542
 5901TIP3    H141898   7.075   6.326  10.827 -0.3638  2.5752 -1.4902
 5901TIP3    H241899   7.079   6.186  10.769 -2.3070  2.1231 -0.6205
 5902TIP3   OH241900   5.315   2.918  12.031  0.5679  0.2683  0.0969
 5902TIP3    H141901   5.330   2.964  11.948  0.0776  4.3884  2.0499
 5902TIP3    H241902   5.266   2.839  12.006 -1.0442  2.1496 -3.4165
 5903TIP3   OH241903   2.876   3.415  10.102  0.1533  0.1255  0.4745
 5903TIP3    H141904   2.818   3.445  10.172  0.5452  1.5866  0.2159
 5903TIP3    H241905   2.855   3.472  10.027 -0.3536 -1.4852 -0.6676
 5904TIP3   OH241906   2.454   6.818  11.772  0.1564  0.0193  0.7670
 5904TIP3    H141907   2.461   6.723  11.777  0.3866 -0.0335 -0.2657
 5904TIP3    H241908   2.394   6.842  11.842  0.9391 -0.7756  1.7428
 5905TIP3   OH241909   7.652   0.023  10.211  0.0279  0.1450 -0.4265
 5905TIP3    H141910   7.611   0.065  10.287  0.9478  1.3650 -0.5752
 5905TIP3    H241911   7.578  -0.007  10.158 -0.6364 -0.8296  0.9769
 5906TIP3   OH241912   1.073   3.923  12.524 -0.1236 -0.2957  0.0841
 5906TIP3    H141913   1.108   3.953  12.609  0.8027 -0.4673 -0.2189
 5906TIP3    H241914   1.129   3.849  12.501  2.6200  2.3013 -2.7105
 5907TIP3   OH241915   0.989   6.865  10.926 -0.0304 -0.2590 -0.1448
 5907TIP3    H141916   1.031   6.936  10.974  0.2347 -0.0247 -0.7184
 5907TIP3    H241917   0.969   6.902  10.840  0.1052 -0.8759 -0.4481
 5908TIP3   OH241918   6.532   1.985  12.214 -0.2344 -0.1969  0.5242
 5908TIP3    H141919   6.477   2.002  12.290 -0.3041 -0.4672  0.5377
 5908TIP3    H241920   6.506   2.051  12.150 -0.0756  0.1205  0.7844
 5909TIP3   OH241921   7.192   0.900  12.840  0.2519 -0.1609  0.2719
 5909TIP3    H141922   7.216   0.838  12.772 -0.6935  0.6769 -0.8651
 5909TIP3    H241923   7.274   0.946  12.861  0.0435  1.8690 -2.7175
 5910TIP3   OH241924   0.498   7.148  11.964 -0.2805  0.0509  0.0601
 5910TIP3    H141925   0.412   7.143  12.007 -0.3533  1.4630  0.1006
 5910TIP3    H241926   0.521   7.240  11.967  1.3238 -0.3232  0.1888
 5911TIP3   OH241927   2.219   7.470  12.274  0.2308 -0.7211  0.1028
 5911TIP3    H141928   2.301   7.428  12.300  0.0221 -0.5696  1.0674
 5911TIP3    H241929   2.201   7.532  12.345 -1.1627 -1.3773  0.3586
 5912TIP3   OH241930   7.645   6.789  10.159  0.1953  0.0790  0.5575
 5912TIP3    H141931   7.685   6.855  10.215 -1.3940 -0.0846  1.9778
 5912TIP3    H241932   7.551   6.810  10.161 -0.2915 -1.9012  0.6431
 5913TIP3   OH241933   1.497   5.376  11.281 -0.1049 -0.3059  0.3786
 5913TIP3    H141934   1.458   5.454  11.243  0.6697 -0.4452 -0.7196
 5913TIP3    H241935   1.546   5.408  11.357 -0.9091  0.0806  0.7519
 5914TIP3   OH241936   1.790   5.246  10.538 -0.3538  0.2225  0.2231
 5914TIP3    H141937   1.761   5.304  10.608 -2.1098  1.3221 -1.3482
 5914TIP3    H241938   1.864   5.292  10.497 -1.1770  0.9630 -0.4565
 5915TIP3   OH241939   4.370   6.603  12.238  0.2332  0.4990  0.1329
 5915TIP3    H141940   4.344   6.536  12.300  1.1603 -0.1259 -0.1247
 5915TIP3    H241941   4.466   6.596  12.234  0.4444  2.3933  0.7372
 5916TIP3   OH241942   0.283   2.042  10.992 -0.2144 -0.0642 -0.3879
 5916TIP3    H141943   0.307   1.973  11.054 -0.2442 -0.4663 -0.8119
 5916TIP3    H241944   0.208   2.085  11.031 -1.0546 -1.1657 -0.7514
 5917TIP3   OH241945   0.700   5.106  11.764 -0.3211 -0.3096 -0.0918
 5917TIP3    H141946   0.735   5.037  11.707  2.2115  0.6896  0.1352
 5917TIP3    H241947   0.724   5.187  11.721 -0.7606  0.4561  1.0661
 5918TIP3   OH241948   7.096   0.395  12.248  0.7248 -0.2951 -0.1181
 5918TIP3    H141949   7.024   0.419  12.306  2.1050  1.3507  1.0161
 5918TIP3    H241950   7.056   0.389  12.161 -0.7603  0.6067  0.4626
 5919TIP3   OH241951   6.807   6.250  10.599 -0.4600 -0.0431 -0.4962
 5919TIP3    H141952   6.745   6.322  10.609  1.8484  2.0513 -0.1632
 5919TIP3    H241953   6.858   6.273  10.521  1.9415  0.0789  0.9893
 5920TIP3   OH241954   3.239   2.901  11.394 -0.6492  0.2114 -0.0943
 5920TIP3    H141955   3.289   2.948  11.327 -1.1834  0.6509 -0.1953
 5920TIP3    H241956   3.261   2.809  11.381 -2.1448  0.0672 -2.1110
 5921TIP3   OH241957   5.743   5.620  12.275  0.5272 -0.5524  0.0321
 5921TIP3    H141958   5.661   5.671  12.274 -0.1096 -1.4065  2.0330
 5921TIP3    H241959   5.797   5.664  12.340  1.1347 -0.7426 -0.3441
 5922TIP3   OH241960   1.257   0.994  10.075  0.1798 -0.6376  0.3545
 5922TIP3    H141961   1.297   1.025   9.994  0.2177  2.1784  1.3078
 5922TIP3    H241962   1.182   0.942  10.047 -0.1161  0.6896 -1.5104
 5923TIP3   OH241963   2.051   1.618  12.757  0.4047 -0.6856  0.1385
 5923TIP3    H141964   2.050   1.634  12.662 -0.2320 -0.3019  0.2026
 5923TIP3    H241965   2.019   1.528  12.766  1.5660 -1.1357 -0.0701
 5924TIP3   OH241966   6.093   6.749  10.792 -0.1356 -0.1926  0.0446
 5924TIP3    H141967   6.064   6.682  10.730 -0.5611 -1.5907  1.6904
 5924TIP3    H241968   6.187   6.759  10.773  0.0074 -1.4760 -0.0656
 5925TIP3   OH241969   3.391   4.091  10.341 -0.1434 -0.0152 -0.0877
 5925TIP3    H141970   3.309   4.141  10.333 -0.6269 -0.6259  0.9197
 5925TIP3    H241971   3.366   4.000  10.323 -0.0793 -0.4933  2.0620
 5926TIP3   OH241972   2.523   4.309   9.907  0.8253  0.4216 -0.8362
 5926TIP3    H141973   2.459   4.367   9.949  0.6186  0.0298 -0.6108
 5926TIP3    H241974   2.545   4.245   9.973 -0.0090 -0.6014 -1.5183
 5927TIP3   OH241975   7.144   7.219   9.971  0.4373 -0.3586 -0.0837
 5927TIP3    H141976   7.211   7.157   9.942  0.6198 -0.4984  0.6087
 5927TIP3    H241977   7.072   7.163  10.000  1.3499 -0.3706  2.4024
 5928TIP3   OH241978   3.067   1.400  10.379 -0.2466 -0.1000  0.2326
 5928TIP3    H141979   3.060   1.444  10.464  1.3912  0.8046 -0.0634
 5928TIP3    H241980   3.123   1.457  10.326  0.8247 -1.8387 -0.6374
 5929TIP3   OH241981   1.873   5.267  11.081  0.5076 -0.3568  0.4714
 5929TIP3    H141982   1.824   5.346  11.101 -1.0087 -0.7160 -1.5404
 5929TIP3    H241983   1.943   5.296  11.023 -0.6092 -0.5767 -1.0281
 5930TIP3   OH241984   0.290   7.339  12.373  0.2472 -0.2753 -0.6462
 5930TIP3    H141985   0.206   7.384  12.384  1.2851  1.5515  0.3232
 5930TIP3    H241986   0.307   7.300  12.459  0.3329 -0.8016 -0.8953
 5931TIP3   OH241987   2.418   1.599  11.068  0.3263 -0.2056  0.6494
 5931TIP3    H141988   2.399   1.568  10.980  0.0619  0.1105  0.5944
 5931TIP3    H241989   2.513   1.594  11.075  0.3497 -0.2115  0.3395
 5932TIP3   OH241990   6.560   4.934  12.734 -0.0727 -0.3652 -0.2662
 5932TIP3    H141991   6.572   4.851  12.688  0.4991  0.8719 -2.4772
 5932TIP3    H241992   6.489   4.917  12.796 -0.9366 -2.1153 -1.6443
 5933TIP3   OH241993   5.137   0.771  12.297 -0.0027 -0.4958  0.1318
 5933TIP3    H141994   5.151   0.709  12.225 -1.5761 -0.1560 -0.5144
 5933TIP3    H241995   5.070   0.730  12.351 -0.9619  0.5598 -0.2290
 5934TIP3   OH241996   5.050   1.235  11.453 -0.1168  0.6298  0.6548
 5934TIP3    H141997   5.027   1.176  11.381  1.5330 -0.0119  0.6074
 5934TIP3    H241998   4.996   1.313  11.439 -1.9008 -0.6044  0.3686
 5935TIP3   OH241999   4.087   5.523  11.597  0.0845 -0.2905  0.2077
 5935TIP3    H142000   4.135   5.548  11.676  0.5473 -0.7224  0.0661
 5935TIP3    H242001   4.155   5.495  11.536 -0.2842 -0.1093 -0.2902
 5936TIP3   OH242002   6.594   1.232  10.434  0.2007 -0.1198  0.1545
 5936TIP3    H142003   6.636   1.308  10.395 -0.2798 -1.1063 -2.4964
 5936TIP3    H242004   6.661   1.163  10.431 -0.4999 -0.7793 -0.9460
 5937TIP3   OH242005   4.051   0.795  11.822 -0.4580  0.3612 -0.8531
 5937TIP3    H142006   4.121   0.824  11.880 -0.2303 -1.4168 -0.1784
 5937TIP3    H242007   4.093   0.784  11.737 -0.3099  0.9612 -0.8578
 5938TIP3   OH242008   6.591   1.359  11.885  0.2233 -0.3051  0.5218
 5938TIP3    H142009   6.526   1.412  11.839 -1.3474 -2.2137  0.4016
 5938TIP3    H242010   6.598   1.279  11.832  2.1516 -0.4630  0.9418
 5939TIP3   OH242011   2.625   1.101  12.316 -0.5071 -0.3625  0.0540
 5939TIP3    H142012   2.638   1.123  12.408 -2.0551 -1.8097  0.6455
 5939TIP3    H242013   2.702   1.049  12.293  0.6278  1.2141  0.0583
 5940TIP3   OH242014   6.549   5.190  11.736  0.5508 -0.2671  0.1891
 5940TIP3    H142015   6.635   5.153  11.715  0.7943  0.8485 -0.9211
 5940TIP3    H242016   6.499   5.184  11.654 -0.0626  0.0651  0.5235
 5941TIP3   OH242017   1.329   4.846  10.010 -0.5311  0.0759  0.0099
 5941TIP3    H142018   1.255   4.856   9.949 -2.5440  2.7000  2.5454
 5941TIP3    H242019   1.335   4.752  10.026 -1.8831 -0.4061 -1.9267
 5942TIP3   OH242020   0.532   7.674  10.239 -0.4241  0.1365 -0.6279
 5942TIP3    H142021   0.566   7.752  10.283 -1.5255  1.9946 -2.8678
 5942TIP3    H242022   0.439   7.672  10.262 -0.4718 -0.3314 -0.8424
 5943TIP3   OH242023   7.385   1.620  10.906  0.2979 -0.1262  0.7577
 5943TIP3    H142024   7.368   1.684  10.837  0.2453  0.8925  1.6982
 5943TIP3    H242025   7.440   1.666  10.969  2.0919 -1.6763  0.4161
 5944TIP3   OH242026   0.167   0.020   9.955  0.1646 -0.2004  0.2195
 5944TIP3    H142027   0.161   0.081  10.028 -0.0667  0.5105 -0.3834
 5944TIP3    H242028   0.116   0.060   9.885  0.1309 -1.0128 -0.2439
 5945TIP3   OH242029   3.083   3.398  12.563  0.2040 -0.0784  0.0475
 5945TIP3    H142030   3.027   3.332  12.604  0.8433  0.0958  1.2430
 5945TIP3    H242031   3.068   3.477  12.615  1.4448  0.0086  0.2973
 5946TIP3   OH242032   3.152   1.674  11.671 -0.3466 -0.7236 -0.5032
 5946TIP3    H142033   3.074   1.623  11.693 -0.2099 -1.0368 -0.7492
 5946TIP3    H242034   3.225   1.620  11.700 -0.2080 -0.5735 -0.5743
 5947TIP3   OH242035   6.973   2.769  11.189 -0.6460  0.6489  0.4631
 5947TIP3    H142036   7.000   2.767  11.281  0.0906  0.3151  0.2434
 5947TIP3    H242037   7.028   2.837  11.150 -0.7935  0.6230  0.2120
 5948TIP3   OH242038   1.842   2.650  11.176  0.0194  0.2962  0.1018
 5948TIP3    H142039   1.831   2.723  11.237 -2.8121 -0.6335  0.8358
 5948TIP3    H242040   1.883   2.581  11.228 -0.7202  0.1251  0.4659
 5949TIP3   OH242041   2.220   1.064  11.933  0.0499 -0.7999  0.1239
 5949TIP3    H142042   2.183   1.036  11.849 -0.9533  1.3514 -0.2303
 5949TIP3    H242043   2.182   1.004  11.997  0.6234 -2.3149 -0.8798
 5950TIP3   OH242044   5.276   5.702  10.684 -0.1362 -0.5432 -0.0763
 5950TIP3    H142045   5.247   5.620  10.724  1.3760 -0.9537  0.2325
 5950TIP3    H242046   5.282   5.682  10.590  1.9510 -1.3766  0.1836
 5951TIP3   OH242047   7.153   3.249  10.454  0.5392 -0.0338 -0.2326
 5951TIP3    H142048   7.159   3.263  10.359  0.3118  2.4141  0.0366
 5951TIP3    H242049   7.125   3.158  10.463  0.2240 -0.2357 -2.5271
 5952TIP3   OH242050   1.380   0.176  12.016 -0.5648  0.2000 -0.3023
 5952TIP3    H142051   1.468   0.141  12.000 -0.5983 -0.3583  0.6590
 5952TIP3    H242052   1.377   0.257  11.965 -0.0424 -0.5501 -1.5738
 5953TIP3   OH242053   2.205   3.427  11.712  0.0297  0.5074  0.2584
 5953TIP3    H142054   2.269   3.364  11.746 -0.3637  1.8277  3.8507
 5953TIP3    H242055   2.129   3.374  11.689  0.4751 -0.5645  1.1625
 5954TIP3   OH242056   2.164   4.366  11.408  0.0291 -0.5600  0.1339
 5954TIP3    H142057   2.188   4.306  11.478 -0.4009 -0.2046  0.5868
 5954TIP3    H242058   2.248   4.393  11.370  0.2530 -0.8795  0.3977
 5955TIP3   OH242059   2.837   5.773  11.160  0.4830 -0.0537  0.3013
 5955TIP3    H142060   2.929   5.797  11.160  0.8016 -1.2189  0.4867
 5955TIP3    H242061   2.829   5.708  11.089 -0.1050 -0.2709  0.5551
 5956TIP3   OH242062   4.404   1.748  18.441 -0.2023 -0.1162  0.3018
 5956TIP3    H142063   4.438   1.829  18.478 -0.0073  0.2734 -0.6947
 5956TIP3    H242064   4.348   1.777  18.368 -0.0996 -0.8711 -0.0845
 5957TIP3   OH242065   0.456   3.449  10.546 -0.2796  0.0155 -0.2367
 5957TIP3    H142066   0.437   3.501  10.468  1.4500  3.1368  1.2382
 5957TIP3    H242067   0.537   3.403  10.525  0.6821  1.5507 -0.0869
 5958TIP3   OH242068   3.944   4.050  11.360 -0.2587  0.2684 -0.3771
 5958TIP3    H142069   3.928   3.969  11.408 -0.3881 -0.2553 -1.2748
 5958TIP3    H242070   4.035   4.043  11.330  0.2428  1.1663  0.8322
 5959TIP3   OH242071   2.899   2.395  11.152 -0.5947  0.2152 -0.1176
 5959TIP3    H142072   2.987   2.358  11.159 -1.5683 -2.3290 -0.1662
 5959TIP3    H242073   2.904   2.453  11.077  1.3771  1.3042  0.7669
 5960TIP3   OH242074   1.018   0.418  11.185  0.1882 -0.5288 -0.1186
 5960TIP3    H142075   0.971   0.478  11.127 -0.9422 -1.3628 -0.0953
 5960TIP3    H242076   1.034   0.341  11.131 -0.1915 -1.0091  0.4529
 5961TIP3   OH242077   1.921   1.218  11.518  0.0123  0.2033 -0.3436
 5961TIP3    H142078   1.934   1.134  11.563  0.1128  0.1207 -0.5270
 5961TIP3    H242079   1.835   1.210  11.477 -0.9155  0.9558  1.3303
 5962TIP3   OH242080   4.617   6.069  12.581 -0.1665  0.6074  0.4979
 5962TIP3    H142081   4.543   6.057  12.521 -0.6688 -0.8584  1.3463
 5962TIP3    H242082   4.649   5.980  12.597  2.0227  1.2298 -0.1020
 5963TIP3   OH242083   1.895   0.014  12.030 -0.1837 -0.2076 -0.3142
 5963TIP3    H142084   1.938   0.100  12.038 -0.9556  0.0560  1.2662
 5963TIP3    H242085   1.968  -0.048  12.024  0.4466  0.3213  1.3456
 5964TIP3   OH242086   5.141   3.426  10.494 -0.3555  0.2561 -0.2052
 5964TIP3    H142087   5.073   3.484  10.459 -0.2667 -0.3394 -1.4414
 5964TIP3    H242088   5.206   3.486  10.532 -1.8294  0.8111  1.5937
 5965TIP3   OH242089   2.504   0.814  13.152 -0.3135 -0.1725 -0.0985
 5965TIP3    H142090   2.569   0.803  13.221  1.5805  0.0158 -1.7411
 5965TIP3    H242091   2.533   0.891  13.104 -1.2288 -0.6278 -1.4476
 5966TIP3   OH242092   0.057   7.420  10.460  0.1666 -0.3332 -0.1507
 5966TIP3    H142093   0.129   7.407  10.522 -1.3523 -1.9632  1.4006
 5966TIP3    H242094   0.023   7.507  10.480 -2.0476 -1.7916  3.4409
 5967TIP3   OH242095   4.175   2.716  11.841  0.1337 -0.5501  0.0950
 5967TIP3    H142096   4.212   2.758  11.919  0.5365  0.4041 -0.5905
 5967TIP3    H242097   4.251   2.686  11.792 -0.1359 -1.6031  0.2968
 5968TIP3   OH242098   4.075   6.200  10.251 -0.2407  0.5974  0.4420
 5968TIP3    H142099   4.097   6.291  10.275 -2.5146  1.3880 -0.1996
 5968TIP3    H242100   3.990   6.185  10.293 -0.5912 -0.7141 -0.6887
 5969TIP3   OH242101   1.803   2.515  12.963  0.0958  0.2350 -0.0029
 5969TIP3    H142102   1.784   2.470  13.045  2.3879  2.4290  1.9126
 5969TIP3    H242103   1.899   2.525  12.962 -0.0083  1.9333 -1.9861
 5970TIP3   OH242104   0.840   2.587  10.744  0.0867 -0.1917 -0.3656
 5970TIP3    H142105   0.928   2.623  10.743  0.5262 -1.0407  1.6508
 5970TIP3    H242106   0.783   2.664  10.750  0.9120  0.3337  1.8318
 5971TIP3   OH242107   1.519   2.274  12.855 -0.1914 -0.0113  0.1885
 5971TIP3    H142108   1.471   2.191  12.852  0.3155 -0.2824 -1.2370
 5971TIP3    H242109   1.563   2.273  12.940  0.9533 -1.8913 -0.3600
 5972TIP3   OH242110   0.041   3.278  11.112 -0.3511  0.1009  0.0628
 5972TIP3    H142111  -0.023   3.292  11.043 -0.1508  0.0365 -0.1370
 5972TIP3    H242112   0.116   3.238  11.068  0.1922  1.0269  0.1272
 5973TIP3   OH242113   4.041   6.752  11.694  0.4492 -0.0187  0.0991
 5973TIP3    H142114   4.048   6.659  11.671  0.0393  0.3755 -1.7530
 5973TIP3    H242115   3.961   6.756  11.747  0.6878 -0.7710  0.5414
 5974TIP3   OH242116   5.325   2.919  10.239 -0.2435  0.3889 -0.1678
 5974TIP3    H142117   5.247   2.966  10.207  0.3989  0.9582 -0.9367
 5974TIP3    H242118   5.385   2.987  10.267 -0.6277 -0.0807  2.0200
 5975TIP3   OH242119   0.527   0.114  11.001  0.0938 -0.6309  0.4495
 5975TIP3    H142120   0.449   0.061  11.020 -2.0572  1.6013 -1.4050
 5975TIP3    H242121   0.543   0.164  11.081 -0.4535 -1.0356  0.8199
 5976TIP3   OH242122   3.619   4.313   9.804  0.3919  0.4506 -0.1262
 5976TIP3    H142123   3.659   4.375   9.743  0.4330  2.6510  1.9710
 5976TIP3    H242124   3.528   4.306   9.776  0.9612 -0.4914 -1.8301
 5977TIP3   OH242125   1.630   7.347  11.322  0.0927 -0.0868 -0.2705
 5977TIP3    H142126   1.542   7.318  11.345  0.1361 -0.5175 -0.6179
 5977TIP3    H242127   1.679   7.265  11.309  0.5916  0.1492  0.1003
 5978TIP3   OH242128   6.126   5.358  10.980 -0.3888 -0.1703  0.3570
 5978TIP3    H142129   6.198   5.420  10.967 -0.6756 -0.0421 -0.7830
 5978TIP3    H242130   6.050   5.402  10.942 -1.4924  0.4190  3.0509
 5979TIP3   OH242131   1.906   0.832  10.671 -0.5113  0.1322  0.2025
 5979TIP3    H142132   1.989   0.874  10.693 -1.2043  0.2904  2.7685
 5979TIP3    H242133   1.840   0.897  10.693 -1.4083 -0.7952  0.3229
 5980TIP3   OH242134   5.557   0.794  11.781  0.0218 -0.2710  0.4341
 5980TIP3    H142135   5.464   0.817  11.773 -0.0432 -0.8472 -0.7554
 5980TIP3    H242136   5.556   0.704  11.811  0.1805 -0.3825  0.1118
 5981TIP3   OH242137   7.123   3.676  11.988 -0.4912 -0.6030  0.2833
 5981TIP3    H142138   7.172   3.756  12.008  0.0721 -1.0005  0.4812
 5981TIP3    H242139   7.189   3.609  11.974 -0.9400 -0.8765 -0.6224
 5982TIP3   OH242140   3.119   2.692  12.284 -0.2264  0.6756 -0.1170
 5982TIP3    H142141   3.152   2.745  12.357 -0.6831  1.6171 -0.5791
 5982TIP3    H242142   3.156   2.734  12.206  2.2197 -1.6845 -0.3818
 5983TIP3   OH242143   5.022   4.650  10.456  0.1755 -0.0514 -0.0996
 5983TIP3    H142144   4.986   4.604  10.531  0.5919 -1.5018 -0.7399
 5983TIP3    H242145   4.952   4.646  10.390  1.0700 -2.0442 -1.0174
 5984TIP3   OH242146   2.861   7.469  11.008 -1.0065 -0.3314 -0.1374
 5984TIP3    H142147   2.827   7.467  11.098  2.4587 -0.9355  1.3293
 5984TIP3    H242148   2.902   7.556  11.000  0.1288 -0.8825 -0.4956
 5985TIP3   OH242149   1.594   4.431  10.380 -0.2546  0.3136 -0.0293
 5985TIP3    H142150   1.573   4.389  10.464  0.1796  0.5195  0.1852
 5985TIP3    H242151   1.656   4.500  10.403 -0.2336  0.4563 -0.5075
 5986TIP3   OH242152   5.156   1.091  11.665 -0.2692  0.4680  0.0389
 5986TIP3    H142153   5.090   1.117  11.600  0.2537  0.6240 -0.4362
 5986TIP3    H242154   5.108   1.091  11.748 -1.1574 -0.5885 -0.4537
 5987TIP3   OH242155   3.900   3.297  10.166 -0.2070  0.1547  0.3496
 5987TIP3    H142156   3.850   3.228  10.208 -0.6238 -0.0028 -0.3906
 5987TIP3    H242157   3.953   3.252  10.101 -1.1458  0.6012 -0.7634
 5988TIP3   OH242158   6.707   4.329  12.615 -0.2820  0.0160  0.1724
 5988TIP3    H142159   6.788   4.378  12.612  0.7073 -1.3789  1.8333
 5988TIP3    H242160   6.638   4.393  12.597  1.0240  1.7444  1.1056
 5989TIP3   OH242161   6.508   3.951  11.395  0.0497 -0.3204  0.2285
 5989TIP3    H142162   6.552   4.036  11.402  0.8546 -0.4510 -2.2215
 5989TIP3    H242163   6.574   3.887  11.424 -0.0540 -0.2299  0.6748
 5990TIP3   OH242164   5.194   0.091  10.265  0.2034  0.0973 -0.2324
 5990TIP3    H142165   5.159   0.095  10.355 -0.3560  1.3255 -0.4816
 5990TIP3    H242166   5.242   0.173  10.254 -0.8136  0.5622 -1.4692
 5991TIP3   OH242167   4.897   1.603  10.402 -0.1300  0.1187 -0.0952
 5991TIP3    H142168   4.924   1.647  10.484  1.0404 -1.8756  0.6622
 5991TIP3    H242169   4.972   1.548  10.379 -1.2026 -0.8331 -1.4595
 5992TIP3   OH242170   0.354   2.933  12.112 -1.0048 -0.0965  0.7047
 5992TIP3    H142171   0.365   2.841  12.134 -1.5226 -1.0150 -2.3557
 5992TIP3    H242172   0.263   2.940  12.084 -1.3312  1.6752  2.0239
 5993TIP3   OH242173   7.156   6.899  10.777  0.0124  0.1524 -0.4329
 5993TIP3    H142174   7.127   6.822  10.827 -0.1320 -0.1164 -0.9142
 5993TIP3    H242175   7.212   6.863  10.708  0.0087  0.4859 -0.6132
 5994TIP3   OH242176   7.504   4.515  10.742 -0.3057 -0.1738 -0.3916
 5994TIP3    H142177   7.541   4.451  10.682  0.8607  0.9391 -0.9169
 5994TIP3    H242178   7.503   4.597  10.692 -2.7670  0.0507 -0.1161
 5995TIP3   OH242179   0.601   1.902  10.823  0.1220  0.2306  0.5924
 5995TIP3    H142180   0.661   1.839  10.782 -1.9121 -0.9169 -0.8353
 5995TIP3    H242181   0.658   1.959  10.874  2.1363 -2.6749  1.9109
 5996TIP3   OH242182   7.601   5.030  12.377 -0.2072 -0.0379 -0.4571
 5996TIP3    H142183   7.662   5.024  12.450 -0.3312  0.3182 -0.3207
 5996TIP3    H242184   7.560   4.944  12.372 -0.7746  0.1674  0.4054
 5997TIP3   OH242185   0.533   3.158   9.949 -0.0464 -0.5663 -0.1204
 5997TIP3    H142186   0.574   3.241   9.976  0.2251 -0.7724  0.1012
 5997TIP3    H242187   0.440   3.170   9.969  0.1186 -0.6360  0.7111
 5998TIP3   OH242188   0.287   0.602  11.459  0.1035 -0.3624  0.0323
 5998TIP3    H142189   0.277   0.695  11.441  0.5507 -0.6995 -2.1960
 5998TIP3    H242190   0.314   0.598  11.551  2.9346  1.9140 -0.5466
 5999TIP3   OH242191   7.610   5.333  11.872  0.5450  0.2566 -0.0256
 5999TIP3    H142192   7.603   5.350  11.778 -0.0887 -1.4979 -0.3398
 5999TIP3    H242193   7.526   5.363  11.908 -1.5457 -3.7273 -0.9131
 6000TIP3   OH242194   6.888   3.670  11.603  0.1136 -0.0544  0.3103
 6000TIP3    H142195   6.875   3.712  11.689 -1.2613 -0.8326  0.4981
 6000TIP3    H242196   6.979   3.691  11.581 -0.2119  2.1766  0.8532
 6001TIP3   OH242197   6.979   5.332  11.652 -0.2889  0.0509  0.0937
 6001TIP3    H142198   7.044   5.278  11.608  1.3789  1.2619  0.9245
 6001TIP3    H242199   6.919   5.360  11.583  2.0269  1.6041 -1.4364
 6002TIP3   OH242200   4.238   2.164  11.181  0.4362  0.0960 -0.3899
 6002TIP3    H142201   4.235   2.219  11.259  1.1299  0.8845 -0.8913
 6002TIP3    H242202   4.273   2.080  11.211  3.3119  1.2260 -0.2513
 6003TIP3   OH242203   6.962   5.506  11.867 -0.2813  0.2517 -0.9048
 6003TIP3    H142204   6.976   5.418  11.833 -2.6601 -0.8108  0.5888
 6003TIP3    H242205   6.885   5.538  11.819 -0.6774  0.6768 -0.0020
 6004TIP3   OH242206   1.319   0.695  11.506 -0.3356  0.4868 -0.8865
 6004TIP3    H142207   1.316   0.600  11.497 -0.4920  0.1816  1.6755
 6004TIP3    H242208   1.376   0.711  11.581 -3.8390  2.0870  1.7070
 6005TIP3   OH242209   6.350   5.217  11.528  0.0251 -0.2988 -0.0360
 6005TIP3    H142210   6.257   5.227  11.548  0.5825  1.0181  2.1325
 6005TIP3    H242211   6.367   5.282  11.460 -0.3394  0.4760  0.6062
 6006TIP3   OH242212   3.091   6.579  10.909  0.2719  0.3009  0.1737
 6006TIP3    H142213   3.161   6.521  10.939  1.4405  1.0596 -1.0079
 6006TIP3    H242214   3.103   6.659  10.960  0.0284  0.3079  0.2227
 6007TIP3   OH242215   6.556   5.215  12.867  0.3203 -0.5278 -0.1943
 6007TIP3    H142216   6.610   5.215  12.788  1.1399 -0.1461  0.3536
 6007TIP3    H242217   6.540   5.122  12.885  1.9369 -0.7384  0.3760
 6008TIP3   OH242218   2.531   6.757  12.052  0.0081  0.0279  0.0361
 6008TIP3    H142219   2.540   6.835  12.107  1.1793 -0.5236  0.6730
 6008TIP3    H242220   2.599   6.698  12.084 -1.3622 -1.5833  0.1063
 6009TIP3   OH242221   1.016   2.061  11.026  0.2016  0.5143  0.0600
 6009TIP3    H142222   1.044   1.997  11.091  2.9312  1.9730  0.4799
 6009TIP3    H242223   0.974   2.009  10.957  2.5204 -1.7823  0.2295
 6010TIP3   OH242224   4.852   5.402  10.264  0.2780 -0.1963  0.0860
 6010TIP3    H142225   4.891   5.471  10.317  0.1633 -0.6766  0.8019
 6010TIP3    H242226   4.917   5.331  10.266 -0.6134 -1.0100  1.3014
 6011TIP3   OH242227   0.704   6.446  10.908  0.1233  0.9236 -0.6907
 6011TIP3    H142228   0.715   6.351  10.913  1.5828  1.1116  0.0484
 6011TIP3    H242229   0.621   6.458  10.861 -0.0264 -0.7048 -0.8915
 6012TIP3   OH242230   4.468   0.439  10.488 -0.3717 -0.3681 -0.0504
 6012TIP3    H142231   4.475   0.507  10.555  0.7191  0.3274 -0.8345
 6012TIP3    H242232   4.559   0.416  10.469 -0.6852 -0.8421 -1.0063
 6013TIP3   OH242233   2.482   6.555  11.727 -0.0497  0.4629  0.1487
 6013TIP3    H142234   2.529   6.473  11.710 -1.5200 -0.8390  1.9536
 6013TIP3    H242235   2.484   6.601  11.643  1.6989 -0.9489 -0.6443
 6014TIP3   OH242236   5.529   4.944  10.357 -0.4470 -0.2674 -0.1856
 6014TIP3    H142237   5.560   5.035  10.349 -0.5333 -0.2926 -0.7977
 6014TIP3    H242238   5.434   4.952  10.365 -0.4116 -0.2766  0.2789
 6015TIP3   OH242239   2.818   0.422  11.035 -0.4175 -0.0247 -0.1020
 6015TIP3    H142240   2.874   0.485  11.080  0.0636 -0.0344 -0.6749
 6015TIP3    H242241   2.785   0.365  11.105  0.1275  0.1007  0.2642
 6016TIP3   OH242242   3.481   4.519  12.499  0.0988 -0.1007  0.1276
 6016TIP3    H142243   3.439   4.434  12.512  1.8394 -1.1570 -0.6889
 6016TIP3    H242244   3.435   4.578  12.558 -3.1277 -0.8941 -1.3902
 6017TIP3   OH242245   2.540   7.036   9.755 -0.3684  0.2792 -0.3640
 6017TIP3    H142246   2.457   7.007   9.718 -0.0910  1.7969 -2.3581
 6017TIP3    H242247   2.527   7.129   9.775  0.7243  0.4421 -0.3094
 6018TIP3   OH242248   0.260   2.488  10.161  0.0111  0.2957 -0.0267
 6018TIP3    H142249   0.263   2.392  10.163  2.7532  0.2619  3.1581
 6018TIP3    H242250   0.179   2.510  10.207 -0.5351 -0.4324 -0.6010
 6019TIP3   OH242251   5.111   7.411  12.280  0.5635 -0.3744  0.4296
 6019TIP3    H142252   5.018   7.408  12.304  0.3838 -0.7506 -0.2677
 6019TIP3    H242253   5.139   7.500  12.300 -0.1388 -0.0472 -0.0228
 6020TIP3   OH242254   0.986   5.937  11.763  0.0103 -0.6968 -0.4713
 6020TIP3    H142255   1.080   5.943  11.745 -0.0122 -0.7134 -0.5993
 6020TIP3    H242256   0.975   5.978  11.848 -0.0618  0.6027 -1.0796
 6021TIP3   OH242257   3.400   5.556  11.553 -0.4528 -0.1413 -0.2110
 6021TIP3    H142258   3.386   5.517  11.639  0.3755  0.4258  0.1940
 6021TIP3    H242259   3.435   5.484  11.500 -2.2993 -0.8820 -0.5134
 6022TIP3   OH242260   1.095   1.800  10.616  0.4273  0.0306 -0.3737
 6022TIP3    H142261   1.178   1.821  10.660 -0.5493 -0.1898  1.6641
 6022TIP3    H242262   1.100   1.706  10.598  0.8075  0.1109 -0.7062
 6023TIP3   OH242263   4.116   5.382  11.280 -0.4778 -0.1009  0.3355
 6023TIP3    H142264   4.065   5.431  11.216  0.4711  0.1387 -0.2603
 6023TIP3    H242265   4.054   5.318  11.316 -0.4284 -2.2194 -2.8754
 6024TIP3   OH242266   6.337   1.856  10.847 -0.3405  0.2569  0.0528
 6024TIP3    H142267   6.261   1.837  10.791  0.2419 -1.7125 -0.1498
 6024TIP3    H242268   6.386   1.922  10.799 -0.9351  0.1403 -0.7468
 6025TIP3   OH242269   3.465   5.463  10.105  0.0476 -0.3299  0.0033
 6025TIP3    H142270   3.519   5.400  10.058  1.6599 -0.3348  1.7072
 6025TIP3    H242271   3.469   5.435  10.197  0.5667  2.0038  0.7729
 6026TIP3   OH242272   1.443   4.268  11.811  0.5357  0.0101  0.3577
 6026TIP3    H142273   1.358   4.262  11.768  0.2516 -0.6194  1.0059
 6026TIP3    H242274   1.471   4.178  11.824  0.6256  0.1870  1.4909
 6027TIP3   OH242275   2.398   0.659  10.999 -0.0593  0.0370  0.8100
 6027TIP3    H142276   2.468   0.605  10.964 -0.2785  0.8766 -1.0030
 6027TIP3    H242277   2.402   0.645  11.094  3.0753  0.7073  0.8632
 6028TIP3   OH242278   3.007   2.928  12.548  0.3521  0.3702  0.4404
 6028TIP3    H142279   3.086   2.889  12.512 -0.5050 -1.4906  0.4405
 6028TIP3    H242280   2.938   2.905  12.485 -0.4361  0.7203  1.1486
 6029TIP3   OH242281   2.128   7.525  11.997  0.0921  0.0617 -0.1142
 6029TIP3    H142282   2.177   7.548  12.075  2.8207  0.1484 -1.7382
 6029TIP3    H242283   2.123   7.429  11.999  1.0241  0.0040 -0.3087
 6030TIP3   OH242284   1.649   7.117  12.355  0.5944 -0.7375 -0.6866
 6030TIP3    H142285   1.631   7.182  12.423 -1.2156  0.2723 -2.0401
 6030TIP3    H242286   1.615   7.035  12.390  0.4942 -0.4211 -0.0341
 6031TIP3   OH242287   0.266   1.726  10.441  0.1833  0.0291 -0.2707
 6031TIP3    H142288   0.315   1.706  10.520 -2.6025 -2.1714  1.0917
 6031TIP3    H242289   0.223   1.643  10.418 -0.5429  1.0668 -3.0393
 6032TIP3   OH242290   0.164   7.483  11.264 -0.1359  0.1469 -0.0780
 6032TIP3    H142291   0.190   7.391  11.276 -0.3716 -0.0839 -1.2659
 6032TIP3    H242292   0.076   7.478  11.227 -0.0610  0.8552 -0.3507
 6033TIP3   OH242293   5.152   5.536  11.010 -0.1186 -0.4134  0.1795
 6033TIP3    H142294   5.204   5.476  10.956  1.5538  0.4948  0.7080
 6033TIP3    H242295   5.061   5.516  10.986  0.5089 -0.3983 -2.6041
 6034TIP3   OH242296   2.530   4.559  11.959 -0.2739  0.2674  0.3141
 6034TIP3    H142297   2.543   4.654  11.956 -0.1057  0.3426  2.2353
 6034TIP3    H242298   2.495   4.537  11.872  0.9403  1.8733 -0.6471
 6035TIP3   OH242299   3.125   0.538  11.394 -0.7075 -0.1633 -0.7665
 6035TIP3    H142300   3.083   0.552  11.309 -1.3937 -0.0353 -0.4066
 6035TIP3    H242301   3.053   0.521  11.454 -0.0955 -3.4917 -0.7880
 6036TIP3   OH242302   3.011   7.330  11.465 -0.3319 -0.4694 -0.1487
 6036TIP3    H142303   2.917   7.321  11.481  0.1603 -2.2597  2.3880
 6036TIP3    H242304   3.048   7.348  11.551  1.6375  0.5498 -1.1623
 6037TIP3   OH242305   2.693   5.309  10.002 -0.0591  0.3165  0.3881
 6037TIP3    H142306   2.761   5.247  10.028  0.4792  0.2229 -1.1476
 6037TIP3    H242307   2.612   5.272  10.038  0.2711 -1.2453 -0.4014
 6038TIP3   OH242308   3.819   3.137  11.777 -0.0693 -0.2836 -0.5787
 6038TIP3    H142309   3.874   3.084  11.719  0.5225  1.3204 -1.5264
 6038TIP3    H242310   3.880   3.200  11.817 -1.2524  2.0446 -2.2270
 6039TIP3   OH242311   3.513   0.614  10.733 -0.4545  0.1543 -0.2055
 6039TIP3    H142312   3.580   0.630  10.800 -0.2860 -0.7489 -0.1360
 6039TIP3    H242313   3.430   0.632  10.777 -0.2646  1.1851 -0.2626
 6040TIP3   OH242314   6.211   6.474   9.886  0.2158 -0.8133  0.0886
 6040TIP3    H142315   6.122   6.499   9.912  0.9178 -1.0172  3.0413
 6040TIP3    H242316   6.265   6.550   9.909  0.8298 -0.6252 -1.8334
 6041TIP3   OH242317   1.701   0.716  10.481 -0.5462 -0.0229 -0.1650
 6041TIP3    H142318   1.729   0.790  10.427 -2.2373  0.4719 -0.4363
 6041TIP3    H242319   1.688   0.753  10.568  1.6012 -0.6975  0.5070
 6042TIP3   OH242320   7.646   0.410  11.513 -0.0379  0.3204  0.7815
 6042TIP3    H142321   7.610   0.451  11.592  0.3529  0.1442  1.0517
 6042TIP3    H242322   7.690   0.482  11.467 -0.7107  0.5315  0.4616
 6043TIP3   OH242323   6.978   4.332  12.313 -0.2277  0.7534 -0.0468
 6043TIP3    H142324   7.045   4.398  12.329 -0.9482  1.7465 -1.0183
 6043TIP3    H242325   7.024   4.248  12.325  1.3384  1.3999 -1.2319
 6044TIP3   OH242326   6.338   0.898  12.891 -0.3736  0.3455 -0.4767
 6044TIP3    H142327   6.433   0.911  12.889 -0.3227 -0.0424 -0.8722
 6044TIP3    H242328   6.301   0.980  12.859 -0.1492  0.3007 -0.8512
 6045TIP3   OH242329   1.873   0.928  12.766 -0.1054 -0.1311  0.0001
 6045TIP3    H142330   1.903   1.008  12.809 -0.9483 -1.0259  2.3766
 6045TIP3    H242331   1.795   0.955  12.717  0.6309  0.8134 -0.7026
 6046TIP3   OH242332   2.754   6.077  11.515  0.0124  0.1870  0.4181
 6046TIP3    H142333   2.842   6.053  11.486 -1.5768 -2.9873 -2.5500
 6046TIP3    H242334   2.716   6.125  11.442 -1.8319 -1.7734 -0.0281
 6047TIP3   OH242335   2.559   3.325  11.825  0.1899 -0.1089 -0.3060
 6047TIP3    H142336   2.602   3.249  11.864 -0.8283  0.2738  1.6711
 6047TIP3    H242337   2.546   3.300  11.733  1.7867 -1.4424 -0.2296
 6048TIP3   OH242338   3.672   4.433  11.588 -0.2837  0.1687 -0.3855
 6048TIP3    H142339   3.654   4.431  11.494  0.3897  0.2769 -0.5218
 6048TIP3    H242340   3.587   4.447  11.628 -0.4118  1.4500 -1.0378
 6049TIP3   OH242341   1.388   3.063  10.111 -0.0480  0.3622  0.0991
 6049TIP3    H142342   1.477   3.072  10.078  0.6898  0.4669  1.9822
 6049TIP3    H242343   1.363   3.152  10.137  0.2882 -0.0160  1.8643
 6050TIP3   OH242344   0.892   0.383  12.883  0.5504  0.2525 -0.5528
 6050TIP3    H142345   0.940   0.301  12.869  0.5596  0.0386  0.6157
 6050TIP3    H242346   0.947   0.433  12.944  0.1597  0.7785 -0.6227
 6051TIP3   OH242347   2.506   1.155  10.401 -0.3543  0.0947 -1.0352
 6051TIP3    H142348   2.588   1.205  10.392  0.2638 -0.5956  0.3799
 6051TIP3    H242349   2.474   1.178  10.488 -1.0945 -0.4671 -1.1548
 6052TIP3   OH242350   3.009   0.554  10.434  0.0071  0.4666  0.0409
 6052TIP3    H142351   3.036   0.575  10.345 -0.5504  0.2170 -0.1924
 6052TIP3    H242352   3.053   0.471  10.453  1.6114  1.4096  0.6900
 6053TIP3   OH242353   1.835   0.147  12.415 -0.2390  0.4267  0.2823
 6053TIP3    H142354   1.744   0.175  12.410 -0.0104  1.0631 -0.4019
 6053TIP3    H242355   1.884   0.225  12.442  0.2099  0.3185 -0.1988
 6054TIP3   OH242356   3.801   7.355  12.381 -0.1612 -0.1586 -0.0363
 6054TIP3    H142357   3.888   7.316  12.393  0.1165  0.3108 -0.4886
 6054TIP3    H242358   3.815   7.449  12.393 -0.1825  0.1659 -2.3009
 6055TIP3   OH242359   3.971   6.592  12.042 -1.0037  0.0399  0.4188
 6055TIP3    H142360   3.923   6.633  11.969  0.6663  0.7279 -0.3535
 6055TIP3    H242361   3.922   6.512  12.061 -2.6155  0.8513 -0.1014
 6056TIP3   OH242362   6.021   1.738  11.945  0.2609 -0.2558  0.0912
 6056TIP3    H142363   5.957   1.808  11.952  0.5573  0.1695 -1.2362
 6056TIP3    H242364   6.102   1.775  11.981  0.1800 -0.2421  0.2590
 6057TIP3   OH242365   3.736   5.393  11.197 -0.6099  0.0440 -0.0813
 6057TIP3    H142366   3.804   5.456  11.172 -0.0742 -0.5609 -0.1625
 6057TIP3    H242367   3.782   5.310  11.207 -1.3466 -0.3907 -0.2035
 6058TIP3   OH242368   2.678   3.478  10.319 -0.1611  0.1280 -0.4223
 6058TIP3    H142369   2.623   3.517  10.387  0.7803 -0.0565  0.4589
 6058TIP3    H242370   2.651   3.385  10.318 -1.2820  0.4272 -1.4276
 6059TIP3   OH242371   4.933   1.275  11.025 -0.5668 -0.1246  0.3929
 6059TIP3    H142372   4.979   1.358  11.013  0.5766 -0.5073  1.9364
 6059TIP3    H242373   4.919   1.243  10.936  0.1048  1.1057 -0.1809
 6060TIP3   OH242374   7.519   5.033  11.523 -0.2695 -0.4271 -0.3229
 6060TIP3    H142375   7.447   4.971  11.528  0.6789 -1.7945 -2.3668
 6060TIP3    H242376   7.522   5.059  11.431  0.4696  1.3207  0.1522
 6061TIP3   OH242377   4.885   5.318  11.967  0.4565 -0.7606  0.0146
 6061TIP3    H142378   4.802   5.311  12.014  0.8133  1.8011  1.1662
 6061TIP3    H242379   4.945   5.262  12.016 -0.0237 -0.8192  0.5472
 6062TIP3   OH242380   0.842   7.392  10.811  0.5278  0.1363 -0.4393
 6062TIP3    H142381   0.808   7.341  10.884  1.7545 -0.0966 -0.0030
 6062TIP3    H242382   0.803   7.351  10.733 -0.2226 -0.0698  0.0348
 6063TIP3   OH242383   1.220   7.481  10.287  0.2665 -0.3766 -0.1739
 6063TIP3    H142384   1.288   7.430  10.331  1.7815  0.9640 -0.8425
 6063TIP3    H242385   1.266   7.558  10.254 -1.6948  0.8002 -0.2863
 6064TIP3   OH242386   4.081   1.641  10.514 -0.2591  0.0238 -0.3842
 6064TIP3    H142387   4.135   1.572  10.552  0.5535  0.1061 -1.3378
 6064TIP3    H242388   4.011   1.654  10.577  1.3953  0.6318  1.4376
 6065TIP3   OH242389   2.619   5.116  11.754 -0.5413 -0.7732  1.0906
 6065TIP3    H142390   2.552   5.077  11.698 -1.4036  2.0482 -0.0334
 6065TIP3    H242391   2.693   5.131  11.695  0.7764 -2.9078  2.0926
 6066TIP3   OH242392   3.402   3.642  10.975  0.4837  0.3476 -0.1053
 6066TIP3    H142393   3.378   3.714  11.035 -0.1210  1.2886 -1.4318
 6066TIP3    H242394   3.320   3.597  10.957  0.6597  0.0803 -0.2482
 6067TIP3   OH242395   2.858   3.544  10.580 -0.3015  0.3729 -0.3252
 6067TIP3    H142396   2.880   3.527  10.671  0.9188  0.8734 -0.4985
 6067TIP3    H242397   2.763   3.549  10.578 -0.3449  0.2778  0.8968
 6068TIP3   OH242398   0.672   2.299  11.251  0.4682  0.0775  0.3739
 6068TIP3    H142399   0.745   2.285  11.311 -0.8130  1.6894  2.4742
 6068TIP3    H242400   0.711   2.341  11.175  1.7537  0.8931  1.4313
 6069TIP3   OH242401   5.401   0.674  12.876  0.3324 -0.3969 -0.1230
 6069TIP3    H142402   5.352   0.756  12.886  1.0681 -0.1935  2.5523
 6069TIP3    H242403   5.363   0.633  12.798 -3.1923  0.3636  0.9865
 6070TIP3   OH242404   5.318   7.642  11.207  0.4736 -0.2614 -0.5075
 6070TIP3    H142405   5.291   7.709  11.269 -2.0940 -0.6241 -1.0914
 6070TIP3    H242406   5.394   7.679  11.162  0.7838  1.0687  1.0506
 6071TIP3   OH242407   4.394   4.550  11.507 -0.5380 -0.0485 -0.4491
 6071TIP3    H142408   4.487   4.555  11.485 -0.8823 -0.9650 -2.3125
 6071TIP3    H242409   4.381   4.615  11.576  1.5171 -0.0758  0.0123
 6072TIP3   OH242410   6.967   3.038  10.339 -0.1871 -0.0078  0.5070
 6072TIP3    H142411   6.880   3.068  10.364 -0.1443  0.7615 -0.2290
 6072TIP3    H242412   6.982   2.959  10.392 -0.8238  0.5520  1.5373
 6073TIP3   OH242413   2.203   4.881  10.214  0.1224  0.6610 -0.5039
 6073TIP3    H142414   2.297   4.882  10.195 -0.0662  1.3145 -1.4601
 6073TIP3    H242415   2.161   4.868  10.129 -0.7029  2.0653 -0.3436
 6074TIP3   OH242416   1.528   3.574  11.584 -0.2873  0.2653 -0.4506
 6074TIP3    H142417   1.460   3.536  11.529 -2.2027  2.0185  0.5704
 6074TIP3    H242418   1.512   3.537  11.671  0.8125 -0.1836 -0.4240
 6075TIP3   OH242419   0.183   3.470  10.030  0.1126 -0.2100  0.0307
 6075TIP3    H142420   0.167   3.563  10.040 -0.9049 -0.5440  2.2764
 6075TIP3    H242421   0.230   3.461   9.947 -2.1059  1.9950 -1.5846
 6076TIP3   OH242422   2.796   1.034  10.745 -0.4046 -0.1307 -0.5474
 6076TIP3    H142423   2.856   1.008  10.815 -0.4782  0.4553 -0.2607
 6076TIP3    H242424   2.718   0.980  10.759  0.1017 -1.0136 -1.0195
 6077TIP3   OH242425   6.062   7.376  11.842  0.7271 -0.1808 -0.4274
 6077TIP3    H142426   6.113   7.435  11.898  2.6442  0.3444 -2.5778
 6077TIP3    H242427   6.111   7.294  11.844  0.2233 -0.4833 -0.5027
 6078TIP3   OH242428   6.750   5.046  11.655  0.4316 -0.0783 -1.0813
 6078TIP3    H142429   6.703   4.974  11.614  0.6024 -0.6209 -0.3509
 6078TIP3    H242430   6.803   5.084  11.585 -0.3072 -0.1171 -1.6644
 6079TIP3   OH242431   4.232   1.746  11.798 -0.1016 -0.3726 -0.0471
 6079TIP3    H142432   4.230   1.836  11.829  1.2133 -0.7825  1.3363
 6079TIP3    H242433   4.191   1.695  11.868 -1.5581 -0.7878 -1.1580
 6080TIP3   OH242434   2.047   7.287  10.769  0.1148  0.6248 -0.0034
 6080TIP3    H142435   2.047   7.236  10.689 -1.2453  1.5100 -0.6167
 6080TIP3    H242436   2.055   7.222  10.839  0.0038 -0.2725 -0.8046
 6081TIP3   OH242437   1.679   2.076  11.565  0.6151  0.1465 -0.0605
 6081TIP3    H142438   1.710   2.000  11.616 -0.3850 -0.2009  0.0494
 6081TIP3    H242439   1.625   2.125  11.627  0.7181  0.6004 -0.3283
 6082TIP3   OH242440   2.123   7.593  10.638 -0.3536  0.2271 -0.2382
 6082TIP3    H142441   2.183   7.667  10.637 -1.1383  0.8837 -0.1938
 6082TIP3    H242442   2.129   7.558  10.727 -0.0141  0.2665 -0.2466
 6083TIP3   OH242443   3.831   3.703  11.008  0.3280  0.2996 -0.6425
 6083TIP3    H142444   3.883   3.627  10.986  2.6308  1.6954 -0.3814
 6083TIP3    H242445   3.776   3.719  10.931  0.7839 -0.8300 -1.2137
 6084TIP3   OH242446   6.426   6.305  11.252 -0.0893  0.4176 -0.1996
 6084TIP3    H142447   6.497   6.289  11.314  0.3084  1.0168 -0.4858
 6084TIP3    H242448   6.353   6.253  11.285  0.2973  0.2648  0.4372
 6085TIP3   OH242449   2.228   7.161  11.043 -0.4536 -0.1318 -0.0024
 6085TIP3    H142450   2.217   7.113  11.125  2.4716 -1.2378 -0.1530
 6085TIP3    H242451   2.294   7.228  11.063  0.0539 -0.1945 -1.3367
 6086TIP3   OH242452   1.718   0.537  10.956  0.1511  0.7328 -0.0059
 6086TIP3    H142453   1.787   0.561  10.894  0.6319  0.7383  0.5289
 6086TIP3    H242454   1.720   0.441  10.956  0.6265  0.7396  0.5253
 6087TIP3   OH242455   0.260   4.762  10.905  0.2822  0.4000  0.0574
 6087TIP3    H142456   0.325   4.819  10.947  1.2267 -1.1511  0.7617
 6087TIP3    H242457   0.271   4.677  10.948 -4.8076  0.8795  3.0816
 6088TIP3   OH242458   5.065   7.216  11.860  0.0163  0.0620 -0.2335
 6088TIP3    H142459   5.100   7.161  11.790  2.2891 -0.6255  1.3181
 6088TIP3    H242460   5.073   7.306  11.826  2.8850 -0.0941 -0.2482
 6089TIP3   OH242461   5.024   6.864  12.119 -0.5907 -0.4051 -0.2515
 6089TIP3    H142462   5.018   6.932  12.186 -1.2625 -1.5018  0.8376
 6089TIP3    H242463   5.097   6.808  12.147  1.0710  0.7412 -2.0246
 6090TIP3   OH242464   1.585   1.445  10.196  0.4646  0.0779  0.1501
 6090TIP3    H142465   1.534   1.370  10.227  0.1195  0.6555  1.0306
 6090TIP3    H242466   1.557   1.457  10.105  1.8968 -1.9790 -0.6202
 6091TIP3   OH242467   7.401   5.399  10.856  0.5496  0.6585 -0.1493
 6091TIP3    H142468   7.488   5.360  10.853  0.4761  0.2818  1.5274
 6091TIP3    H242469   7.398   5.458  10.780  1.1850 -1.4631 -1.9371
 6092TIP3   OH242470   5.758   0.799  10.248 -0.4944  0.3354 -0.8731
 6092TIP3    H142471   5.709   0.881  10.242 -1.2836 -0.1882 -1.9693
 6092TIP3    H242472   5.849   0.823  10.234 -0.2935  1.4304  1.8699
 6093TIP3   OH242473   4.447   2.256  11.026  0.2496 -0.6692 -0.3096
 6093TIP3    H142474   4.458   2.195  10.953 -0.4676  0.3018 -1.2660
 6093TIP3    H242475   4.377   2.219  11.079  0.0940 -0.8825 -0.6643
 6094TIP3   OH242476   6.500   5.150  10.285 -0.2471 -0.0005 -0.1151
 6094TIP3    H142477   6.536   5.239  10.289 -5.5289  2.5034  0.3588
 6094TIP3    H242478   6.508   5.118  10.375 -1.7651  1.7594  0.7233
 6095TIP3   OH242479   4.165   6.453  10.298  0.1543  0.1123  0.1727
 6095TIP3    H142480   4.258   6.465  10.318  0.0448 -0.5445  1.1452
 6095TIP3    H242481   4.121   6.522  10.348  0.1317  0.6287 -0.5436
 6096TIP3   OH242482   3.384   1.804  12.698  0.6259 -0.0386  0.5124
 6096TIP3    H142483   3.408   1.876  12.639 -0.3771  0.5327  0.7740
 6096TIP3    H242484   3.289   1.797  12.689  0.5080 -0.2160  1.7579
 6097TIP3   OH242485   6.469   3.810  10.732  0.0689 -0.1025  0.4043
 6097TIP3    H142486   6.405   3.880  10.744 -0.7371 -0.5352 -1.0771
 6097TIP3    H242487   6.554   3.852  10.741 -0.4020  0.6703  1.4679
 6098TIP3   OH242488   5.231   4.121  11.513  0.0238  0.2443  0.1270
 6098TIP3    H142489   5.136   4.131  11.508 -0.0635 -0.6334 -0.0330
 6098TIP3    H242490   5.260   4.120  11.422  0.1994  0.6040  0.1775
 6099TIP3   OH242491   3.367   3.379  11.297 -0.0855 -0.5771  0.2693
 6099TIP3    H142492   3.275   3.352  11.287 -0.1335 -1.1866  2.0267
 6099TIP3    H242493   3.407   3.359  11.212 -1.2778 -1.5815 -0.0923
 6100TIP3   OH242494   3.384   6.142  11.561  0.3032  0.2303  0.4946
 6100TIP3    H142495   3.393   6.050  11.539  0.7579  0.2183  0.7139
 6100TIP3    H242496   3.463   6.163  11.611 -0.0010  0.6304  0.8165
 6101TIP3   OH242497   6.899   0.862  11.281  0.3166  0.1214 -0.3516
 6101TIP3    H142498   6.921   0.786  11.335  0.1704  0.5349  0.3001
 6101TIP3    H242499   6.806   0.876  11.296  0.2896  0.2845 -0.6609
 6102TIP3   OH242500   5.058   7.610  11.420 -0.0500 -0.2569 -0.0675
 6102TIP3    H142501   4.966   7.629  11.437 -0.2247 -1.3857  0.3001
 6102TIP3    H242502   5.100   7.614  11.506  0.0382 -0.8109 -0.0828
 6103TIP3   OH242503   5.813   4.427  11.467  0.0890 -0.5045  0.3618
 6103TIP3    H142504   5.742   4.372  11.434  0.9398 -1.4701  0.1053
 6103TIP3    H242505   5.861   4.454  11.388 -0.3757  0.7093  0.4737
 6104TIP3   OH242506   6.485   2.234  10.377  0.0648  0.2056  0.2344
 6104TIP3    H142507   6.524   2.222  10.290  0.5430 -0.2801  0.5073
 6104TIP3    H242508   6.421   2.163  10.385  1.9818 -1.4918  1.3459
 6105TIP3   OH242509   5.681   5.334  12.409  0.1506  0.0692  0.4254
 6105TIP3    H142510   5.707   5.294  12.492  1.4149  1.6665  0.8493
 6105TIP3    H242511   5.762   5.367  12.371 -0.5401  0.2251 -0.9995
 6106TIP3   OH242512   6.334   4.933  11.552 -0.0848 -0.0899  0.8258
 6106TIP3    H142513   6.374   4.880  11.621 -0.3366  0.3734  1.3348
 6106TIP3    H242514   6.339   5.023  11.585 -2.7369 -0.1228  1.5071
 6107TIP3   OH242515   7.544   5.527   9.788  0.7260 -0.5690  0.2701
 6107TIP3    H142516   7.617   5.571   9.744  2.1304 -2.4374  0.5785
 6107TIP3    H242517   7.504   5.595   9.842  3.0684  0.3077  1.0676
 6108TIP3   OH242518   1.769   2.578  12.690  0.2640 -0.0986 -0.6454
 6108TIP3    H142519   1.857   2.568  12.653  0.5267  0.1839 -0.1103
 6108TIP3    H242520   1.778   2.545  12.780 -0.1058  0.2082 -0.4975
 6109TIP3   OH242521   5.968   5.103  11.218  0.4856 -0.4728  0.2479
 6109TIP3    H142522   6.026   5.145  11.282  0.4253  1.2327 -0.7422
 6109TIP3    H242523   5.945   5.020  11.258  1.6510 -0.1281  1.7668
 6110TIP3   OH242524   5.382   0.839  10.101  0.3673 -0.0098  0.1372
 6110TIP3    H142525   5.431   0.915  10.133  0.7671 -0.4470  0.5934
 6110TIP3    H242526   5.449   0.771  10.092 -0.1049 -0.5125  0.4202
 6111TIP3   OH242527   1.496   4.974  11.342 -0.5819 -0.1400 -0.6414
 6111TIP3    H142528   1.560   5.039  11.313 -2.0122  1.0378 -1.2709
 6111TIP3    H242529   1.549   4.905  11.382  1.1374  0.2997 -2.0497
 6112TIP3   OH242530   5.697   6.708  12.054 -0.1627  0.0472 -0.1050
 6112TIP3    H142531   5.707   6.673  11.965 -0.9319 -1.7952  0.5011
 6112TIP3    H242532   5.640   6.784  12.043  1.8632  1.4908 -1.5015
 6113TIP3   OH242533   4.717   2.488   9.974 -0.0880  0.4899  0.9511
 6113TIP3    H142534   4.633   2.452  10.004 -0.3858 -0.5724 -0.9655
 6113TIP3    H242535   4.696   2.577   9.947 -0.6312  0.2332  0.4803
 6114TIP3   OH242536   7.332   5.697  12.509  0.4546 -0.1406 -0.0020
 6114TIP3    H142537   7.389   5.702  12.432 -0.0154  3.0374 -0.2802
 6114TIP3    H242538   7.379   5.745  12.577 -0.5521 -0.0580  0.6615
 6115TIP3   OH242539   6.435   6.070  12.211 -0.0151  0.3259 -0.2753
 6115TIP3    H142540   6.416   6.051  12.303  0.2586 -0.0538 -0.2919
 6115TIP3    H242541   6.530   6.060  12.204 -0.0371  0.3277 -0.6054
 6116TIP3   OH242542   7.424   4.721  12.233 -0.3037  0.3696 -0.2139
 6116TIP3    H142543   7.409   4.759  12.320 -3.1154 -1.3388  0.1589
 6116TIP3    H242544   7.519   4.707  12.229 -0.0847  0.4683  2.6061
 6117TIP3   OH242545   1.145   5.547  11.858  0.1714  0.8715 -0.1554
 6117TIP3    H142546   1.165   5.520  11.768  0.1048  0.7353 -0.1306
 6117TIP3    H242547   1.049   5.541  11.864  0.2253  0.0766  0.1675
 6118TIP3   OH242548   2.156   1.735  12.208  0.2753  0.1769  0.3412
 6118TIP3    H142549   2.156   1.793  12.284  1.0313  1.1999 -0.4235
 6118TIP3    H242550   2.079   1.760  12.158 -1.3616 -1.8170  1.7016
 6119TIP3   OH242551   3.082   1.381  10.679  0.1628  0.2222 -0.0590
 6119TIP3    H142552   3.134   1.314  10.723  0.1987  1.3821  1.7610
 6119TIP3    H242553   2.998   1.337  10.659  1.0283 -1.0363 -1.1361
 6120TIP3   OH242554   1.482   3.921  12.771  0.2847 -0.1910  0.3072
 6120TIP3    H142555   1.488   3.839  12.721  0.0928  0.3214 -0.5872
 6120TIP3    H242556   1.459   3.987  12.705  1.0305  0.6900  0.9044
 6121TIP3   OH242557   0.990   0.471  12.320  0.1706  0.2733  0.4742
 6121TIP3    H142558   0.992   0.469  12.416 -1.9790 -0.2351  0.5646
 6121TIP3    H242559   1.016   0.383  12.294 -0.2644  0.0878  0.6488
 6122TIP3   OH242560   3.078   6.343   9.994 -0.2336  0.0457  0.1332
 6122TIP3    H142561   3.017   6.345   9.921  0.1112 -1.3655 -0.2174
 6122TIP3    H242562   3.092   6.250  10.012 -0.5932  0.3369  2.2458
 6123TIP3   OH242563   6.497   4.643  11.360  0.1228 -0.4554  0.3894
 6123TIP3    H142564   6.507   4.739  11.357 -0.0172 -0.3904  1.5342
 6123TIP3    H242565   6.500   4.622  11.453  0.2125 -1.5836  0.1424
 6124TIP3   OH242566   6.709   6.820  11.400  0.0543  0.8613  0.0312
 6124TIP3    H142567   6.695   6.742  11.346  1.7677  2.0090 -2.2385
 6124TIP3    H242568   6.621   6.845  11.428 -0.7292 -0.7939 -0.7974
 6125TIP3   OH242569   0.862   7.129  11.445 -0.0044  0.0114  0.1329
 6125TIP3    H142570   0.864   7.210  11.496  1.4098 -0.3038  0.6200
 6125TIP3    H242571   0.772   7.097  11.453 -0.8386  1.9406 -0.7625
 6126TIP3   OH242572   2.286   2.072  11.427 -0.6680  0.7803  0.5223
 6126TIP3    H142573   2.317   2.090  11.516 -0.2769  0.2104  0.5057
 6126TIP3    H242574   2.197   2.039  11.440  0.0170 -1.0236  0.8552
 6127TIP3   OH242575   1.383   6.790  12.382  0.0151 -0.2937 -0.4061
 6127TIP3    H142576   1.344   6.871  12.348  1.7509  0.4684 -0.6937
 6127TIP3    H242577   1.329   6.767  12.457  0.4445  2.0858  0.7102
 6128TIP3   OH242578   0.118   2.993  12.305  0.1180 -0.6784 -0.0948
 6128TIP3    H142579   0.082   2.910  12.335  0.3176 -0.4677  0.7482
 6128TIP3    H242580   0.132   3.044  12.385 -1.0946  0.6312 -0.6735
 6129TIP3   OH242581   0.030   2.419  10.665 -0.3742 -0.1216 -0.0418
 6129TIP3    H142582   0.079   2.494  10.632  1.4111 -0.8386  0.8484
 6129TIP3    H242583   0.065   2.344  10.617  0.6692 -0.8781  1.8047
 6130TIP3   OH242584   7.024   2.012  12.476  0.2112 -0.2047  0.3008
 6130TIP3    H142585   6.961   2.020  12.404  1.3412 -3.1181 -1.1898
 6130TIP3    H242586   6.976   1.966  12.545 -0.4335  1.2652  0.8737
 6131TIP3   OH242587   6.859   6.034  11.021  0.2449 -0.5411  0.3405
 6131TIP3    H142588   6.803   5.993  10.956 -1.7808  2.0021  0.3372
 6131TIP3    H242589   6.925   6.080  10.970 -0.7181  0.5902  0.0855
 6132TIP3   OH242590   5.718   1.404  10.795 -0.2135 -0.7154 -0.0399
 6132TIP3    H142591   5.774   1.404  10.873  0.3618 -2.2956 -0.4206
 6132TIP3    H242592   5.738   1.487  10.751  0.4063 -0.3941  0.8123
 6133TIP3   OH242593   6.389   0.832  11.614 -0.1725 -0.4718 -0.3261
 6133TIP3    H142594   6.354   0.763  11.669  1.2044  0.6821  2.1337
 6133TIP3    H242595   6.317   0.852  11.553 -1.6574 -2.0071  0.8170
 6134TIP3   OH242596   1.460   7.133  10.153  0.0839 -0.3371 -0.0305
 6134TIP3    H142597   1.465   7.038  10.164 -1.1360 -0.4648 -0.4666
 6134TIP3    H242598   1.411   7.145  10.072  1.0258  0.6701 -0.4788
 6135TIP3   OH242599   7.085   2.244  11.063  0.2146 -0.0537 -0.5470
 6135TIP3    H142600   7.098   2.310  10.995 -2.5112  0.2804 -0.8490
 6135TIP3    H242601   7.100   2.161  11.019  0.2670  0.2323 -1.0728
 6136TIP3   OH242602   6.860   4.049  12.560 -0.1483 -0.1675  0.6575
 6136TIP3    H142603   6.865   4.137  12.598  0.4224 -0.4716  1.3035
 6136TIP3    H242604   6.932   4.046  12.497 -1.9992  0.8643 -1.6482
 6137TIP3   OH242605   2.927   7.557  10.018  0.2090  0.0636 -0.8144
 6137TIP3    H142606   3.001   7.610   9.988  0.6715  0.0559  0.2663
 6137TIP3    H242607   2.968   7.486  10.067 -0.5546  0.9157  1.1355
 6138TIP3   OH242608   6.745   4.236  10.512  1.1708 -0.7427 -0.0852
 6138TIP3    H142609   6.702   4.172  10.456 -0.7379  0.9018 -0.6403
 6138TIP3    H242610   6.747   4.195  10.598  0.6700 -1.8435 -0.5789
 6139TIP3   OH242611   6.043   5.404  12.572  0.2176  0.0917 -0.1237
 6139TIP3    H142612   6.045   5.499  12.558 -0.3378 -0.0693 -1.4960
 6139TIP3    H242613   6.125   5.384  12.618  0.1052  1.2896  0.6273
 6140TIP3   OH242614   0.154   3.840  11.503 -0.6254 -0.7204 -0.0824
 6140TIP3    H142615   0.165   3.745  11.509 -0.2569 -0.7844 -1.4447
 6140TIP3    H242616   0.237   3.872  11.469 -1.6299 -0.2349 -2.2483
 6141TIP3   OH242617   1.391   5.891  11.149  0.8596 -0.2858  0.1337
 6141TIP3    H142618   1.347   5.937  11.078 -0.0605  0.0594  0.9113
 6141TIP3    H242619   1.324   5.878  11.216  1.9553  0.4637  1.4493
 6142TIP3   OH242620   5.724   4.659  11.310  0.5985  0.0597 -0.0233
 6142TIP3    H142621   5.791   4.623  11.252  0.5215 -0.2000  0.0474
 6142TIP3    H242622   5.642   4.651  11.261 -0.0322 -3.2358  1.3325
 6143TIP3   OH242623   7.638   5.381  10.736  0.2646 -0.2486 -0.1081
 6143TIP3    H142624   7.687   5.354  10.658  2.0202  1.2235  0.4180
 6143TIP3    H242625   7.702   5.426  10.790 -0.7766 -1.6868  2.4728
 6144TIP3   OH242626   5.934   5.449  10.755 -0.2549 -0.4286 -0.5517
 6144TIP3    H142627   5.840   5.453  10.734 -0.1968 -1.3182 -1.0060
 6144TIP3    H242628   5.956   5.539  10.780 -0.7299  0.3132 -2.6136
 6145TIP3   OH242629   1.717   6.900  10.370 -0.5243 -0.0239  0.4367
 6145TIP3    H142630   1.698   6.937  10.456 -1.7352  1.4670 -0.4162
 6145TIP3    H242631   1.631   6.879  10.334 -0.1465  0.5744 -0.8973
 6146TIP3   OH242632   2.626   2.991  11.661  0.1322 -0.3727 -0.1034
 6146TIP3    H142633   2.701   3.044  11.634 -0.5130  1.2574  1.1446
 6146TIP3    H242634   2.551   3.037  11.624 -0.4650 -0.1988  1.2647
 6147TIP3   OH242635   3.014   6.012  11.424  0.1837  0.0194 -0.4879
 6147TIP3    H142636   2.996   5.968  11.341  1.3783  0.4888 -1.0312
 6147TIP3    H242637   3.034   5.941  11.485  0.4593 -0.2729 -0.9129
 6148TIP3   OH242638   1.306   6.386  11.808  0.2641 -1.0992 -0.2020
 6148TIP3    H142639   1.318   6.448  11.736  0.0443  0.8923  1.3782
 6148TIP3    H242640   1.282   6.304  11.765  0.9706 -0.2267 -2.4191
 6149TIP3   OH242641   5.660   1.248  10.075 -0.2196  0.5234 -0.0533
 6149TIP3    H142642   5.749   1.243  10.112  0.6680 -1.6820 -2.1796
 6149TIP3    H242643   5.665   1.320  10.013  1.1030 -1.3124 -2.2611
 6150TIP3   OH242644   3.888   4.523  10.042  0.1253  0.2881  0.6749
 6150TIP3    H142645   3.794   4.513  10.029  0.3654  0.0853 -1.1211
 6150TIP3    H242646   3.911   4.602   9.992  1.0387 -0.1407  0.3946
 6151TIP3   OH242647   4.577   2.920  11.688 -0.0102  0.0354  0.7617
 6151TIP3    H142648   4.515   2.848  11.701  3.4076 -3.4655 -0.4507
 6151TIP3    H242649   4.602   2.946  11.777 -1.2594 -0.2807  1.2272
 6152TIP3   OH242650   4.441   5.541  12.255 -0.5042 -0.1363 -0.0271
 6152TIP3    H142651   4.536   5.549  12.258 -0.5633  0.4704  1.1452
 6152TIP3    H242652   4.411   5.594  12.329 -1.7699 -0.0715 -0.5605
 6153TIP3   OH242653   1.727   4.865  11.146 -0.0910 -0.0388 -0.0445
 6153TIP3    H142654   1.748   4.917  11.223  0.7492 -0.7852  0.2456
 6153TIP3    H242655   1.691   4.929  11.084 -0.9149  0.5494  0.9953
 6154TIP3   OH242656   0.816   6.152  11.195 -0.2886  0.1178  0.2988
 6154TIP3    H142657   0.768   6.129  11.115  0.3766 -1.9376  0.4295
 6154TIP3    H242658   0.908   6.136  11.173 -0.2085 -1.9431  1.8855
 6155TIP3   OH242659   1.662   1.514  11.233  0.0839 -0.1922 -0.4409
 6155TIP3    H142660   1.710   1.530  11.315 -0.8135 -1.1587  0.3056
 6155TIP3    H242661   1.710   1.442  11.191 -0.9533 -1.5432  0.5762
 6156TIP3   OH242662   5.312   2.521  11.555  0.0508  0.0864 -0.0469
 6156TIP3    H142663   5.353   2.574  11.486 -1.6879  1.7953  0.1590
 6156TIP3    H242664   5.346   2.558  11.637  0.5991 -0.6663  0.0807
 6157TIP3   OH242665   7.330   2.792  10.146  0.0192 -0.4583  0.9393
 6157TIP3    H142666   7.303   2.751  10.228 -1.2732 -0.0777  0.7326
 6157TIP3    H242667   7.262   2.857  10.128  1.5695  1.2525  0.8472
 6158TIP3   OH242668   4.222   6.151  10.564  0.9453  0.5530  0.5172
 6158TIP3    H142669   4.134   6.187  10.576  0.8787  0.4185  0.4373
 6158TIP3    H242670   4.278   6.227  10.555  0.9500  0.6566  1.3709
 6159TIP3   OH242671   4.698   7.516  11.840  0.0886 -0.1085 -0.1604
 6159TIP3    H142672   4.625   7.575  11.857  0.8006  1.5544 -2.3857
 6159TIP3    H242673   4.699   7.457  11.915 -1.6666  1.6996  1.4066
 6160TIP3   OH242674   0.311   1.469  11.042  0.1012 -0.4038 -0.0159
 6160TIP3    H142675   0.348   1.395  11.089  0.6808  0.0427  0.2481
 6160TIP3    H242676   0.377   1.539  11.051 -0.9176  0.4942  0.6835
 6161TIP3   OH242677   2.018   1.858  13.139 -0.1355 -0.1113  0.6231
 6161TIP3    H142678   2.092   1.851  13.079 -0.4152 -1.2939  0.3955
 6161TIP3    H242679   2.054   1.837  13.225 -0.3456 -1.5525  0.3904
 6162TIP3   OH242680   1.774   7.090  12.890 -0.0932 -0.2972  0.1993
 6162TIP3    H142681   1.859   7.078  12.932 -1.0710  0.1054  2.4036
 6162TIP3    H242682   1.767   7.185  12.877 -0.0054 -0.3765 -0.4835
 6163TIP3   OH242683   0.070   4.888  11.656 -0.2644 -0.2124  0.1443
 6163TIP3    H142684   0.050   4.795  11.647  1.5586 -0.5549 -0.9022
 6163TIP3    H242685   0.010   4.932  11.596  1.0755 -1.0685 -1.9369
 6164TIP3   OH242686   2.402   4.018  10.906  0.5537  0.6431 -0.1530
 6164TIP3    H142687   2.482   3.964  10.908  0.4418  0.4476 -0.7818
 6164TIP3    H242688   2.339   3.964  10.858  0.5206  1.4465 -1.0255
 6165TIP3   OH242689   3.263   6.599   9.943  0.5061  0.0237  0.5131
 6165TIP3    H142690   3.219   6.516   9.965  0.7509 -0.3451 -0.3585
 6165TIP3    H242691   3.192   6.657   9.914  0.2651  0.3057  1.6120
 6166TIP3   OH242692   0.107   4.062  11.111  0.4306  0.1620  0.6144
 6166TIP3    H142693   0.048   4.129  11.146  0.6206  0.8403 -0.3325
 6166TIP3    H242694   0.068   4.038  11.027 -0.9688 -2.6819  1.9204
 6167TIP3   OH242695   5.879   2.822  11.774  0.4195 -0.1780  0.0353
 6167TIP3    H142696   5.972   2.802  11.773  0.6171  0.6966  0.6084
 6167TIP3    H242697   5.864   2.867  11.857 -0.4670 -0.0656 -0.1686
 6168TIP3   OH242698   5.001   6.733  11.009 -0.7483  0.5460 -0.1219
 6168TIP3    H142699   5.011   6.828  11.012  0.2310  0.5299 -1.6681
 6168TIP3    H242700   4.917   6.719  10.964  0.1084  0.7218 -1.8708
 6169TIP3   OH242701   1.655   1.213  17.449 -0.0987 -0.3806  0.4187
 6169TIP3    H142702   1.634   1.305  17.430  1.2798 -0.2332 -0.5425
 6169TIP3    H242703   1.574   1.166  17.430 -0.2692  0.4156 -0.9740
 6170TIP3   OH242704   0.626   3.432  11.214  0.4269 -0.6661 -0.4078
 6170TIP3    H142705   0.595   3.408  11.127 -0.0479 -0.6416 -0.2491
 6170TIP3    H242706   0.695   3.496  11.198 -1.5473  1.5134 -0.7220
 6171TIP3   OH242707   7.597   0.416  11.909 -0.3669  0.3211 -0.3001
 6171TIP3    H142708   7.526   0.480  11.916 -0.3671  0.7014 -2.8616
 6171TIP3    H242709   7.553   0.333  11.892 -0.2695  0.4740 -1.4124
 6172TIP3   OH242710   2.769   4.087   9.931  0.4382  0.2755 -0.2061
 6172TIP3    H142711   2.690   4.134   9.961  0.7772 -0.4593  2.0114
 6172TIP3    H242712   2.797   4.037  10.007  4.1429  1.9404 -0.2874
 6173TIP3   OH242713   0.286   1.791  11.173  0.0054 -0.0854  0.2253
 6173TIP3    H142714   0.203   1.746  11.160 -1.5649  2.5625  0.3824
 6173TIP3    H242715   0.294   1.799  11.268 -0.6861  1.5091  0.1773
 6174TIP3   OH242716   7.051   2.793  11.449 -0.2750 -0.0643  0.5852
 6174TIP3    H142717   7.142   2.818  11.461 -0.6062  1.7277 -0.3237
 6174TIP3    H242718   7.027   2.749  11.530  1.2840 -0.2472  0.9783
 6175TIP3   OH242719   0.936   0.968  10.391 -0.4456 -0.0686  0.3609
 6175TIP3    H142720   0.952   0.877  10.413 -0.2857  0.0426  0.7069
 6175TIP3    H242721   0.919   0.967  10.296  0.2329 -0.3699  0.2374
 6176TIP3   OH242722   2.100   3.231  11.502 -0.2203 -0.0408  0.4469
 6176TIP3    H142723   2.105   3.262  11.412 -0.7267  1.5840  0.9409
 6176TIP3    H242724   2.125   3.139  11.498  0.2579  0.1442 -1.2718
 6177TIP3   OH242725   4.729   7.070  10.174 -0.0293  0.1171 -0.3131
 6177TIP3    H142726   4.683   7.125  10.237 -0.2827 -2.7291  2.2283
 6177TIP3    H242727   4.822   7.092  10.186 -0.1219  0.0001  0.7272
 6178TIP3   OH242728   1.046   1.530  11.749 -0.7838  0.2628 -0.4875
 6178TIP3    H142729   1.037   1.566  11.838 -0.5652 -0.1957 -0.2773
 6178TIP3    H242730   0.957   1.523  11.717 -0.8454  0.7925 -0.4540
 6179TIP3   OH242731   3.577   3.167  10.711 -0.4148 -0.6798  0.0057
 6179TIP3    H142732   3.655   3.172  10.766 -0.2265  1.0565 -0.3633
 6179TIP3    H242733   3.506   3.196  10.767 -0.2449  0.9529 -0.5775
 6180TIP3   OH242734   3.206   0.760  12.473 -0.1943  0.7371  0.5621
 6180TIP3    H142735   3.157   0.688  12.511  0.1567 -0.0433 -0.4393
 6180TIP3    H242736   3.228   0.731  12.385  2.6565  0.7679  1.1783
 6181TIP3   OH242737   2.775   2.631  10.451  0.2061 -0.1872  0.3581
 6181TIP3    H142738   2.717   2.695  10.493  2.6624  2.7463 -0.4089
 6181TIP3    H242739   2.829   2.683  10.391  0.9057 -3.3406 -2.0134
 6182TIP3   OH242740   1.076   1.608  10.894 -0.1736 -0.3764 -0.6618
 6182TIP3    H142741   1.043   1.559  10.969  0.2573  0.1565 -0.1079
 6182TIP3    H242742   1.069   1.548  10.820 -0.4959 -0.9477 -0.1734
 6183TIP3   OH242743   2.740   7.339  10.374 -0.1256  0.5953 -0.2357
 6183TIP3    H142744   2.832   7.315  10.378 -0.1673  0.4780  0.0470
 6183TIP3    H242745   2.739   7.421  10.324  0.0599  0.2498 -0.8126
 6184TIP3   OH242746   4.509   6.642  11.236  0.4454  0.1462  0.5928
 6184TIP3    H142747   4.492   6.667  11.327  0.7448  1.2213  0.3633
 6184TIP3    H242748   4.432   6.590  11.212  0.5400 -0.4830  1.5700
 6185TIP3   OH242749   0.137   3.198  12.079  0.3043 -0.7218 -0.5163
 6185TIP3    H142750   0.184   3.169  12.001  0.6709 -0.1308 -0.5255
 6185TIP3    H242751   0.150   3.127  12.142  1.7545 -0.3120 -0.3098
 6186TIP3   OH242752   5.097   0.601  10.269  0.1194  0.2273  0.1548
 6186TIP3    H142753   5.189   0.623  10.281  0.5221 -1.5897  0.7640
 6186TIP3    H242754   5.098   0.512  10.234 -1.4061  0.0830  0.4169
 6187TIP3   OH242755   2.227   0.204  11.976 -0.1519  0.0199 -0.5144
 6187TIP3    H142756   2.152   0.219  12.034  0.0056 -0.0117 -0.3045
 6187TIP3    H242757   2.290   0.272  12.000  0.4240 -0.7522  0.2024
 6188TIP3   OH242758   2.868   3.102  10.835  0.7547 -0.2408 -0.2019
 6188TIP3    H142759   2.819   3.021  10.820  0.6618  0.2204 -2.8404
 6188TIP3    H242760   2.950   3.089  10.787  1.9357  0.2323  1.5707
 6189TIP3   OH242761   7.195   4.315  10.471 -0.5362 -0.2887  0.1197
 6189TIP3    H142762   7.141   4.238  10.486 -0.7573  0.0491  1.1708
 6189TIP3    H242763   7.133   4.382  10.440 -0.8556  0.2681  1.8750
 6190TIP3   OH242764   0.492   5.040  11.420  0.1963  0.4242  0.0372
 6190TIP3    H142765   0.436   4.963  11.430  2.0661 -1.0665 -0.3933
 6190TIP3    H242766   0.497   5.054  11.326  3.8878 -2.2176 -0.3771
 6191TIP3   OH242767   7.343   3.386  11.438 -0.1996 -0.1168 -0.5124
 6191TIP3    H142768   7.426   3.400  11.393  0.5161 -1.7628  0.1850
 6191TIP3    H242769   7.331   3.464  11.492  0.6577  0.3525 -0.9764
 6192TIP3   OH242770   6.742   6.960  12.302 -0.4407 -0.1045  0.3256
 6192TIP3    H142771   6.790   7.029  12.348  1.4031 -1.1163  0.0003
 6192TIP3    H242772   6.674   7.006  12.253 -0.1092  1.3362  1.1776
 6193TIP3   OH242773   3.041   3.991  10.639  0.1633 -0.1106  0.0421
 6193TIP3    H142774   3.067   3.915  10.586  1.5278 -1.0651  1.9679
 6193TIP3    H242775   3.031   3.956  10.728 -0.7593  1.6751  0.6915
 6194TIP3   OH242776   3.717   1.665  12.050  0.0267 -0.0129 -0.5532
 6194TIP3    H142777   3.804   1.702  12.064 -0.3444  0.2578  1.2182
 6194TIP3    H242778   3.708   1.597  12.117 -0.5964 -1.0366 -1.6321
 6195TIP3   OH242779   5.767   4.489  11.060  0.4716 -0.2130 -0.0622
 6195TIP3    H142780   5.757   4.509  10.967 -0.2004 -0.6573 -0.1000
 6195TIP3    H242781   5.727   4.402  11.070 -0.4111  0.2713  0.8233
 6196TIP3   OH242782   2.241   7.679  11.319 -0.4139  0.1758 -0.4772
 6196TIP3    H142783   2.193   7.596  11.320 -0.0541 -0.0411 -1.2924
 6196TIP3    H242784   2.172   7.746  11.318 -0.7036 -0.1036  0.0225
 6197TIP3   OH242785   6.103   6.768  12.415 -0.0501 -0.3186  0.3657
 6197TIP3    H142786   6.014   6.751  12.383 -0.8894  1.4883  1.5688
 6197TIP3    H242787   6.101   6.859  12.444  1.7425 -0.6918  1.8849
 6198TIP3   OH242788   3.520   1.230  11.881  0.7025 -0.3398  0.0057
 6198TIP3    H142789   3.530   1.203  11.790  0.8743 -0.8132  0.1610
 6198TIP3    H242790   3.602   1.206  11.923  0.9384  0.6125  0.1129
 6199TIP3   OH242791   0.208   4.848  10.626  0.3110  0.0613  0.4617
 6199TIP3    H142792   0.249   4.775  10.579 -1.1750 -0.9839  0.7182
 6199TIP3    H242793   0.227   4.830  10.719  1.1628  0.8062  0.4483
 6200TIP3   OH242794   3.846   0.458  10.533 -0.0882 -0.2074 -0.4768
 6200TIP3    H142795   3.913   0.391  10.549 -0.5821 -0.8291 -0.9636
 6200TIP3    H242796   3.887   0.540  10.562  0.1364 -0.8583  1.1191
 6201TIP3   OH242797   3.762   1.469  12.240  0.4037  0.6953  0.2166
 6201TIP3    H142798   3.805   1.470  12.325 -0.0353  0.1319  0.4548
 6201TIP3    H242799   3.668   1.474  12.260  0.3486  1.8961 -0.2913
 6202TIP3   OH242800   1.898   3.728  11.711 -0.0139  0.2508 -0.1413
 6202TIP3    H142801   1.850   3.759  11.787  0.8974 -0.5662  0.8002
 6202TIP3    H242802   1.989   3.721  11.741  0.1402 -1.4040 -0.8875
 6203TIP3   OH242803   5.788   6.925  10.454 -0.4130 -0.4459 -0.3897
 6203TIP3    H142804   5.776   6.874  10.534 -1.2740 -2.4006 -1.7003
 6203TIP3    H242805   5.708   6.909  10.403  0.0873  0.8116 -1.6332
 6204TIP3   OH242806   7.000   4.125  10.637  0.4485 -0.0959 -0.5363
 6204TIP3    H142807   7.053   4.080  10.703  2.5857  1.8009 -0.8576
 6204TIP3    H242808   6.942   4.183  10.688  1.7058  0.9604 -0.2728
 6205TIP3   OH242809   2.158   5.428  11.493  0.2532 -0.2296  0.0603
 6205TIP3    H142810   2.093   5.358  11.502 -0.2643 -0.1277 -2.2480
 6205TIP3    H242811   2.106   5.506  11.475  0.9477  0.2016 -0.1108
 6206TIP3   OH242812   2.587   6.313  10.837  0.6580 -0.2956  0.3375
 6206TIP3    H142813   2.552   6.345  10.921  0.4461  0.8644 -0.1826
 6206TIP3    H242814   2.681   6.305  10.852  0.5113 -1.0516  0.9786
 6207TIP3   OH242815   2.994   5.111  10.720 -0.0814  0.6639 -0.1565
 6207TIP3    H142816   3.039   5.141  10.799 -0.0549 -1.9864  0.9477
 6207TIP3    H242817   2.911   5.158  10.720 -0.8194 -0.4492  2.4623
 6208TIP3   OH242818   1.559   2.305  10.436 -0.3271  0.4747 -0.4786
 6208TIP3    H142819   1.612   2.291  10.358  0.5405 -0.7499  0.2983
 6208TIP3    H242820   1.484   2.246  10.425 -1.1061  1.5706 -1.1735
 6209TIP3   OH242821   7.469   3.247  10.105 -0.1119  0.0697  0.0458
 6209TIP3    H142822   7.499   3.157  10.102 -1.0770 -0.2268 -1.5937
 6209TIP3    H242823   7.548   3.298  10.127  0.4462 -1.1273  0.9481
 6210TIP3   OH242824   7.113   1.715  10.973 -0.3553  0.2598 -0.1854
 6210TIP3    H142825   7.201   1.679  10.986 -0.6282 -0.3401  0.0247
 6210TIP3    H242826   7.127   1.793  10.920  0.2556 -0.1279 -0.6090
 6211TIP3   OH242827   4.884   6.172  11.961 -0.8514 -0.4052  0.7804
 6211TIP3    H142828   4.899   6.080  11.939 -0.2422 -0.0976 -0.1256
 6211TIP3    H242829   4.817   6.201  11.899 -0.0452  0.1235  0.1345
 6212TIP3   OH242830   2.803   4.019  10.251 -0.3021 -0.9053 -0.1403
 6212TIP3    H142831   2.764   3.931  10.250 -0.8272 -0.7446 -3.1375
 6212TIP3    H242832   2.895   4.005  10.230  0.0428 -0.8145  1.1803
 6213TIP3   OH242833   4.690   1.621  12.350 -0.1165  0.3397  0.3195
 6213TIP3    H142834   4.775   1.661  12.366 -0.2738  1.2595 -1.0592
 6213TIP3    H242835   4.686   1.548  12.413  1.3602  0.7324  0.9053
 6214TIP3   OH242836   6.256   0.995  10.783 -0.1622 -0.8385 -0.2429
 6214TIP3    H142837   6.257   0.967  10.874  0.7596  0.6788  0.2511
 6214TIP3    H242838   6.259   1.091  10.787 -1.1704 -0.6979 -1.8606
 6215TIP3   OH242839   2.377   1.833  12.759 -0.2024  0.0011  0.0217
 6215TIP3    H142840   2.462   1.792  12.742 -0.1841  0.1526 -0.2444
 6215TIP3    H242841   2.387   1.923  12.728 -0.5340 -0.0441 -0.2115
 6216TIP3   OH242842   0.395   5.238  11.098 -0.1225  0.2779 -0.1747
 6216TIP3    H142843   0.393   5.333  11.107 -0.0332  0.3007 -0.4072
 6216TIP3    H242844   0.348   5.220  11.017 -0.1536  0.1218 -0.1232
 6217TIP3   OH242845   2.227   1.219  10.371  0.7011  0.2719 -0.1570
 6217TIP3    H142846   2.143   1.174  10.384  0.8600 -1.1103 -3.0924
 6217TIP3    H242847   2.292   1.160  10.409  0.5666  0.0955 -0.1972
 6218TIP3   OH242848   0.470   2.211  10.493  0.4857  0.2943 -0.5099
 6218TIP3    H142849   0.546   2.265  10.515 -0.3214  1.1174  0.3758
 6218TIP3    H242850   0.487   2.127  10.535  0.2376  0.9705  1.0425
 6219TIP3   OH242851   3.446   0.419   9.975 -0.6133 -0.4143  0.0616
 6219TIP3    H142852   3.435   0.327   9.951 -1.2883 -0.9842  2.3480
 6219TIP3    H242853   3.503   0.417  10.051 -0.0978  1.1370 -0.2640
 6220TIP3   OH242854   5.420   1.204  11.646  0.7074 -0.0291  0.0968
 6220TIP3    H142855   5.428   1.218  11.552  1.5750  2.8569  0.5294
 6220TIP3    H242856   5.336   1.158  11.656  0.7598 -0.7133 -2.0589
 6221TIP3   OH242857   4.564   3.367  10.524 -0.6043  0.1170 -0.0399
 6221TIP3    H142858   4.598   3.364  10.434 -2.8449 -0.3364 -0.9329
 6221TIP3    H242859   4.507   3.444  10.525 -0.1901  0.4134  1.1571
 6222TIP3   OH242860   2.035   7.251  12.808 -0.6725  0.3620 -0.0736
 6222TIP3    H142861   2.071   7.340  12.806  0.7028 -0.1749 -0.1802
 6222TIP3    H242862   2.042   7.224  12.899  1.1451 -0.4888 -0.4301
 6223TIP3   OH242863   4.472   0.129  12.357  0.8146  0.0978 -0.2517
 6223TIP3    H142864   4.526   0.205  12.337  1.7495 -0.5175 -0.1494
 6223TIP3    H242865   4.476   0.121  12.453  0.0870  0.3599 -0.1888
 6224TIP3   OH242866   7.112   0.379  11.532 -0.6793  0.0086 -0.1496
 6224TIP3    H142867   7.142   0.467  11.506 -0.5477  0.0021 -0.0205
 6224TIP3    H242868   7.050   0.354  11.464 -0.2434 -0.0568 -0.5314
 6225TIP3   OH242869   4.645   2.755  10.877  0.0528  0.0316 -0.3656
 6225TIP3    H142870   4.738   2.764  10.898  0.0380 -0.6620  0.0363
 6225TIP3    H242871   4.603   2.830  10.917  0.5686  0.9189 -1.4267
 6226TIP3   OH242872   6.072   5.667  12.493 -0.9971 -0.0899 -0.3651
 6226TIP3    H142873   6.006   5.734  12.475 -1.1167  0.0099  0.4131
 6226TIP3    H242874   6.130   5.671  12.418 -0.6495  1.3204 -0.0591
 6227TIP3   OH242875   5.615   1.247  12.043 -0.6301  0.1032  0.2691
 6227TIP3    H142876   5.605   1.152  12.048 -0.0268  0.0225  0.0908
 6227TIP3    H242877   5.666   1.270  12.121  0.9836  0.0067 -0.7127
 6228TIP3   OH242878   3.276   6.835  10.634  0.5750  0.0620 -0.1630
 6228TIP3    H142879   3.258   6.921  10.670  0.4795 -0.0737  0.1160
 6228TIP3    H242880   3.190   6.799  10.613  0.6591  0.3495 -1.0177
 6229TIP3   OH242881   5.386   1.160  11.342 -0.3579  0.0224 -0.2124
 6229TIP3    H142882   5.465   1.134  11.388 -1.3115 -2.1769  0.3227
 6229TIP3    H242883   5.353   1.079  11.302 -2.5947  0.7476  0.0037
 6230TIP3   OH242884   0.178   0.008  12.605 -0.1151  0.0065 -0.2899
 6230TIP3    H142885   0.226  -0.005  12.687  0.7051 -0.2722 -0.8053
 6230TIP3    H242886   0.139  -0.077  12.586 -1.1126  0.3204  0.3050
 6231TIP3   OH242887   0.333   6.629  12.120  0.5580 -0.4305 -0.2396
 6231TIP3    H142888   0.256   6.577  12.099 -0.5189  1.5021 -1.4443
 6231TIP3    H242889   0.395   6.609  12.050 -0.1567  0.4096 -1.1594
 6232TIP3   OH242890   5.727   7.299   9.757  0.5368  0.1689  0.0803
 6232TIP3    H142891   5.788   7.226   9.760  0.1785 -0.1006  1.1320
 6232TIP3    H242892   5.668   7.277   9.685 -0.0007 -0.9515  0.8343
 6233TIP3   OH242893   3.495   6.957  12.123 -0.4971 -0.5159  0.1362
 6233TIP3    H142894   3.405   6.934  12.146 -0.2475 -0.9023  0.7471
 6233TIP3    H242895   3.549   6.894  12.170  0.0803 -0.6046 -0.6234
 6234TIP3   OH242896   4.930   4.935  10.444 -0.2973  0.1220  0.2988
 6234TIP3    H142897   5.015   4.900  10.471  0.0225 -0.1707 -0.9810
 6234TIP3    H242898   4.915   5.009  10.502  1.5617  1.1005 -0.3646
 6235TIP3   OH242899   3.985   3.321  10.829  0.8869  0.5574 -0.3278
 6235TIP3    H142900   4.078   3.304  10.813  0.4757 -0.4052 -2.0705
 6235TIP3    H242901   3.956   3.371  10.752 -0.2127  0.0558 -0.2703
 6236TIP3   OH242902   4.251   0.632  12.046  0.0508 -0.7900 -0.1312
 6236TIP3    H142903   4.258   0.611  11.953 -0.7911 -0.3094 -0.3109
 6236TIP3    H242904   4.254   0.546  12.090  2.6791 -0.9214 -0.4038
 6237TIP3   OH242905   0.481   4.072  11.597  0.4709  0.1004  0.1427
 6237TIP3    H142906   0.484   4.030  11.683 -3.6093  1.3398  1.0978
 6237TIP3    H242907   0.449   4.004  11.538  0.9101 -0.0714  0.0970
 6238TIP3   OH242908   6.840   2.583  11.522  0.1660 -0.4580  0.2526
 6238TIP3    H142909   6.789   2.585  11.441  0.1493 -0.4807  0.2628
 6238TIP3    H242910   6.802   2.511  11.573 -1.3390  0.9833  1.2675
 6239TIP3   OH242911   0.080   3.587  10.443 -0.5728  0.5494 -0.3321
 6239TIP3    H142912   0.028   3.667  10.436 -2.3537 -0.5534 -0.1363
 6239TIP3    H242913   0.042   3.539  10.516  0.9959 -0.1464  0.0833
 6240TIP3   OH242914   3.275   2.062  12.199  0.2712 -0.6057 -0.2250
 6240TIP3    H142915   3.313   2.144  12.232  0.4018  0.1063 -2.0462
 6240TIP3    H242916   3.283   2.002  12.272 -1.1487  1.3800  1.7075
 6241TIP3   OH242917   0.176   5.258  11.531  0.2092 -0.0927  0.2677
 6241TIP3    H142918   0.162   5.200  11.457 -0.2073  0.1611  0.1511
 6241TIP3    H242919   0.089   5.284  11.559  0.4253  1.2983 -0.3198
 6242TIP3   OH242920   5.253   3.663  11.315 -0.5779  0.3555 -0.0859
 6242TIP3    H142921   5.317   3.616  11.262 -1.4226 -0.0979 -0.7256
 6242TIP3    H242922   5.294   3.748  11.332 -0.4050  0.6328 -1.7373
 6243TIP3   OH242923   4.218   7.163  10.410  0.5998  0.1581  0.4220
 6243TIP3    H142924   4.156   7.182  10.481  1.5881 -0.7427  1.5792
 6243TIP3    H242925   4.163   7.135  10.337 -0.3778 -1.8297  1.7926
 6244TIP3   OH242926   6.661   0.605   9.865  0.2091 -0.4424 -0.6713
 6244TIP3    H142927   6.673   0.671   9.796  0.6355  0.4794  0.2550
 6244TIP3    H242928   6.580   0.632   9.909  0.1625 -0.7871 -0.5412
 6245TIP3   OH242929   1.419   0.415  11.041 -0.5345 -0.0832  0.4965
 6245TIP3    H142930   1.439   0.333  10.997 -0.5339  0.1564  0.0450
 6245TIP3    H242931   1.479   0.479  11.002 -1.0073  0.2782  0.3448
 6246TIP3   OH242932   0.690   2.411  10.543  0.4993 -0.1580 -0.2104
 6246TIP3    H142933   0.659   2.481  10.485  1.6778 -0.5427 -1.3410
 6246TIP3    H242934   0.718   2.457  10.623 -0.5178  0.4423 -0.1725
 6247TIP3   OH242935   2.910   3.483  11.280 -0.5329  0.2041  0.1241
 6247TIP3    H142936   2.936   3.516  11.367  0.1104 -1.2080  0.4969
 6247TIP3    H242937   2.822   3.447  11.294 -0.9755  1.1613 -0.1354
 6248TIP3   OH242938   4.320   0.703  11.126 -0.4253  0.1475  0.0936
 6248TIP3    H142939   4.298   0.615  11.095  0.5967 -0.0170 -0.2263
 6248TIP3    H242940   4.415   0.709  11.113 -0.2422  0.7400  1.5116
 6249TIP3   OH242941   7.344   0.623  10.851  0.0601 -0.2464 -0.0623
 6249TIP3    H142942   7.426   0.665  10.878  1.0067 -0.6179 -2.1989
 6249TIP3    H242943   7.277   0.687  10.873  1.3476  1.9587 -2.0713
 6250TIP3   OH242944   7.062   6.955  10.332 -0.1436  0.0855 -0.1461
 6250TIP3    H142945   7.048   6.867  10.368 -1.2422 -0.3159 -1.4383
 6250TIP3    H242946   7.150   6.952  10.295  0.9390  0.4548  2.2497
 6251TIP3   OH242947   4.594   4.140   9.952  0.3062  0.0803 -0.8774
 6251TIP3    H142948   4.539   4.114  10.025 -0.3105  0.6956 -1.1103
 6251TIP3    H242949   4.654   4.067   9.939 -0.7232 -0.7916 -0.8798
 6252TIP3   OH242950   0.666   4.194  11.212  0.1042 -0.0275 -0.1987
 6252TIP3    H142951   0.582   4.159  11.182 -0.7063  1.1173  0.6791
 6252TIP3    H242952   0.709   4.120  11.255 -1.3442 -0.1267  1.1568
 6253TIP3   OH242953   4.499   6.425  10.906 -0.0474  0.5684 -0.3236
 6253TIP3    H142954   4.503   6.361  10.978 -1.1473 -0.6997 -1.3430
 6253TIP3    H242955   4.591   6.448  10.890  0.4846 -1.5542 -0.6035
 6254TIP3   OH242956   4.183   3.341  10.300  0.6554  0.5286 -0.1497
 6254TIP3    H142957   4.136   3.295  10.231  0.8977  0.0164  0.0226
 6254TIP3    H242958   4.123   3.411  10.327  0.8816  1.2401 -1.4132
 6255TIP3   OH242959   5.706   0.627  12.059  0.1083  0.1102 -0.1852
 6255TIP3    H142960   5.748   0.637  11.974 -1.4902 -0.7801 -1.1297
 6255TIP3    H242961   5.765   0.669  12.120  0.7299  1.8677 -1.9010
 6256TIP3   OH242962   3.054   2.602  11.735  0.6147 -0.3500  0.2946
 6256TIP3    H142963   2.991   2.665  11.772 -0.9222 -0.3473 -2.1086
 6256TIP3    H242964   3.136   2.622  11.780  0.1837  3.3307 -0.2197
 6257TIP3   OH242965   3.991   7.414  11.611 -0.4449 -0.3359  0.8507
 6257TIP3    H142966   4.007   7.434  11.519  0.3108 -1.9211  0.6106
 6257TIP3    H242967   3.910   7.462  11.632 -2.7670 -2.8017 -1.6939
 6258TIP3   OH242968   5.941   4.157  11.172  0.2677  0.0222 -0.0783
 6258TIP3    H142969   6.009   4.137  11.108  0.6788  2.1538 -0.3541
 6258TIP3    H242970   5.988   4.187  11.249 -0.3150  1.9997 -0.4403
 6259TIP3   OH242971   6.657   3.445  10.319 -0.4645 -0.3865 -0.1185
 6259TIP3    H142972   6.578   3.448  10.265  0.2302 -2.1500 -1.3029
 6259TIP3    H242973   6.729   3.439  10.257  0.6834  1.5654  0.9261
 6260TIP3   OH242974   6.649   1.526  11.118 -0.1882  0.3746  0.1831
 6260TIP3    H142975   6.707   1.461  11.078 -1.2301 -0.8031  0.5298
 6260TIP3    H242976   6.688   1.544  11.203  0.1780  0.2953  0.0338
 6261TIP3   OH242977   4.300   4.088  10.357  0.0147 -0.2877 -0.2086
 6261TIP3    H142978   4.221   4.141  10.367 -0.2196 -0.5367 -0.7313
 6261TIP3    H242979   4.334   4.079  10.446 -0.4811 -0.0835  0.0052
 6262TIP3   OH242980   6.591   6.572  11.827  0.0754 -0.1887 -0.2266
 6262TIP3    H142981   6.611   6.574  11.734  0.8484  0.0831 -0.0654
 6262TIP3    H242982   6.640   6.646  11.863 -1.3379  0.5889  0.1850
 6263TIP3   OH242983   7.644   0.487  10.730 -0.2200 -0.1066 -0.4120
 6263TIP3    H142984   7.557   0.480  10.690  0.0295 -0.8860 -0.8535
 6263TIP3    H242985   7.628   0.470  10.823 -0.4344 -1.1574 -0.6236
 6264TIP3   OH242986   6.947   1.413  10.984 -0.1111 -0.1416 -0.1598
 6264TIP3    H142987   7.007   1.430  11.057 -1.6012 -0.1428  1.1252
 6264TIP3    H242988   6.947   1.494  10.934 -0.3089  0.4597  0.7905
 6265TIP3   OH242989   1.701   4.448  11.106  0.4018 -0.2054 -0.4425
 6265TIP3    H142990   1.665   4.532  11.078  0.9851 -0.0349 -0.6818
 6265TIP3    H242991   1.712   4.457  11.200 -1.3183 -0.6897 -0.1585
 6266TIP3   OH242992   2.953   6.561  10.218  0.3092  0.0332  0.0183
 6266TIP3    H142993   2.930   6.490  10.158  2.8776 -1.4618  0.6570
 6266TIP3    H242994   2.964   6.518  10.303  1.0010  1.3583  0.6280
 6267TIP3   OH242995   6.198   5.798  10.458  0.1540  0.0337  0.7771
 6267TIP3    H142996   6.137   5.727  10.436 -0.8034  0.2130  2.6736
 6267TIP3    H242997   6.202   5.851  10.378 -0.0462 -1.4607 -0.2835
 6268TIP3   OH242998   7.105   5.774  11.897 -0.1986  0.1574 -0.0246
 6268TIP3    H142999   7.035   5.717  11.866 -1.2012  1.3850 -0.1291
 6268TIP3    H243000   7.118   5.750  11.988 -1.1933  0.3181  0.1685
 6269TIP3   OH243001   0.360   7.230  12.638  0.4599  0.0831 -0.6724
 6269TIP3    H143002   0.426   7.198  12.700 -1.4345 -0.7248  1.0600
 6269TIP3    H243003   0.352   7.324  12.657  0.5107  0.0092 -0.2767
 6270TIP3   OH243004   1.763   7.662  11.645 -0.1894 -0.3406  0.6955
 6270TIP3    H143005   1.675   7.653  11.608  0.2570  0.8402 -0.7613
 6270TIP3    H243006   1.819   7.614  11.584  0.5425  1.4840 -0.1335
 6271TIP3   OH243007   7.037   1.497  12.344 -0.3076 -0.1672 -0.7399
 6271TIP3    H143008   6.964   1.467  12.397  0.7974 -3.3279 -0.7831
 6271TIP3    H243009   7.096   1.539  12.406 -0.8713 -0.1656 -0.1973
 6272TIP3   OH243010   6.291   6.545  12.664 -0.4530  0.2490 -0.4394
 6272TIP3    H143011   6.305   6.457  12.629 -1.6939  0.7122 -2.2417
 6272TIP3    H243012   6.375   6.589  12.654  0.3330 -0.8392  0.9678
 6273TIP3   OH243013   7.405   1.722  10.342  0.3354 -0.2554 -0.0278
 6273TIP3    H143014   7.486   1.734  10.391 -0.0590  0.6296  0.4300
 6273TIP3    H243015   7.344   1.785  10.381 -0.2304 -0.1058 -1.1143
 6274TIP3   OH243016   4.465   0.165  10.378  0.5323 -0.5074  0.6678
 6274TIP3    H143017   4.468   0.225  10.453  0.4844  0.0071  0.2548
 6274TIP3    H243018   4.462   0.221  10.301 -0.3373 -1.0385  0.3050
 6275TIP3   OH243019   7.595   3.620  11.577  0.2765  0.1945 -0.0540
 6275TIP3    H143020   7.586   3.529  11.605  2.0565 -0.0571 -0.1555
 6275TIP3    H243021   7.617   3.667  11.657 -0.2937  0.4846 -0.0630
 6276TIP3   OH243022   1.964   1.675  12.498  0.2841  0.2075  0.0112
 6276TIP3    H143023   1.912   1.717  12.429 -0.3965 -0.4930  0.0772
 6276TIP3    H243024   1.997   1.595  12.458 -0.1937 -0.2533  0.5220
 6277TIP3   OH243025   7.586   2.755  11.869 -0.5012  0.0358  0.2143
 6277TIP3    H143026   7.623   2.775  11.955 -1.4413 -0.6198  0.7884
 6277TIP3    H243027   7.644   2.687  11.834 -0.7580 -0.5037  0.8187
 6278TIP3   OH243028   2.884   2.035  10.358 -0.0017 -0.1101 -0.0175
 6278TIP3    H143029   2.979   2.028  10.347 -0.2244 -0.3579 -2.5128
 6278TIP3    H243030   2.861   1.963  10.416  1.4047  0.4845  1.3270
 6279TIP3   OH243031   4.445   4.710  10.584  0.3729 -0.7264 -0.7926
 6279TIP3    H143032   4.376   4.774  10.603 -0.7846 -2.5453  1.6905
 6279TIP3    H243033   4.482   4.739  10.501 -1.8188  1.6603 -1.0689
 6280TIP3   OH243034   5.940   5.409  12.231 -0.1006  0.2047  0.0287
 6280TIP3    H143035   5.872   5.475  12.218 -1.8824 -1.4593  0.4762
 6280TIP3    H243036   6.022   5.457  12.217 -1.2712  2.6063  0.8226
 6281TIP3   OH243037   3.817   6.047   9.975 -0.3326 -0.0154 -0.6270
 6281TIP3    H143038   3.874   6.072  10.048 -1.3202  0.4527 -0.0043
 6281TIP3    H243039   3.848   6.100   9.902  1.4495 -1.3413 -0.9141
 6282TIP3   OH243040   2.180   0.205   9.687 -0.8046  0.2099 -0.4926
 6282TIP3    H143041   2.150   0.116   9.701 -0.6037  0.0569 -1.0106
 6282TIP3    H243042   2.239   0.199   9.611 -1.5319  0.9287 -1.1324
 6283TIP3   OH243043   2.783   6.281  10.305 -0.5175  0.7267  0.1111
 6283TIP3    H143044   2.810   6.216  10.241  1.0787  1.7190 -0.2756
 6283TIP3    H243045   2.823   6.252  10.387 -1.4641  0.1669  0.3848
 6284TIP3   OH243046   4.303   6.901  10.728  0.0339  0.1625  0.1090
 6284TIP3    H143047   4.241   6.952  10.781  1.0196  0.8664  0.6025
 6284TIP3    H243048   4.288   6.811  10.755 -1.4919  0.1826 -0.5253
 6285TIP3   OH243049   2.252   0.162  10.661 -0.4268  0.2118  0.3457
 6285TIP3    H143050   2.337   0.157  10.619 -1.0345 -1.5631 -0.7859
 6285TIP3    H243051   2.233   0.256  10.666  0.4184  0.5567 -1.8269
 6286TIP3   OH243052   6.798   2.452  11.798 -0.7421 -0.2213  0.1617
 6286TIP3    H143053   6.717   2.500  11.815 -1.7761 -2.0445  0.7147
 6286TIP3    H243054   6.781   2.406  11.716  0.1155  0.1392 -0.2209
 6287TIP3   OH243055   1.225   2.011  12.344 -0.6674 -0.0278  0.0527
 6287TIP3    H143056   1.270   2.039  12.424  0.8218 -0.3912 -0.6200
 6287TIP3    H243057   1.296   1.982  12.286 -1.4585  2.0876 -2.1652
 6288TIP3   OH243058   2.562   0.985  11.845  0.1272  0.4358 -0.1043
 6288TIP3    H143059   2.473   0.997  11.877  0.6459  2.0502  0.8487
 6288TIP3    H243060   2.561   1.024  11.757 -0.6463 -1.6764 -1.1077
 6289TIP3   OH243061   6.818   2.028  11.480 -0.5860  0.0883 -0.1714
 6289TIP3    H143062   6.865   1.948  11.499 -0.0651  0.7604  1.5687
 6289TIP3    H243063   6.870   2.071  11.412 -0.2207 -0.4772 -0.2540
 6290TIP3   OH243064   5.353   6.510  11.331 -0.1482 -0.0344 -0.4993
 6290TIP3    H143065   5.383   6.599  11.311  1.2389 -0.5612 -0.9134
 6290TIP3    H243066   5.328   6.513  11.423 -2.3043  1.3293 -1.0618
 6291TIP3   OH243067   3.437   1.201  11.616  0.1292  0.4111 -0.7038
 6291TIP3    H143068   3.452   1.178  11.524 -0.9598 -1.1943 -0.5161
 6291TIP3    H243069   3.357   1.254  11.614 -0.2584 -0.1619 -0.6340
 6292TIP3   OH243070   4.374   2.372  11.642 -0.2232 -0.3967  0.2286
 6292TIP3    H143071   4.432   2.296  11.644 -0.0392 -0.3042 -1.0019
 6292TIP3    H243072   4.286   2.335  11.650 -0.2146 -0.8643 -1.4307
 6293TIP3   OH243073   2.557   4.153  12.058 -0.1766  0.7183 -0.0101
 6293TIP3    H143074   2.498   4.154  12.133  0.4986  0.9747  0.5282
 6293TIP3    H243075   2.644   4.163  12.096  0.2479  0.0277 -0.7646
 6294TIP3   OH243076   2.055   3.026  12.179  0.3618 -0.2111 -0.4268
 6294TIP3    H143077   2.041   3.118  12.158 -0.1305 -0.3769 -0.8488
 6294TIP3    H243078   2.142   3.006  12.142 -0.4276 -0.4621 -2.2824
 6295TIP3   OH243079   4.257   4.143  11.072  0.3624  0.2985  0.0062
 6295TIP3    H143080   4.270   4.237  11.058  2.3733  0.0203 -0.2092
 6295TIP3    H243081   4.319   4.101  11.013 -0.5955 -1.1974 -0.0021
 6296TIP3   OH243082   4.134   1.757  10.260  0.1590  0.2657 -0.4542
 6296TIP3    H143083   4.195   1.710  10.203 -0.3167 -0.3983 -0.4271
 6296TIP3    H243084   4.124   1.699  10.336  1.3175  1.4328  0.6552
 6297TIP3   OH243085   0.377   2.685  11.518  0.5486 -0.1521 -0.3192
 6297TIP3    H143086   0.432   2.702  11.441 -0.1779  1.0746 -0.5962
 6297TIP3    H243087   0.436   2.644  11.581  1.1604 -1.1998 -1.5228
 6298TIP3   OH243088   5.695   2.004  11.193  0.7925 -0.5875  0.3983
 6298TIP3    H143089   5.711   2.060  11.269  0.4339 -1.3430  1.0496
 6298TIP3    H243090   5.704   2.062  11.118  1.2214  0.1626  1.0140
 6299TIP3   OH243091   0.246   5.553  10.570 -0.3148 -0.6651  0.9105
 6299TIP3    H143092   0.339   5.551  10.548 -0.7503  0.3191 -1.2735
 6299TIP3    H243093   0.242   5.604  10.651  0.8981  1.3799 -0.2148
 6300TIP3   OH243094   5.329   1.620  10.954  0.4560  0.3734  0.5013
 6300TIP3    H143095   5.352   1.581  11.038  1.3236 -0.3114 -0.0462
 6300TIP3    H243096   5.251   1.672  10.973 -1.1057 -2.0406  1.1659
 6301TIP3   OH243097   3.775   6.397  11.369  0.2588  0.5953  0.1169
 6301TIP3    H143098   3.829   6.347  11.307  0.8780 -0.2183  1.2837
 6301TIP3    H243099   3.836   6.421  11.439 -0.7426  0.2592  1.1241
 6302TIP3   OH243100   5.304   6.708  11.112  0.1830  0.2027  0.2250
 6302TIP3    H143101   5.244   6.675  11.045  1.6007 -3.1690  0.4288
 6302TIP3    H243102   5.354   6.777  11.068 -1.3869  0.6077 -0.9977
 6303TIP3   OH243103   3.697   5.881  12.692  0.0008  0.2670  0.1577
 6303TIP3    H143104   3.678   5.812  12.756  1.9300 -2.0551 -1.5760
 6303TIP3    H243105   3.723   5.956  12.745 -1.2644 -0.6005  2.1323
 6304TIP3   OH243106   1.528   6.671   9.890 -0.1962 -0.1428 -0.3210
 6304TIP3    H143107   1.580   6.685   9.810  2.5068 -2.3015  0.8653
 6304TIP3    H243108   1.549   6.745   9.946  0.6080 -0.3343 -0.3575
 6305TIP3   OH243109   1.282   3.551   9.853  0.7011 -0.4141  0.8358
 6305TIP3    H143110   1.239   3.480   9.901 -0.3314 -1.3101 -1.2767
 6305TIP3    H243111   1.309   3.511   9.771  0.6040  1.5219 -0.1900
 6306TIP3   OH243112   2.026   5.944  12.142 -0.5900 -0.3014 -0.4765
 6306TIP3    H143113   2.083   5.874  12.174  2.2176  2.7072  1.8216
 6306TIP3    H243114   2.054   5.958  12.052  0.5341 -0.5614 -0.1919
 6307TIP3   OH243115   2.204   3.057  10.773  0.6301  0.0172  0.4115
 6307TIP3    H143116   2.116   3.023  10.759  0.9465 -0.2734 -0.9926
 6307TIP3    H243117   2.221   3.043  10.867  0.4380 -2.9992  0.0775
 6308TIP3   OH243118   0.159   0.257  10.290 -0.8642 -0.3604  0.5506
 6308TIP3    H143119   0.098   0.205  10.342  0.1075 -1.3409  0.7520
 6308TIP3    H243120   0.180   0.332  10.345  1.6940 -2.3557  2.5850
 6309TIP3   OH243121   5.419   2.600  10.666 -0.5171 -0.0630  0.5500
 6309TIP3    H143122   5.484   2.583  10.597 -1.3342 -0.7015 -0.0785
 6309TIP3    H243123   5.459   2.668  10.721  0.5607 -0.2513  0.0140
 6310TIP3   OH243124   6.117   0.561  10.170  0.3921 -0.2109 -0.1495
 6310TIP3    H143125   6.209   0.568  10.192  0.1181 -0.5304  1.1610
 6310TIP3    H243126   6.110   0.479  10.119  0.4584 -1.6364  2.0140
 6311TIP3   OH243127   3.544   7.617   9.857 -0.2783  0.3272  0.0761
 6311TIP3    H143128   3.500   7.629   9.941 -1.0142  1.8191 -0.4812
 6311TIP3    H243129   3.480   7.646   9.792  0.4525 -0.3359 -0.9723
 6312TIP3   OH243130   4.730   6.678  11.054  0.4464 -0.1780  0.6166
 6312TIP3    H143131   4.695   6.683  11.142 -2.6787 -1.2992 -0.4441
 6312TIP3    H243132   4.666   6.723  10.999  0.3072 -2.6732 -1.5090
 6313TIP3   OH243133   3.613   5.719  10.778  0.1820  0.0740  0.2215
 6313TIP3    H143134   3.595   5.680  10.692  0.2727  0.3292  0.0856
 6313TIP3    H243135   3.707   5.708  10.790  0.2011  0.2195  0.2007
 6314TIP3   OH243136   6.122   4.515  10.977 -0.6327 -0.4380  0.5186
 6314TIP3    H143137   6.213   4.486  10.982 -0.0253  1.2639 -0.0725
 6314TIP3    H243138   6.100   4.508  10.884 -1.1036 -0.7906  0.6530
 6315TIP3   OH243139   1.214   3.132  10.513 -0.1565 -0.4427 -0.1855
 6315TIP3    H143140   1.232   3.160  10.603  0.4173  1.8792 -0.9446
 6315TIP3    H243141   1.291   3.081  10.488  0.0021 -0.5053  0.4017
 6316TIP3   OH243142   3.249   1.206   9.912  0.1916 -0.7136 -0.1817
 6316TIP3    H143143   3.171   1.204   9.969  0.4301 -2.7052  0.1589
 6316TIP3    H243144   3.213   1.205   9.824 -0.1843  2.3764 -0.1716
 6317TIP3   OH243145   5.600   4.441  11.723 -0.7925  0.0903  0.5108
 6317TIP3    H143146   5.665   4.434  11.653  0.9819 -0.6260  2.1099
 6317TIP3    H243147   5.554   4.523  11.707  0.0359  0.2695 -1.0801
 6318TIP3   OH243148   6.827   4.485  11.899 -0.1362  0.2111  0.7774
 6318TIP3    H143149   6.762   4.544  11.936  0.4748  0.8706  0.8231
 6318TIP3    H243150   6.908   4.507  11.943  0.6074  0.9723 -0.8742
 6319TIP3   OH243151   2.416   5.010  11.606 -0.0237 -0.1447  0.0754
 6319TIP3    H143152   2.347   5.070  11.578  0.3486  0.2360 -0.0429
 6319TIP3    H243153   2.387   4.924  11.575  0.2816  0.2350 -1.3629
 6320TIP3   OH243154   1.238   2.703  10.173 -0.1414 -0.0435 -0.3123
 6320TIP3    H143155   1.257   2.646  10.098 -1.4848 -0.4263 -0.3926
 6320TIP3    H243156   1.313   2.762  10.179  0.1519 -0.2531 -1.7289
 6321TIP3   OH243157   6.760   7.091  11.950 -0.1108 -0.5282  0.1573
 6321TIP3    H143158   6.831   7.139  11.908 -0.2441 -0.9723 -0.5866
 6321TIP3    H243159   6.680   7.124  11.909 -0.2946 -0.4882  0.5367
 6322TIP3   OH243160   2.836   1.034  11.906  0.0386  0.2696 -0.6411
 6322TIP3    H143161   2.871   1.060  11.821  0.9451  0.3469 -0.2525
 6322TIP3    H243162   2.741   1.028  11.892  0.2813 -1.0839 -2.0221
 6323TIP3   OH243163   4.249   0.595  11.759 -0.1720  0.0900 -0.5171
 6323TIP3    H143164   4.202   0.613  11.678  1.4243  0.9257 -1.3032
 6323TIP3    H243165   4.262   0.500  11.759 -1.9575 -0.1785 -0.1931
 6324TIP3   OH243166   0.457   7.557  11.259  0.6565 -0.1300  0.6822
 6324TIP3    H143167   0.366   7.536  11.240  1.0798  0.1476 -2.0872
 6324TIP3    H243168   0.458   7.578  11.353 -1.9523 -0.8327  0.9532
 6325TIP3   OH243169   2.318   2.951  12.099  0.1058  0.2416  0.2998
 6325TIP3    H143170   2.339   2.923  12.188  0.9431 -0.7397 -0.1827
 6325TIP3    H243171   2.397   2.932  12.049 -0.6559 -0.0516 -0.8369
 6326TIP3   OH243172   2.548   2.721  10.576  0.2937 -0.6181 -0.2996
 6326TIP3    H143173   2.554   2.815  10.557 -1.6879 -0.5913 -0.9746
 6326TIP3    H243174   2.475   2.690  10.523 -0.0038 -2.2778  0.9977
 6327TIP3   OH243175   7.536   6.022  11.429  0.2916  0.1216  0.1719
 6327TIP3    H143176   7.473   6.094  11.440 -0.6483 -0.3052 -1.9200
 6327TIP3    H243177   7.612   6.063  11.389  0.8641  0.3837  1.4516
 6328TIP3   OH243178   0.069   4.261  12.257  0.2751 -0.0238  0.5551
 6328TIP3    H143179  -0.011   4.210  12.250  0.7908 -1.2294  2.5048
 6328TIP3    H243180   0.074   4.311  12.176 -2.7767  0.6219  0.6763
 6329TIP3   OH243181   2.712   4.253   9.709  0.0000 -0.1015 -0.1738
 6329TIP3    H143182   2.619   4.268   9.730 -0.0878 -0.0400 -0.5853
 6329TIP3    H243183   2.740   4.185   9.770 -0.2188  0.1339  0.1958
 6330TIP3   OH243184   3.170   5.190  11.040  0.0094 -0.2172 -0.2236
 6330TIP3    H143185   3.106   5.251  11.078 -1.7137 -0.0767 -3.0249
 6330TIP3    H243186   3.202   5.235  10.963  0.2859 -2.0116 -1.1993
 6331TIP3   OH243187   7.077   6.030  12.946 -0.0257  0.2511 -0.2234
 6331TIP3    H143188   6.993   6.053  12.905 -1.5004 -1.9374  1.3626
 6331TIP3    H243189   7.110   6.113  12.980 -0.5142  1.5042 -2.6061
 6332TIP3   OH243190   3.918   4.330  12.424 -0.5079  0.0016 -0.1367
 6332TIP3    H143191   3.885   4.302  12.510  0.2212 -1.8310 -0.4102
 6332TIP3    H243192   4.008   4.358  12.441 -0.1280 -1.0277 -0.3930
 6333TIP3   OH243193   2.331   0.885  10.385 -0.0623  0.0210 -0.1464
 6333TIP3    H143194   2.378   0.961  10.350  1.5078 -2.0607 -2.8587
 6333TIP3    H243195   2.395   0.815  10.385 -2.0936 -1.9417 -0.0365
 6334TIP3   OH243196   2.957   5.341  10.440 -0.0186  0.7102  0.7683
 6334TIP3    H143197   2.882   5.302  10.394  0.7174 -3.1029  2.4398
 6334TIP3    H243198   3.027   5.341  10.375 -0.6399  1.5646  0.0617
 6335TIP3   OH243199   0.517   7.420  12.267 -0.0334 -0.1711 -0.3670
 6335TIP3    H143200   0.436   7.379  12.298 -0.7717  0.4783 -1.3675
 6335TIP3    H243201   0.572   7.427  12.345 -0.2656 -2.1475  0.0203
 6336TIP3   OH243202   1.848   7.213  12.615  0.2439  0.0628  0.1745
 6336TIP3    H143203   1.762   7.238  12.650 -0.7654 -3.1236  0.2576
 6336TIP3    H243204   1.900   7.192  12.692 -0.0997 -1.3893  0.0392
 6337TIP3   OH243205   3.153   0.199  10.183  1.0384 -0.4495  0.4862
 6337TIP3    H143206   3.215   0.177  10.252  2.0670  1.1455  0.1512
 6337TIP3    H243207   3.209   0.222  10.108  0.0713  1.1878  0.2233
 6338TIP3   OH243208   1.492   1.493   9.922  0.8358 -0.2681  0.4693
 6338TIP3    H143209   1.528   1.414   9.881  0.9463  0.0036  0.0383
 6338TIP3    H243210   1.399   1.490   9.898  0.6835 -0.6683  1.0990
 6339TIP3   OH243211   3.073   6.661  10.624 -0.1403  0.0907 -1.2174
 6339TIP3    H143212   3.065   6.579  10.575 -1.0711  0.1491 -1.1815
 6339TIP3    H243213   3.042   6.639  10.712  1.3307  0.0377 -0.6834
 6340TIP3   OH243214   4.233   3.310  11.537 -0.3983 -0.3137 -0.3425
 6340TIP3    H143215   4.173   3.260  11.481  0.4214 -0.4785 -1.0863
 6340TIP3    H243216   4.201   3.295  11.626 -1.6929 -0.1015 -0.7396
 6341TIP3   OH243217   3.102   3.054  11.954  0.0102  0.2503  0.4772
 6341TIP3    H143218   3.038   3.063  11.883  0.5015  0.5990  0.0717
 6341TIP3    H243219   3.177   3.105  11.925  0.6765 -0.5832  0.7068
 6342TIP3   OH243220   3.606   1.592  11.799  0.1903  0.1707 -0.5670
 6342TIP3    H143221   3.614   1.518  11.739 -3.3980 -1.5934  0.7849
 6342TIP3    H243222   3.675   1.579  11.864  0.4113 -1.2950 -1.0629
 6343TIP3   OH243223   6.098   0.619  11.356  0.6362 -0.0337 -0.0978
 6343TIP3    H143224   6.152   0.553  11.314 -0.0766 -0.1489 -0.8623
 6343TIP3    H243225   6.040   0.569  11.414  2.1988  0.1887  1.7426
 6344TIP3   OH243226   5.925   6.754  10.047 -0.1243  0.1268 -0.4495
 6344TIP3    H143227   6.018   6.743  10.025 -0.7152 -1.1777 -2.6005
 6344TIP3    H243228   5.911   6.849  10.044  1.3721  0.4533  1.2056
 6345TIP3   OH243229   2.551   4.343  11.459 -0.0893 -0.4792 -0.4878
 6345TIP3    H143230   2.488   4.337  11.388 -0.5388  0.2535 -0.1597
 6345TIP3    H243231   2.499   4.361  11.537  0.3624 -1.6465  0.1092
 6346TIP3   OH243232   5.338   0.172  11.374 -0.6450  0.3365 -0.3782
 6346TIP3    H143233   5.333   0.267  11.367 -0.3409  0.3206 -0.8577
 6346TIP3    H243234   5.424   0.150  11.339 -0.6605 -0.1069 -0.1518
 6347TIP3   OH243235   7.636   2.301  10.927  0.0749 -0.7759  0.4000
 6347TIP3    H143236   7.664   2.348  10.849  1.2386  0.4919  1.5201
 6347TIP3    H243237   7.541   2.312  10.930  0.2891  1.3730  0.5247
 6348TIP3   OH243238   0.669   1.192   9.988  0.0585  0.0460 -0.4936
 6348TIP3    H143239   0.716   1.127   9.936 -1.2521 -0.7076 -0.7917
 6348TIP3    H243240   0.687   1.276   9.945  3.0633  0.1900  0.7963
 6349TIP3   OH243241   6.252   2.298  11.112 -0.7708  0.4172  0.3971
 6349TIP3    H143242   6.320   2.363  11.097 -2.1605  1.8564  0.1036
 6349TIP3    H243243   6.178   2.328  11.060 -2.2701 -0.0600  2.1407
 6350TIP3   OH243244   6.071   0.258  10.744  0.3688  0.2007  0.1671
 6350TIP3    H143245   6.033   0.289  10.662 -0.3020  1.5223  0.9520
 6350TIP3    H243246   6.127   0.185  10.718  0.1452  0.5699 -1.4562
 6351TIP3   OH243247   6.408   5.731  11.932  0.1404 -0.4385 -0.1519
 6351TIP3    H143248   6.419   5.666  11.863  1.7696  0.7830 -1.1341
 6351TIP3    H243249   6.449   5.692  12.009  0.7281 -0.7565 -0.6180
 6352TIP3   OH243250   1.724   2.282  11.837  0.2572  0.4560 -0.1542
 6352TIP3    H143251   1.674   2.286  11.755  0.2399 -2.5908 -0.4256
 6352TIP3    H243252   1.721   2.371  11.872 -1.9356  1.2801 -2.1727
 6353TIP3   OH243253   5.067   7.380  10.505 -0.6743  0.3294  0.2306
 6353TIP3    H143254   5.129   7.431  10.453  0.0744 -0.2179  0.5665
 6353TIP3    H243255   5.115   7.358  10.585 -1.4923  0.3694  0.7540
 6354TIP3   OH243256   2.229   4.848  12.462 -0.2759  0.1025  0.0319
 6354TIP3    H143257   2.258   4.893  12.382 -2.0222  1.2330 -0.0028
 6354TIP3    H243258   2.221   4.756  12.435  1.2920  0.0770 -0.4631
 6355TIP3   OH243259   3.857   4.888  10.219 -0.1500  0.8212 -0.1258
 6355TIP3    H143260   3.874   4.859  10.309 -1.1356  3.8453  1.1520
 6355TIP3    H243261   3.796   4.823  10.184 -0.8967  0.3462  1.9249
 6356TIP3   OH243262   0.973   1.212  11.835 -0.2171  0.1555  0.5320
 6356TIP3    H143263   1.026   1.248  11.906  1.3901  2.2474 -1.5665
 6356TIP3    H243264   0.882   1.231  11.860  0.4188  3.1147  0.9718
 6357TIP3   OH243265   0.208   1.691   9.592 -0.2451 -0.0400  0.0035
 6357TIP3    H143266   0.223   1.785   9.602 -0.7653  0.2460 -1.6424
 6357TIP3    H243267   0.235   1.672   9.502  0.2308 -1.5538  0.4441
 6358TIP3   OH243268   6.809   0.955  10.216  0.0432  0.1334 -0.1046
 6358TIP3    H143269   6.833   0.984  10.303  0.0392  0.8531 -0.3347
 6358TIP3    H243270   6.747   0.884  10.230 -1.0382  1.1644  0.4904
 6359TIP3   OH243271   0.775   1.486  11.738 -0.1642 -0.2229 -0.1195
 6359TIP3    H143272   0.705   1.465  11.799 -0.6032  1.4949  0.0201
 6359TIP3    H243273   0.747   1.449  11.655 -0.1888 -1.4294  0.4114
 6360TIP3   OH243274   0.337   4.368  11.247  0.2629 -0.9361 -0.1330
 6360TIP3    H143275   0.390   4.307  11.197  0.6076 -0.3154 -0.5393
 6360TIP3    H243276   0.341   4.335  11.337 -1.2204 -2.6627 -0.6383
 6361TIP3   OH243277   4.777   7.641  11.444  0.0363 -0.2961  0.6189
 6361TIP3    H143278   4.806   7.575  11.380 -0.7667 -0.5459  0.5099
 6361TIP3    H243279   4.705   7.600  11.490 -0.4523  0.4980  0.5742
 6362TIP3   OH243280   4.501   0.612  10.179  0.0203 -0.1597 -0.3544
 6362TIP3    H143281   4.538   0.597  10.267  0.3168  0.8315 -0.2962
 6362TIP3    H243282   4.508   0.527  10.136  3.5395  0.1672 -0.7688
 6363TIP3   OH243283   0.458   6.930  12.441  0.3104  0.1914 -0.1410
 6363TIP3    H143284   0.415   6.925  12.356 -0.8805 -2.0409  0.5209
 6363TIP3    H243285   0.386   6.938  12.504  1.0184 -0.7554  0.8102
 6364TIP3   OH243286   1.681   3.054  10.162  0.4278  0.0565 -0.1149
 6364TIP3    H143287   1.665   2.960  10.154  0.3203  0.0172  0.4683
 6364TIP3    H243288   1.771   3.065  10.132  0.4450 -0.2327 -0.1801
 6365TIP3   OH243289   6.148   6.195   9.880  0.0897 -0.6432 -0.4769
 6365TIP3    H143290   6.211   6.268   9.875 -0.2523 -0.3849 -1.1608
 6365TIP3    H243291   6.085   6.223   9.946  0.0758 -0.4141 -0.5857
 6366TIP3   OH243292   2.307   1.509  12.287  0.1017  0.0707 -0.0880
 6366TIP3    H143293   2.229   1.560  12.266  0.8446  0.9935 -0.6727
 6366TIP3    H243294   2.283   1.418  12.267 -0.7687  0.3605 -0.3859
 6367TIP3   OH243295   3.682   5.038  10.715  0.8211  0.2560 -0.0455
 6367TIP3    H143296   3.720   5.074  10.795  1.5365  0.8709 -0.6427
 6367TIP3    H243297   3.676   4.944  10.731  1.0430  0.3637  0.6884
 6368TIP3   OH243298   0.222   0.093  11.219 -0.0660  0.0301  0.0486
 6368TIP3    H143299   0.196   0.162  11.280 -0.4655  0.2714 -0.3903
 6368TIP3    H243300   0.227   0.014  11.273 -1.3055  0.0635  0.2269
 6369TIP3   OH243301   3.858   5.514  10.866 -0.1098 -0.6087  0.3180
 6369TIP3    H143302   3.924   5.492  10.932  0.4161  0.2934  0.1136
 6369TIP3    H243303   3.903   5.505  10.782  0.1388  1.1659  0.2234
 6370TIP3   OH243304   6.815   1.719  11.823 -0.0331 -0.3023  0.0203
 6370TIP3    H143305   6.788   1.657  11.755  0.3069  0.2229 -0.6091
 6370TIP3    H243306   6.747   1.786  11.821 -1.5342 -1.6459  2.1191
 6371TIP3   OH243307   1.236   5.115  10.093  0.0896  0.2508 -0.0250
 6371TIP3    H143308   1.158   5.094  10.144 -0.9566 -1.2336 -2.0967
 6371TIP3    H243309   1.285   5.033  10.089  0.5574  0.5592 -0.7443
 6372TIP3   OH243310   2.669   0.033  12.443 -0.3005  0.1932 -0.3437
 6372TIP3    H143311   2.600  -0.020  12.404 -0.3674 -0.1884  0.2767
 6372TIP3    H243312   2.623   0.100  12.493 -0.2458  2.0413 -2.6159
 6373TIP3   OH243313   5.985   5.456  11.213 -0.4101  0.6311 -0.6307
 6373TIP3    H143314   6.029   5.380  11.175 -0.3467  0.8843 -1.0700
 6373TIP3    H243315   5.929   5.489  11.143 -1.6088  0.0819  0.0470
 6374TIP3   OH243316   3.333   0.822   9.695 -1.0536  0.0955  0.2860
 6374TIP3    H143317   3.257   0.872   9.726  1.4940  3.2190  2.1518
 6374TIP3    H243318   3.346   0.754   9.761 -1.1831  0.7281  0.9780
 6375TIP3   OH243319   1.341   6.335  12.197 -0.5923  0.3317 -0.0729
 6375TIP3    H143320   1.336   6.414  12.141 -1.4159  0.9563  0.8430
 6375TIP3    H243321   1.365   6.369  12.283 -2.9608 -0.1046  0.8502
 6376TIP3   OH243322   1.777   0.507  12.528  0.4051  0.6857 -0.0831
 6376TIP3    H143323   1.858   0.459  12.507  0.8042  0.5972  1.5244
 6376TIP3    H243324   1.707   0.453  12.492  0.7723 -1.6504  2.3979
 6377TIP3   OH243325   6.909   3.575  11.105  0.0457 -0.5446  0.1714
 6377TIP3    H143326   6.942   3.664  11.094 -1.1381 -0.0482  0.5379
 6377TIP3    H243327   6.947   3.545  11.187  1.2247 -0.7528 -0.4284
 6378TIP3   OH243328   5.231   6.359  10.346 -0.1271 -0.5242  0.4179
 6378TIP3    H143329   5.279   6.338  10.266  0.7976 -0.2309  0.8796
 6378TIP3    H243330   5.171   6.285  10.358  0.7484 -1.2873  0.2269
 6379TIP3   OH243331   2.670   0.670  12.353 -0.3436 -0.4501  0.4895
 6379TIP3    H143332   2.674   0.742  12.290  1.2851 -0.7656  0.1741
 6379TIP3    H243333   2.740   0.690  12.416  0.3279 -1.8651  0.2405
 6380TIP3   OH243334   5.058   3.556   9.627 -0.5901 -0.9134 -0.3220
 6380TIP3    H143335   5.097   3.596   9.705 -1.0038 -1.8479  0.3855
 6380TIP3    H243336   5.086   3.612   9.555 -0.4578  0.1580  0.5324
 6381TIP3   OH243337   7.377   1.296  11.338  0.1085  0.1371  0.1462
 6381TIP3    H143338   7.305   1.355  11.316  0.0723  0.0734  0.0910
 6381TIP3    H243339   7.454   1.353  11.345 -0.2838  0.4940  2.1607
 6382TIP3   OH243340   3.892   7.624  12.435 -0.4537  0.0843 -0.0745
 6382TIP3    H143341   3.914   7.672  12.515  2.1769 -0.4051 -0.3923
 6382TIP3    H243342   3.941   7.669  12.366 -2.9417  0.7159 -1.5665
 6383TIP3   OH243343   1.309   3.109  11.779  0.6791  0.3764 -0.4116
 6383TIP3    H143344   1.353   3.025  11.795  1.8304  0.9858 -0.2875
 6383TIP3    H243345   1.264   3.128  11.862  1.5673  0.5537  0.0362
 6384TIP3   OH243346   5.400   7.629  10.124 -0.1413  0.2131 -0.0501
 6384TIP3    H143347   5.365   7.548  10.086  0.2284  0.5802 -1.2264
 6384TIP3    H243348   5.326   7.667  10.172  0.3878 -2.1185  2.8102
 6385TIP3   OH243349   5.277   7.630  10.822 -0.1965  0.5287  0.1070
 6385TIP3    H143350   5.330   7.693  10.871 -0.1522  2.1759 -1.8859
 6385TIP3    H243351   5.235   7.683  10.754  0.3422 -1.7031 -2.1141
 6386TIP3   OH243352   6.207   6.930  11.292 -0.3890  0.1754 -0.6787
 6386TIP3    H143353   6.219   6.846  11.249 -1.6079  0.5691 -1.8298
 6386TIP3    H243354   6.118   6.957  11.270 -0.1791  1.5704  0.0260
 6387TIP3   OH243355   5.979   3.493  12.352  0.1050  0.6939 -0.0250
 6387TIP3    H143356   5.897   3.530  12.319  0.2704 -0.0273 -1.2916
 6387TIP3    H243357   6.039   3.568  12.356 -0.3945  1.0881  0.2384
 6388TIP3   OH243358   3.300   3.451  10.269 -0.1610 -0.0809  0.1164
 6388TIP3    H143359   3.208   3.463  10.295 -0.4274  1.6147 -1.4180
 6388TIP3    H243360   3.342   3.534  10.291  1.0534 -0.8734  0.8823
 6389TIP3   OH243361   4.069   1.607  11.977 -0.1756 -0.6826  0.1196
 6389TIP3    H143362   4.004   1.665  12.018  0.9634  1.6968 -1.2192
 6389TIP3    H243363   4.021   1.564  11.906  0.0490  3.0810 -2.6501
 6390TIP3   OH243364   6.530   6.590  10.980  0.5088  0.2732  0.2499
 6390TIP3    H143365   6.588   6.651  11.026  0.6587 -0.3009  0.8272
 6390TIP3    H243366   6.484   6.543  11.050 -0.7810  0.8261 -0.1890
 6391TIP3   OH243367   3.833   5.978  10.689 -0.0512  0.2540  0.1186
 6391TIP3    H143368   3.904   5.914  10.693 -0.3502 -0.1286 -0.4917
 6391TIP3    H243369   3.866   6.046  10.630 -1.7798 -2.0769 -4.0342
 6392TIP3   OH243370   2.111   1.019  12.395 -0.6751  0.4265 -0.1602
 6392TIP3    H143371   2.041   1.056  12.341 -0.9237 -1.3206 -1.1098
 6392TIP3    H243372   2.068   0.951  12.446  0.3708 -1.0116 -1.1054
 6393TIP3   OH243373   4.222   3.195  11.790  0.3938 -0.2714 -0.7237
 6393TIP3    H143374   4.273   3.173  11.868  1.4903  2.0828 -0.6968
 6393TIP3    H243375   4.138   3.227  11.825  1.0120  1.1134 -0.4392
 6394TIP3   OH243376   4.488   0.272  11.746  0.1887 -0.3266  0.3423
 6394TIP3    H143377   4.529   0.324  11.815  0.1487 -0.2929  0.3407
 6394TIP3    H243378   4.560   0.253  11.685  0.1489 -0.0453  0.2049
 6395TIP3   OH243379   0.329   6.612  12.378 -0.0989 -0.1066 -0.8031
 6395TIP3    H143380   0.337   6.701  12.412 -1.2374  0.0630 -0.9289
 6395TIP3    H243381   0.348   6.621  12.284  1.0373 -0.2290 -0.6011
 6396TIP3   OH243382   7.236   1.818  17.551 -0.1740 -0.7371  0.6789
 6396TIP3    H143383   7.143   1.815  17.575 -0.3581  0.0127  0.1124
 6396TIP3    H243384   7.276   1.873  17.618 -0.9283  2.5085 -1.2904
 6397TIP3   OH243385   5.939   1.228  10.158  0.3342 -0.6494 -0.0141
 6397TIP3    H143386   5.999   1.216  10.083  1.4553 -2.6323  1.1012
 6397TIP3    H243387   5.997   1.237  10.233 -0.7793 -1.1238  0.9243
 6398TIP3   OH243388   5.907   6.133  11.417 -0.0940 -0.1621 -0.4993
 6398TIP3    H143389   5.892   6.052  11.370  0.0905  0.2443 -1.2789
 6398TIP3    H243390   5.997   6.158  11.393 -0.5972  0.9403 -1.3185
 6399TIP3   OH243391   6.119   4.031  11.017  0.0644  0.3284  0.1200
 6399TIP3    H143392   6.132   4.066  10.929  0.6879  0.4430  0.2538
 6399TIP3    H243393   6.113   3.936  11.005 -0.8374  0.4159 -0.1534
 6400TIP3   OH243394   2.437   1.306  10.618  0.2206 -0.9481  0.1213
 6400TIP3    H143395   2.530   1.307  10.642  0.7816 -1.8791 -1.8085
 6400TIP3    H243396   2.395   1.252  10.686  1.2012 -1.0616  0.6554
 6401TIP3   OH243397   6.340   2.794  10.286 -0.4252  0.0364  0.3088
 6401TIP3    H143398   6.315   2.885  10.273  2.0454  0.8849  0.8657
 6401TIP3    H243399   6.436   2.794  10.277 -0.4095 -2.6512 -0.4972
 6402TIP3   OH243400   3.892   0.964  10.150 -0.4017 -0.3248  0.0990
 6402TIP3    H143401   3.915   0.933  10.238 -0.4225  1.5407  0.8106
 6402TIP3    H243402   3.845   0.890  10.110  0.9037 -1.7648  1.0754
 6403TIP3   OH243403   5.356   2.644  10.129  0.3667  0.5168 -0.1271
 6403TIP3    H143404   5.390   2.730  10.156  0.3482  0.6087 -0.3968
 6403TIP3    H243405   5.292   2.621  10.197  1.5295 -0.0152  0.8169
 6404TIP3   OH243406   5.425   4.359  11.127 -0.1526  0.6337 -0.1754
 6404TIP3    H143407   5.516   4.369  11.101 -0.1303  1.8318  0.2988
 6404TIP3    H243408   5.375   4.366  11.045  0.0848  1.6964 -0.2434
 6405TIP3   OH243409   4.438   2.002  10.267  0.0837  0.2106 -0.8374
 6405TIP3    H143410   4.373   2.022  10.199  1.0217  0.3020 -1.7438
 6405TIP3    H243411   4.409   2.050  10.344 -0.7668  0.4710 -1.3116
 6406TIP3   OH243412   6.636   7.127  10.728  0.4229 -0.4902 -0.0184
 6406TIP3    H143413   6.677   7.189  10.788  0.7375 -1.1393  0.4499
 6406TIP3    H243414   6.703   7.111  10.661  0.6189 -0.8923  0.2727
 6407TIP3   OH243415   5.717   5.218  11.211 -0.1171 -0.1982  0.2984
 6407TIP3    H143416   5.810   5.198  11.197  0.1841  1.4713 -0.3628
 6407TIP3    H243417   5.713   5.242  11.304  0.4585  1.2669 -0.0271
 6408TIP3   OH243418   2.579   3.748  12.057 -0.0283 -0.2318 -0.4446
 6408TIP3    H143419   2.557   3.785  12.142  0.4538 -1.3438  0.1879
 6408TIP3    H243420   2.672   3.767  12.045  0.3109 -1.4865  0.0457
 6409TIP3   OH243421   6.997   5.971  10.133 -0.1169  0.3476  0.1415
 6409TIP3    H143422   6.999   6.064  10.107 -0.7196 -0.4139 -3.0123
 6409TIP3    H243423   6.932   5.932  10.075  0.0555 -2.0538  1.4835
 6410TIP3   OH243424   1.932   7.319  10.094 -0.2134 -0.1603  0.3930
 6410TIP3    H143425   1.871   7.247  10.114 -0.1184 -0.2258  0.4457
 6410TIP3    H243426   1.875   7.393  10.073 -0.3119 -0.2131  0.4709
 6411TIP3   OH243427   0.464   2.617  10.824 -0.2516 -0.0236  0.4376
 6411TIP3    H143428   0.520   2.657  10.757 -0.6184  0.4420  0.4056
 6411TIP3    H243429   0.429   2.538  10.782 -0.9324  0.5662 -0.1300
 6412TIP3   OH243430   0.691   6.689  11.626 -0.0368  0.6261  0.3799
 6412TIP3    H143431   0.672   6.603  11.588  1.3438  0.0192  0.9926
 6412TIP3    H243432   0.690   6.749  11.551  2.5660 -0.5326 -0.7001
 6413TIP3   OH243433   3.727   3.638  10.323  0.3241 -0.0852 -0.8015
 6413TIP3    H143434   3.634   3.662  10.319  0.1812 -0.5664 -0.5370
 6413TIP3    H243435   3.745   3.595  10.240  0.1060 -0.6787 -0.5464
 6414TIP3   OH243436   2.730   0.216  12.162 -0.2402 -0.1958 -0.3617
 6414TIP3    H143437   2.742   0.271  12.239 -1.3492  0.2192 -0.4728
 6414TIP3    H243438   2.735   0.127  12.196 -0.5844 -0.0183  0.1673
 6415TIP3   OH243439   3.562   5.987  10.576  0.1641  0.0867 -0.0434
 6415TIP3    H143440   3.517   5.913  10.535 -0.0235 -0.4603  1.0948
 6415TIP3    H243441   3.652   5.957  10.589  0.7821  1.0080 -1.8838
 6416TIP3   OH243442   1.062   7.296  12.293 -0.0783  0.0130  0.1961
 6416TIP3    H143443   1.065   7.307  12.198 -2.1741 -2.4000 -0.2528
 6416TIP3    H243444   1.143   7.337  12.324 -0.2106  2.5249 -2.3844
 6417TIP3   OH243445   0.678   3.657  11.510 -0.0433 -0.0098  0.0907
 6417TIP3    H143446   0.594   3.666  11.554 -0.0022  0.8714  0.0087
 6417TIP3    H243447   0.693   3.563  11.504 -1.2296 -0.1794 -0.2986
 6418TIP3   OH243448   4.075   1.840  12.607  0.9943 -0.8840  1.1574
 6418TIP3    H143449   4.159   1.882  12.587  0.7532 -0.1228  1.7009
 6418TIP3    H243450   4.044   1.809  12.522  1.2522 -0.0877  0.7544
 6419TIP3   OH243451   7.404   1.752  11.190  0.2447 -0.2772  0.4282
 6419TIP3    H143452   7.437   1.800  11.114  2.2079 -0.9158  0.8090
 6419TIP3    H243453   7.377   1.819  11.252 -0.3285  0.2631 -0.3913
 6420TIP3   OH243454   1.713   2.201  10.221  0.4017 -0.0371  0.0594
 6420TIP3    H143455   1.697   2.177  10.129 -0.5527 -0.2727  0.2704
 6420TIP3    H243456   1.762   2.127  10.256  2.1079  0.7240 -0.6272
 6421TIP3   OH243457   1.177   7.085  10.433  0.1986  0.5586 -0.0400
 6421TIP3    H143458   1.112   7.020  10.404  1.2559  0.8973 -3.6591
 6421TIP3    H243459   1.151   7.166  10.390  1.1025  1.6064  1.2907
 6422TIP3   OH243460   7.379   1.026  11.243  0.1804  0.3537 -0.5271
 6422TIP3    H143461   7.286   1.013  11.223 -0.3889 -0.4427  2.2742
 6422TIP3    H243462   7.383   1.111  11.286  0.5145 -0.2238  0.6012
 6423TIP3   OH243463   1.783   0.948  11.531  0.1693  0.1179  0.5725
 6423TIP3    H143464   1.784   0.861  11.492  3.0658  0.4385 -0.2551
 6423TIP3    H243465   1.706   0.947  11.589 -0.6645 -2.4746 -0.4394
 6424TIP3   OH243466   7.087   1.083  11.256 -0.5826  0.4815 -0.3271
 6424TIP3    H143467   7.017   1.018  11.266 -1.8768  1.5719 -1.7641
 6424TIP3    H243468   7.091   1.126  11.342  1.2137 -2.2382  1.1094
 6425TIP3   OH243469   0.965   7.494   9.713  0.0627  0.3902  0.0384
 6425TIP3    H143470   0.900   7.455   9.653 -0.0668 -0.1438  0.5198
 6425TIP3    H243471   0.933   7.472   9.800 -0.8560  2.8769  0.4142
 6426TIP3   OH243472   7.232   2.355  12.290  0.3884  0.2112 -0.3329
 6426TIP3    H143473   7.281   2.282  12.328 -0.3316 -0.0959  0.0149
 6426TIP3    H243474   7.245   2.427  12.353  0.6470  0.2273 -0.4027
 6427TIP3   OH243475   4.367   3.132   9.767 -0.1702  0.0335  0.2581
 6427TIP3    H143476   4.403   3.188   9.698  0.6483 -0.0779  0.5865
 6427TIP3    H243477   4.274   3.124   9.745 -0.3447  1.6689  0.3113
 6428TIP3   OH243478   3.182   2.410  10.818  0.3433 -0.0890 -0.3000
 6428TIP3    H143479   3.238   2.340  10.852  0.7897  0.5136  0.2419
 6428TIP3    H243480   3.146   2.375  10.736  0.3680 -1.0367  0.0811
 6429TIP3   OH243481   2.231   5.481  12.432  0.1534 -0.6348 -0.1975
 6429TIP3    H143482   2.184   5.398  12.426  1.3915 -1.6121  2.1768
 6429TIP3    H243483   2.174   5.545  12.388 -1.9973 -2.2723  0.0439
 6430TIP3   OH243484   6.604   6.229  11.671  0.1161 -0.1187  0.0614
 6430TIP3    H143485   6.546   6.157  11.695 -2.1131  2.0059  1.4200
 6430TIP3    H243486   6.676   6.223  11.734 -0.9120 -0.1749  1.2634
 6431TIP3   OH243487   6.018   3.239  12.198  0.4555  0.2497  0.3041
 6431TIP3    H143488   6.067   3.191  12.265 -0.3689  1.2622  1.6784
 6431TIP3    H243489   6.018   3.330  12.228  1.2608  1.0223 -1.8056
 6432TIP3   OH243490   5.536   0.984  12.059  0.0113  0.2422  0.2614
 6432TIP3    H143491   5.454   0.961  12.014 -0.4132  0.5829  0.8467
 6432TIP3    H243492   5.544   0.919  12.129  1.5841 -1.4017 -1.3251
 6433TIP3   OH243493   4.181   1.997  10.106 -0.3666  0.2145  0.1262
 6433TIP3    H143494   4.093   2.030  10.123 -0.6391  0.2422 -1.2419
 6433TIP3    H243495   4.191   1.923  10.165 -0.9944  0.6946  0.8595
 6434TIP3   OH243496   3.088   4.791  10.367  0.4871  0.0392 -0.2643
 6434TIP3    H143497   3.106   4.762  10.277 -0.4168 -1.4901  0.0260
 6434TIP3    H243498   2.995   4.774  10.380  0.8524 -0.9148  1.3590
 6435TIP3   OH243499   3.528   4.637  12.261  0.0481  0.0476  0.3436
 6435TIP3    H143500   3.517   4.606  12.351 -1.3635 -2.8273 -0.6847
 6435TIP3    H243501   3.440   4.661  12.233  0.3556  0.1999 -0.5212
 6436TIP3   OH243502   1.388   1.895  10.261  0.6967  0.5896  0.1556
 6436TIP3    H143503   1.411   1.877  10.169  0.9563  1.6020  0.0117
 6436TIP3    H243504   1.450   1.842  10.311 -0.0942 -0.7671 -0.2279
 6437TIP3   OH243505   5.953   0.096   9.876 -0.4852 -0.2208  0.4673
 6437TIP3    H143506   5.909   0.024   9.831 -1.9463  0.9379 -0.0632
 6437TIP3    H243507   5.882   0.155   9.901  0.7897  2.1999 -1.2288
 6438TIP3   OH243508   4.029   2.896  10.166 -0.1411  0.0722 -0.6204
 6438TIP3    H143509   3.966   2.958  10.202 -0.7239 -0.0520 -1.4082
 6438TIP3    H243510   3.976   2.833  10.117  0.6954  1.0684 -2.9436
 6439TIP3   OH243511   7.270   4.919  11.497  0.0644 -0.1033 -0.3328
 6439TIP3    H143512   7.230   4.937  11.582  0.6289  0.4137 -0.1691
 6439TIP3    H243513   7.223   4.842  11.464  0.4454 -0.8487  0.8267
 6440TIP3   OH243514   0.533   4.906  10.086  0.3771  0.1362 -0.2789
 6440TIP3    H143515   0.580   4.825  10.102  0.4031  0.0323 -0.8455
 6440TIP3    H243516   0.471   4.884  10.016  0.4452  0.6259 -0.4986
 6441TIP3   OH243517   3.970   6.247  10.882 -0.0791  0.3886 -0.5222
 6441TIP3    H143518   4.059   6.214  10.866 -0.2169  0.0974 -0.6946
 6441TIP3    H243519   3.920   6.168  10.904 -0.7738  0.2467 -2.4216
 6442TIP3   OH243520   7.521   4.593  12.579  0.1691  0.2714  0.2750
 6442TIP3    H143521   7.612   4.569  12.595 -0.0491  0.4894  2.1782
 6442TIP3    H243522   7.485   4.520  12.530  0.7094 -1.1488  1.8812
 6443TIP3   OH243523   0.028   4.023  10.368 -0.0844  0.3470  0.3735
 6443TIP3    H143524   0.109   4.072  10.379  0.8655 -1.2725  0.7933
 6443TIP3    H243525   0.009   4.029  10.274 -1.0020  2.9952  0.6397
 6444TIP3   OH243526   7.497   4.170  12.167 -0.0007 -0.3064  0.5777
 6444TIP3    H143527   7.531   4.140  12.083  1.6693 -1.6762  1.6711
 6444TIP3    H243528   7.420   4.116  12.183 -1.2389  0.9777 -0.6829
 6445TIP3   OH243529   1.883   3.785  12.692  0.2832  0.3425  0.2759
 6445TIP3    H143530   1.864   3.699  12.654 -0.1453  0.0783  1.0572
 6445TIP3    H243531   1.978   3.788  12.700  0.4511  0.7424 -1.5690
 6446TIP3   OH243532   0.590   3.892  12.318  0.1069 -0.3336  0.0773
 6446TIP3    H143533   0.546   3.897  12.403  0.5159  0.2216  0.2662
 6446TIP3    H243534   0.670   3.943  12.330  0.1881 -0.2855 -0.6297
 6447TIP3   OH243535   3.589   4.156  10.494  0.5610  0.4145 -0.3573
 6447TIP3    H143536   3.535   4.108  10.431  1.2918  1.1329 -1.5959
 6447TIP3    H243537   3.526   4.203  10.549 -0.1294  1.1295 -1.6837
 6448TIP3   OH243538   4.644   3.852  10.032  0.5487 -0.1563 -0.8018
 6448TIP3    H143539   4.585   3.893  10.095  2.6371 -1.8988  2.5948
 6448TIP3    H243540   4.595   3.778   9.998  0.1537 -0.6275  0.7157
 6449TIP3   OH243541   4.477   0.420  11.423 -0.0244 -0.2480 -0.5385
 6449TIP3    H143542   4.523   0.497  11.390  0.3837  0.3571  1.3279
 6449TIP3    H243543   4.460   0.440  11.515 -2.0225 -1.4083 -0.5889
 6450TIP3   OH243544   7.359   5.234  11.284 -1.0406  0.2867  0.2465
 6450TIP3    H143545   7.451   5.224  11.262 -0.7443  0.8509  1.1748
 6450TIP3    H243546   7.313   5.222  11.201 -0.1981 -0.8025 -0.0813
 6451TIP3   OH243547   3.334   0.708  12.828 -0.4098  0.4995 -0.2650
 6451TIP3    H143548   3.393   0.718  12.753 -0.5108  0.4812 -0.3462
 6451TIP3    H243549   3.342   0.617  12.853 -1.7005  0.0511 -1.3539
 6452TIP3   OH243550   5.041   1.079  10.045  0.2012  0.7543 -0.4036
 6452TIP3    H143551   5.067   1.003   9.993 -1.9144 -0.2534 -0.0574
 6452TIP3    H243552   4.959   1.108  10.007 -0.8571  0.6497  1.6624
 6453TIP3   OH243553   6.108   7.348  11.419 -0.5507 -0.1711 -0.1674
 6453TIP3    H143554   6.121   7.412  11.489  1.8550  1.2954 -1.8237
 6453TIP3    H243555   6.189   7.297  11.418 -0.2287  0.2860 -2.2419
 6454TIP3   OH243556   5.420   4.655  10.889 -0.5893  0.2324  0.2371
 6454TIP3    H143557   5.346   4.603  10.859  0.1060 -0.6733  0.0181
 6454TIP3    H243558   5.495   4.621  10.839 -0.4594  3.1322 -1.8316
 6455TIP3   OH243559   3.971   7.585  10.178  0.2944 -0.1318  0.0896
 6455TIP3    H143560   4.019   7.667  10.168 -0.6910  0.3369 -1.0898
 6455TIP3    H243561   4.032   7.517  10.148  0.3865  0.4033 -0.9745
 6456TIP3   OH243562   2.967   3.837  11.592  0.1902  0.3540 -0.1619
 6456TIP3    H143563   2.905   3.867  11.658 -1.0597 -0.3305 -0.9960
 6456TIP3    H243564   2.972   3.910  11.529 -0.4353  0.0710 -0.5437
 6457TIP3   OH243565   2.095   2.491  12.341 -0.4253  0.5697 -0.0479
 6457TIP3    H143566   2.142   2.563  12.298  0.3219  1.5494  2.2124
 6457TIP3    H243567   2.003   2.517  12.338 -0.2378  1.2863  0.1112
 6458TIP3   OH243568   1.160   5.770  10.050 -0.2045  0.9347  0.2346
 6458TIP3    H143569   1.081   5.739  10.006 -0.1943  1.8558 -0.4656
 6458TIP3    H243570   1.226   5.705  10.028 -0.3779  1.0031 -0.5286
 6459TIP3   OH243571   1.970   6.699  10.893 -0.4022  0.0945 -0.0609
 6459TIP3    H143572   1.883   6.704  10.934 -0.0021  0.4706  0.7836
 6459TIP3    H243573   1.991   6.606  10.893 -0.6532  0.0352  0.0830
 6460TIP3   OH243574   6.235   4.978  10.217  0.0461 -0.1073 -0.7639
 6460TIP3    H143575   6.192   5.020  10.291  0.1851 -0.2841 -0.5824
 6460TIP3    H243576   6.328   4.996  10.230  0.2218 -1.3894 -0.0886
 6461TIP3   OH243577   7.668   4.636  11.683  0.7489  0.3531  0.6481
 6461TIP3    H143578   7.702   4.548  11.665 -0.9321  0.0325 -1.2840
 6461TIP3    H243579   7.585   4.621  11.727 -1.0722  0.7666 -2.3841
 6462TIP3   OH243580   2.170   4.299  10.614  0.6159  0.3776 -0.2885
 6462TIP3    H143581   2.240   4.261  10.666 -0.3639 -0.1984  0.6437
 6462TIP3    H243582   2.090   4.270  10.657 -0.2176  0.3340 -1.8100
 6463TIP3   OH243583   4.187   3.452   9.966 -0.5369  0.3570  0.0196
 6463TIP3    H143584   4.275   3.414   9.965 -0.3954  0.6867 -0.2522
 6463TIP3    H243585   4.166   3.462  10.059 -0.1421  0.6071  0.0847
 6464TIP3   OH243586   0.316   4.391  10.266 -0.0841 -0.2143  0.2468
 6464TIP3    H143587   0.278   4.328  10.328  0.1509 -0.1739  0.4354
 6464TIP3    H243588   0.407   4.400  10.295  0.0069 -0.1423 -0.0652
 6465TIP3   OH243589   6.872   4.702  10.737  0.3280  0.1677 -0.0006
 6465TIP3    H143590   6.959   4.663  10.729  0.7263  1.0801 -0.2879
 6465TIP3    H243591   6.862   4.754  10.657 -0.1811  0.6507  0.3677
 6466TIP3   OH243592   5.735   3.724  10.881  0.9675  0.0137  0.1496
 6466TIP3    H143593   5.821   3.709  10.841  1.6597 -0.4967  1.7381
 6466TIP3    H243594   5.754   3.760  10.968 -0.5286  2.9492 -0.6141
 6467TIP3   OH243595   2.713   1.675  12.139 -0.1773 -0.6594 -0.6599
 6467TIP3    H143596   2.752   1.721  12.214 -0.8415 -1.1101 -0.0255
 6467TIP3    H243597   2.784   1.670  12.075  1.0655 -2.1000  0.7477
 6468TIP3   OH243598   6.000   4.742  12.175  0.3174  0.3445 -0.6586
 6468TIP3    H143599   6.052   4.662  12.170 -0.5617 -0.1891 -1.5676
 6468TIP3    H243600   6.007   4.769  12.267  0.9738 -0.5263 -0.4385
 6469TIP3   OH243601   3.028   0.717  11.811  0.1024  0.0033  0.2783
 6469TIP3    H143602   3.006   0.678  11.726  0.7719 -1.5236  0.7853
 6469TIP3    H243603   3.114   0.757  11.797 -0.2695  0.7189 -0.0425
 6470TIP3   OH243604   3.902   2.259  10.753  0.0189  0.2291  0.0911
 6470TIP3    H143605   3.956   2.242  10.830 -0.5036  0.1580  0.4458
 6470TIP3    H243606   3.905   2.354  10.742  0.2579  0.2203  0.0768
 6471TIP3   OH243607   2.899   0.467   9.850 -0.2431  0.6595 -0.3951
 6471TIP3    H143608   2.814   0.509   9.855  0.0254  1.2905 -0.9384
 6471TIP3    H243609   2.896   0.398   9.916 -3.0813 -2.8638 -3.7011
 6472TIP3   OH243610   6.677   0.460  11.734  0.0813  0.0886  0.4447
 6472TIP3    H143611   6.686   0.554  11.718  1.4652  0.0078  0.6571
 6472TIP3    H243612   6.613   0.431  11.669  1.0451  0.8454 -0.8942
 6473TIP3   OH243613   5.026   5.219  10.324 -0.0341 -0.1256 -0.4011
 6473TIP3    H143614   4.984   5.219  10.410 -1.1089  1.0548 -0.8913
 6473TIP3    H243615   5.006   5.134  10.287  1.2292 -1.0150  0.8595
 6474TIP3   OH243616   5.521   0.962  12.825  0.3827  0.1291 -0.0229
 6474TIP3    H143617   5.545   1.041  12.873 -1.5300 -0.2976  1.7883
 6474TIP3    H243618   5.427   0.954  12.838  0.4680 -2.2430 -0.4391
 6475TIP3   OH243619   4.249   0.108  11.921 -0.2267 -0.9065 -0.2188
 6475TIP3    H143620   4.195   0.084  11.846  0.5512 -1.7588 -0.5333
 6475TIP3    H243621   4.204   0.070  11.997 -1.9859  1.4848  0.0378
 6476TIP3   OH243622   2.599   5.443  11.180  0.1715  0.2989  0.3685
 6476TIP3    H143623   2.647   5.374  11.135 -0.2271 -0.1458  0.6232
 6476TIP3    H243624   2.614   5.521  11.126 -0.6448 -0.3136 -0.7673
 6477TIP3   OH243625   6.644   3.134  11.386 -0.0549  0.0785 -0.1700
 6477TIP3    H143626   6.739   3.136  11.373 -0.3719 -0.2927 -3.2630
 6477TIP3    H243627   6.615   3.223  11.363 -0.5763 -0.2270 -0.7246
 6478TIP3   OH243628   7.190   7.377  11.286  0.4327  0.1120 -0.3490
 6478TIP3    H143629   7.209   7.386  11.379 -0.1024  0.0897 -0.2330
 6478TIP3    H243630   7.095   7.364  11.282  0.2257  1.6748 -1.0029
 6479TIP3   OH243631   6.734   7.473  11.184 -0.1276 -0.2755 -0.0106
 6479TIP3    H143632   6.674   7.452  11.256  0.3794  0.0041  0.5069
 6479TIP3    H243633   6.818   7.434  11.211  0.1620  0.1622 -0.2658
 6480TIP3   OH243634   5.656   2.656  11.266 -0.8716  0.3269 -0.0029
 6480TIP3    H143635   5.566   2.683  11.285 -0.5604  0.6295  1.0596
 6480TIP3    H243636   5.684   2.607  11.343 -0.3207 -0.2808 -0.5739
 6481TIP3   OH243637   4.339   5.582  10.442 -0.5410  0.3770 -0.0533
 6481TIP3    H143638   4.420   5.563  10.395 -0.2988 -0.6773  0.7473
 6481TIP3    H243639   4.270   5.550  10.383 -0.4169  1.5730 -0.8774
 6482TIP3   OH243640   7.360   7.662  11.209 -0.2351 -0.0313 -0.2842
 6482TIP3    H143641   7.297   7.610  11.161  0.3833 -0.6749 -0.4150
 6482TIP3    H243642   7.437   7.606  11.217 -0.7931 -0.5250  2.7076
 6483TIP3   OH243643   5.840   7.555  11.022 -0.0143  0.0149  0.1514
 6483TIP3    H143644   5.831   7.478  11.078  0.0536 -0.1797 -0.1015
 6483TIP3    H243645   5.923   7.541  10.975 -0.0114  0.2326  0.0883
 6484TIP3   OH243646   0.526   5.862  10.724 -0.1327 -0.2020 -0.7164
 6484TIP3    H143647   0.536   5.770  10.748  0.4270  0.3023  1.1585
 6484TIP3    H243648   0.495   5.860  10.634 -0.1365 -2.2217 -0.7150
 6485TIP3   OH243649   4.734   7.243  10.955  0.0042 -0.1293  0.2719
 6485TIP3    H143650   4.700   7.200  10.877  1.3586 -1.6785  0.4821
 6485TIP3    H243651   4.707   7.185  11.027  1.5047 -0.4622  0.6012
 6486TIP3   OH243652   1.883   1.529  11.482  0.0568  0.2286 -0.7511
 6486TIP3    H143653   1.954   1.500  11.540 -0.6021 -2.5667 -1.2329
 6486TIP3    H243654   1.808   1.475  11.506 -1.3529  1.6841 -1.6765
 6487TIP3   OH243655   6.454   7.261  12.494 -0.0798  0.3493 -1.0073
 6487TIP3    H143656   6.473   7.325  12.563 -0.5433 -0.7922  0.2111
 6487TIP3    H243657   6.522   7.277  12.428  1.4756  0.3427  0.5022
 6488TIP3   OH243658   5.899   7.302  11.102  0.6736  0.2116  0.1858
 6488TIP3    H143659   5.920   7.232  11.163  2.5289 -0.3386 -0.9767
 6488TIP3    H243660   5.903   7.260  11.016  0.6046  1.4849 -0.4582
 6489TIP3   OH243661   7.628   5.861  11.138 -0.1733 -0.2408 -0.3070
 6489TIP3    H143662   7.683   5.890  11.211 -0.7323  2.7678 -0.9428
 6489TIP3    H243663   7.558   5.811  11.180  1.8054 -2.3429  0.7072
 6490TIP3   OH243664   5.328   2.425   9.949  0.7331  0.3615  0.0686
 6490TIP3    H143665   5.234   2.414   9.961  0.9036 -1.6120 -0.0633
 6490TIP3    H243666   5.351   2.498  10.006 -0.7379  0.3079  0.7843
 6491TIP3   OH243667   4.844   6.038  10.530 -0.2945 -0.4195  0.0780
 6491TIP3    H143668   4.871   6.016  10.619 -0.3997 -1.3550 -0.1074
 6491TIP3    H243669   4.831   5.953  10.488  0.0124  0.0067 -0.9061
 6492TIP3   OH243670   3.821   2.778  10.553 -0.0442  0.6977 -0.3402
 6492TIP3    H143671   3.895   2.837  10.542  0.1458  0.9260  1.7034
 6492TIP3    H243672   3.745   2.835  10.564 -0.4973  0.4705 -2.0106
 6493TIP3   OH243673   5.479   6.283  11.371  0.4992 -0.2281 -0.0511
 6493TIP3    H143674   5.514   6.285  11.459 -0.2800 -0.3352  0.2718
 6493TIP3    H243675   5.452   6.374  11.354  2.0728  0.1328 -0.7869
 6494TIP3   OH243676   6.734   0.662  13.006 -0.2393  0.3242 -0.0134
 6494TIP3    H143677   6.813   0.706  12.976 -0.1678 -0.8962 -1.7560
 6494TIP3    H243678   6.670   0.676  12.936 -0.4941 -1.5066 -0.1840
 6495TIP3   OH243679   3.446   5.814  10.408 -0.2675  0.2569  0.0907
 6495TIP3    H143680   3.424   5.863  10.329  2.9466 -1.7647 -2.3429
 6495TIP3    H243681   3.465   5.725  10.377  0.8893 -0.7375  3.1852
 6496TIP3   OH243682   1.618   6.576  12.418 -0.1255  0.1113 -0.1822
 6496TIP3    H143683   1.640   6.491  12.454 -1.8525 -0.6585 -0.8359
 6496TIP3    H243684   1.523   6.577  12.415 -0.1083  1.1766 -2.2424
 6497TIP3   OH243685   7.571   3.437  11.300 -0.1274 -0.1451 -0.2269
 6497TIP3    H143686   7.661   3.452  11.330 -0.4866  0.4855  0.5791
 6497TIP3    H243687   7.565   3.484  11.217  0.3801 -0.4589 -0.4439
 6498TIP3   OH243688   3.604   0.939   9.845  0.0219 -0.3322 -0.8849
 6498TIP3    H143689   3.581   1.012   9.902  2.3293  0.6375 -1.1080
 6498TIP3    H243690   3.570   0.963   9.759 -1.4371 -0.7413 -0.4555
 6499TIP3   OH243691   3.947   3.867  11.550 -0.2492  0.0948 -0.2954
 6499TIP3    H143692   3.978   3.908  11.631 -0.0781 -1.5832  0.5482
 6499TIP3    H243693   3.981   3.778  11.554 -2.0537 -0.6895 -1.1605
 6500TIP3   OH243694   5.048   6.114  11.726 -0.4322 -0.1126  0.2340
 6500TIP3    H143695   5.105   6.154  11.792  0.3133 -0.1212 -0.3828
 6500TIP3    H243696   5.094   6.034  11.701  0.7996  1.2540 -2.3260
 6501TIP3   OH243697   6.179   7.254  10.792  0.3991 -0.4119  0.1093
 6501TIP3    H143698   6.186   7.349  10.805 -0.2760 -0.0230 -2.0261
 6501TIP3    H243699   6.086   7.238  10.780  0.7219 -0.7992 -2.7087
 6502TIP3   OH243700   7.531   6.062  10.960  0.5253 -0.5848  0.2326
 6502TIP3    H143701   7.580   5.996  11.009  1.1163 -0.4632 -0.1933
 6502TIP3    H243702   7.464   6.092  11.022 -1.3112 -3.2815 -0.2803
 6503TIP3   OH243703   1.548   2.237  12.347  0.3141 -0.3707 -0.0026
 6503TIP3    H143704   1.457   2.239  12.317  0.9816 -2.2917 -2.5416
 6503TIP3    H243705   1.582   2.324  12.326 -0.8118  0.2687  0.7081
 6504TIP3   OH243706   5.113   7.497  11.828  0.3922  0.5338  0.5694
 6504TIP3    H143707   5.199   7.521  11.796  0.0533 -1.1545 -1.8691
 6504TIP3    H243708   5.053   7.557  11.784  0.1599  0.2449  0.4876
 6505TIP3   OH243709   7.050   1.834  11.916 -0.3614  0.6784  0.5535
 6505TIP3    H143710   6.965   1.811  11.877 -0.8107  1.5209  0.9976
 6505TIP3    H243711   7.035   1.920  11.956  1.5161  2.2943 -1.9610
 6506TIP3   OH243712   4.841   6.272  12.314 -0.4448  0.7499  0.0569
 6506TIP3    H143713   4.904   6.303  12.379  1.0207  0.7553 -1.3070
 6506TIP3    H243714   4.757   6.275  12.359  0.3996  1.5580  1.6693
 6507TIP3   OH243715   5.425   5.603  11.705 -0.4648 -0.3460 -0.0949
 6507TIP3    H143716   5.381   5.539  11.761 -0.9257  0.5139  0.5592
 6507TIP3    H243717   5.447   5.675  11.765  0.5730 -0.1417 -0.6935
 6508TIP3   OH243718   1.724   3.826  12.903 -0.0532  0.5957 -0.2455
 6508TIP3    H143719   1.658   3.888  12.872 -0.7355 -0.4042 -0.8586
 6508TIP3    H243720   1.787   3.821  12.830 -0.0894  0.4486 -0.2670
 6509TIP3   OH243721   0.861   5.828  12.042  0.6940 -0.1500 -0.6967
 6509TIP3    H143722   0.838   5.757  11.981  0.6260 -0.0397 -0.7978
 6509TIP3    H243723   0.859   5.786  12.128  1.8850 -0.5973 -0.8560
 6510TIP3   OH243724   2.004   0.125  11.713  0.4474  0.3687  1.2908
 6510TIP3    H143725   1.952   0.185  11.768 -0.2524  0.0509  0.9838
 6510TIP3    H243726   1.945   0.052  11.695  0.3188  0.9231 -0.7240
 6511TIP3   OH243727   7.001   5.874  11.184  0.1087 -0.4349  0.2566
 6511TIP3    H143728   7.091   5.898  11.205 -0.5313  2.2805  0.1998
 6511TIP3    H243729   6.970   5.944  11.126 -2.4117 -0.6416  1.2416
 6512TIP3   OH243730   3.952   0.137  12.623 -0.2615 -0.1994  0.6092
 6512TIP3    H143731   3.887   0.207  12.621 -1.1579 -0.9889  1.0540
 6512TIP3    H243732   4.036   0.182  12.630 -0.6254  0.8908 -1.4385
 6513TIP3   OH243733   1.855   2.506  10.439 -0.1437 -0.4937 -0.0270
 6513TIP3    H143734   1.823   2.487  10.351 -0.4134  0.7960 -0.2314
 6513TIP3    H243735   1.860   2.601  10.442  0.3493 -0.5419  1.1899
 6514TIP3   OH243736   0.119   0.519  12.447 -0.4977  0.1030 -0.0664
 6514TIP3    H143737   0.030   0.547  12.466 -0.5088 -0.7749  1.3373
 6514TIP3    H243738   0.172   0.599  12.455 -1.0332  0.4508  0.0244
 6515TIP3   OH243739   2.263   4.814  10.828 -0.2820  0.1037  0.2619
 6515TIP3    H143740   2.180   4.851  10.857  0.8263  1.3866  1.9623
 6515TIP3    H243741   2.311   4.796  10.908  1.9764  1.5675 -0.6578
 6516TIP3   OH243742   0.616   6.036   9.997 -0.4998 -0.3045 -0.0078
 6516TIP3    H143743   0.538   5.986   9.973 -1.5853  1.1939  0.2696
 6516TIP3    H243744   0.613   6.113   9.941 -0.0239  0.4888  1.0392
 6517TIP3   OH243745   1.389   1.680  10.590  0.0797 -0.2613 -0.4561
 6517TIP3    H143746   1.440   1.599  10.584 -0.9483 -0.9859  0.1993
 6517TIP3    H243747   1.450   1.744  10.627  1.0299 -0.6066 -1.3645
 6518TIP3   OH243748   1.387   2.354  10.192  0.2007  0.1618  0.4343
 6518TIP3    H143749   1.318   2.358  10.258  0.5411 -1.0731  0.9131
 6518TIP3    H243750   1.378   2.266  10.154  0.3323  0.6744 -0.8103
 6519TIP3   OH243751   2.750   5.761   9.968 -0.3842  0.1676 -0.2905
 6519TIP3    H143752   2.725   5.850   9.995  1.4651  0.5651  0.2320
 6519TIP3    H243753   2.843   5.768   9.947  0.1820 -1.9385  1.2240
 6520TIP3   OH243754   5.915   3.899  10.701  0.1618  0.3456  0.1134
 6520TIP3    H143755   5.846   3.842  10.668 -0.3055  1.4371 -0.8432
 6520TIP3    H243756   5.967   3.920  10.624  0.2345  1.3370  0.4272
 6521TIP3   OH243757   1.281   6.557  11.606 -0.7534  0.2386  0.4779
 6521TIP3    H143758   1.319   6.645  11.607  1.9700 -0.8209  0.7973
 6521TIP3    H243759   1.263   6.540  11.514  3.5175 -0.5881 -0.4269
 6522TIP3   OH243760   1.657   7.288  11.015  0.1186 -0.3204 -0.3569
 6522TIP3    H143761   1.736   7.320  10.971 -1.3989  1.7123 -1.7685
 6522TIP3    H243762   1.630   7.360  11.072 -0.9881 -0.7931 -0.2611
 6523TIP3   OH243763   0.072   7.038  10.683  0.1675 -0.3222 -0.1235
 6523TIP3    H143764   0.130   6.976  10.725 -1.0683 -1.1386  0.4426
 6523TIP3    H243765   0.030   6.989  10.612  0.0316  0.1877 -0.4056
 6524TIP3   OH243766   3.016   0.824  10.455  0.2479  0.2801 -0.7255
 6524TIP3    H143767   3.095   0.857  10.499  0.4611 -1.0661 -0.0322
 6524TIP3    H243768   3.026   0.729  10.457 -1.0209  0.1144 -1.3513
 6525TIP3   OH243769   5.120   6.311  10.709 -0.8513 -0.0487  0.2718
 6525TIP3    H143770   5.133   6.405  10.725 -0.7954  0.0687 -0.4671
 6525TIP3    H243771   5.170   6.292  10.630 -1.4846 -0.5388 -0.0248
 6526TIP3   OH243772   4.447   1.389  12.576  0.4381 -0.4351 -0.5652
 6526TIP3    H143773   4.449   1.299  12.609 -0.4641 -0.0024  0.7463
 6526TIP3    H243774   4.538   1.409  12.554  0.9985 -0.9553  1.1569
 6527TIP3   OH243775   0.441   5.120  11.670 -0.6023 -0.0146  0.0504
 6527TIP3    H143776   0.533   5.127  11.696 -0.8814 -0.7126  1.3201
 6527TIP3    H243777   0.445   5.098  11.577  0.5164  0.0026  0.0709
 6528TIP3   OH243778   2.353   6.595  11.960 -0.2480  0.6167  0.7019
 6528TIP3    H143779   2.417   6.661  11.987  0.2376  0.2674  0.4166
 6528TIP3    H243780   2.373   6.578  11.868 -0.5444  0.2671  0.6982
 6529TIP3   OH243781   0.902   4.676  12.258  0.2634 -0.0321  0.1381
 6529TIP3    H143782   0.891   4.651  12.349 -1.2737  2.4242  0.7265
 6529TIP3    H243783   0.941   4.764  12.261  0.7292 -0.1344 -1.5729
 6530TIP3   OH243784   6.049   2.738  10.318  0.0654  0.6472 -0.2893
 6530TIP3    H143785   6.017   2.667  10.263 -0.3949  0.7476 -0.1511
 6530TIP3    H243786   6.144   2.724  10.321  0.2929  1.5306 -2.3485
 6531TIP3   OH243787   4.077   2.225  11.580  0.2599 -0.6368 -0.5834
 6531TIP3    H143788   4.110   2.249  11.494  0.2855 -3.6766 -1.5154
 6531TIP3    H243789   3.983   2.211  11.567 -0.1007  0.7031  0.3590
 6532TIP3   OH243790   3.509   0.824  13.006 -0.4734 -0.4421 -0.7001
 6532TIP3    H143791   3.600   0.798  12.988 -0.4579 -0.7639 -0.1744
 6532TIP3    H243792   3.456   0.756  12.964 -0.4339 -1.3178  0.5974
 6533TIP3   OH243793   5.768   7.474  11.923 -0.7114  0.2001 -0.0892
 6533TIP3    H143794   5.813   7.508  12.000 -0.8179  3.1369 -1.1762
 6533TIP3    H243795   5.838   7.459  11.859 -0.7593 -0.8358  0.0899
 6534TIP3   OH243796   2.389   4.475  11.219  0.4835  0.2817  0.0631
 6534TIP3    H143797   2.412   4.563  11.190  2.5035 -0.2823 -0.1749
 6534TIP3    H243798   2.394   4.422  11.140  1.4122 -0.4199  0.5711
 6535TIP3   OH243799   1.617   2.951  11.672 -0.7558  0.0115  0.0240
 6535TIP3    H143800   1.655   2.884  11.615 -0.3178  0.3020 -0.0307
 6535TIP3    H243801   1.607   3.027  11.615  0.3875  0.5450  0.4953
 6536TIP3   OH243802   1.561   7.597  11.452  0.1352  0.0358 -0.2623
 6536TIP3    H143803   1.600   7.529  11.397 -0.3052 -0.6743  0.2933
 6536TIP3    H243804   1.470   7.603  11.422 -0.5889 -1.5499  1.4740
 6537TIP3   OH243805   3.554   1.635  10.766  0.0214  0.2660 -0.0522
 6537TIP3    H143806   3.503   1.660  10.689  2.6863  2.3978 -1.2954
 6537TIP3    H243807   3.531   1.700  10.832  0.9329  1.1407 -0.5663
 6538TIP3   OH243808   1.189   7.553  12.163  0.1607 -0.0706  0.4673
 6538TIP3    H143809   1.183   7.604  12.243  0.9573  1.0572 -0.1658
 6538TIP3    H243810   1.281   7.526  12.158  0.2502  0.3477 -0.3394
 6539TIP3   OH243811   5.296   6.618  11.746  1.0617  0.0649  0.0695
 6539TIP3    H143812   5.354   6.588  11.816 -1.8926 -1.4265  2.1343
 6539TIP3    H243813   5.298   6.548  11.681  1.6738  0.0919  0.0593
 6540TIP3   OH243814   4.540   7.425  11.389 -0.0898 -0.2699  0.1258
 6540TIP3    H143815   4.488   7.345  11.401  0.0330 -0.3595  0.0704
 6540TIP3    H243816   4.477   7.492  11.366 -0.2083 -0.3262  0.2849
 6541TIP3   OH243817   6.160   4.527  12.252 -0.1472  0.4092 -0.1180
 6541TIP3    H143818   6.093   4.511  12.318  0.3762  1.6645  0.7570
 6541TIP3    H243819   6.212   4.447  12.250 -1.2257 -0.3086 -0.3098
 6542TIP3   OH243820   7.578   1.959  11.833  1.0095 -0.1234  0.6919
 6542TIP3    H143821   7.596   2.047  11.867  0.8663  0.6247 -1.0295
 6542TIP3    H243822   7.494   1.968  11.788  0.8999 -1.2043  0.6604
 6543TIP3   OH243823   0.337   4.538   9.999  0.4681 -0.3903 -0.2119
 6543TIP3    H143824   0.432   4.548   9.994  0.5842 -1.1467  0.2795
 6543TIP3    H243825   0.324   4.461  10.054 -0.4502  0.2766  0.5395
 6544TIP3   OH243826   0.396   5.891  10.024 -0.2837  0.1114 -0.4007
 6544TIP3    H143827   0.303   5.903  10.004 -0.9572  2.4633  3.3198
 6544TIP3    H243828   0.397   5.835  10.102  1.5211 -0.3691 -0.7110
 6545TIP3   OH243829   1.713   2.263  13.108 -0.4384 -0.3880 -0.0646
 6545TIP3    H143830   1.721   2.167  13.104 -1.8308 -0.4923 -1.9380
 6545TIP3    H243831   1.787   2.291  13.162  0.2281 -2.4831  0.2202
 6546TIP3   OH243832   0.281   2.204  10.306  0.6701  1.0351 -0.3558
 6546TIP3    H143833   0.347   2.214  10.375  1.4876 -3.4808 -0.2030
 6546TIP3    H243834   0.330   2.168  10.231 -1.2814 -1.0563 -0.7317
 6547TIP3   OH243835   1.236   5.030  11.337  0.3292  0.3749 -0.0493
 6547TIP3    H143836   1.329   5.012  11.348  0.2501 -1.1495 -1.4626
 6547TIP3    H243837   1.193   4.947  11.360 -0.6365  0.8924  0.0745
 6548TIP3   OH243838   5.214   2.576   9.715  0.1457  0.7867 -0.4067
 6548TIP3    H143839   5.292   2.631   9.701 -0.2081  1.6765  0.9410
 6548TIP3    H243840   5.242   2.512   9.780  0.0994  0.2995 -0.8537
 6549TIP3   OH243841   0.788   4.536  11.328  0.2185 -0.1287 -0.2381
 6549TIP3    H143842   0.780   4.508  11.237  1.1309 -0.3874 -0.2526
 6549TIP3    H243843   0.782   4.455  11.379  2.4040 -0.3757 -0.2541
 6550TIP3   OH243844   6.247   7.182  11.813  0.0240 -0.0881 -0.2262
 6550TIP3    H143845   6.195   7.104  11.831 -1.0788  0.8563  0.8370
 6550TIP3    H243846   6.326   7.171  11.866  0.1174 -0.7155 -0.4885
 6551TIP3   OH243847   5.530   6.932  10.022 -0.2128  0.3195  0.2770
 6551TIP3    H143848   5.606   6.875  10.005  1.1584  1.7988  1.1294
 6551TIP3    H243849   5.523   6.985   9.943 -0.1887  0.3480  0.2939
 6552TIP3   OH243850   1.466   2.630  12.453 -0.1481  0.6636  0.5738
 6552TIP3    H143851   1.428   2.708  12.494 -0.0947  0.0809  1.7827
 6552TIP3    H243852   1.428   2.557  12.502  1.2743  0.0053  0.7361
 6553TIP3   OH243853   4.599   0.930  11.708  0.0834 -0.8035  0.2610
 6553TIP3    H143854   4.682   0.883  11.698  0.8165  0.5491 -0.2412
 6553TIP3    H243855   4.624   1.016  11.741 -1.0937 -0.2127 -0.3251
 6554TIP3   OH243856   4.082   3.520  11.062  0.1164  0.2365 -0.1179
 6554TIP3    H143857   4.120   3.601  11.099  0.4849 -0.5069  1.2191
 6554TIP3    H243858   4.139   3.498  10.989  0.3471  0.8961 -0.1447
 6555TIP3   OH243859   3.438   5.995  11.036  0.2972  0.3725 -0.2641
 6555TIP3    H143860   3.489   5.971  11.113 -0.6674 -0.5650  0.1157
 6555TIP3    H243861   3.446   5.919  10.978  0.4878  0.8034 -0.8028
 6556TIP3   OH243862   2.206   2.413  11.439  0.0222  0.2492 -0.1590
 6556TIP3    H143863   2.235   2.366  11.360 -0.7708  1.6766 -1.3477
 6556TIP3    H243864   2.131   2.362  11.470  0.7994 -0.7494  0.1470
 6557TIP3   OH243865   6.759   5.206  12.243  0.1315  0.1622 -0.4202
 6557TIP3    H143866   6.719   5.222  12.157 -0.4456  0.8082 -0.0484
 6557TIP3    H243867   6.698   5.246  12.305  2.0624  2.5795  0.0930
 6558TIP3   OH243868   0.940   1.520   9.789  0.2792 -0.1434  0.1689
 6558TIP3    H143869   0.948   1.613   9.765  1.3139 -0.4474 -0.8045
 6558TIP3    H243870   0.849   1.509   9.813 -0.0479  0.9744 -0.4636
 6559TIP3   OH243871   3.766   6.350  10.722 -0.3884 -0.0244 -0.6190
 6559TIP3    H143872   3.831   6.314  10.783 -2.3320 -1.7474  0.5489
 6559TIP3    H243873   3.748   6.437  10.757 -0.5003 -0.4844  0.5360
 6560TIP3   OH243874   7.228   4.248  11.537 -0.3276  0.4160 -0.1171
 6560TIP3    H143875   7.203   4.338  11.559  0.6776  0.9674 -1.1401
 6560TIP3    H243876   7.149   4.210  11.500 -1.3186  0.2473  2.0132
 6561TIP3   OH243877   7.202   5.731  12.164 -0.0910  0.1885 -1.0274
 6561TIP3    H143878   7.171   5.644  12.137 -0.4924  0.5933 -1.9053
 6561TIP3    H243879   7.281   5.714  12.215 -0.8288 -0.7662 -0.1741
 6562TIP3   OH243880   3.377   1.055  13.018 -0.4619 -0.2968 -0.2788
 6562TIP3    H143881   3.435   0.979  13.025  0.3257  0.4271  1.9001
 6562TIP3    H243882   3.418   1.109  12.951  2.1390  0.6856  1.8758
 6563TIP3   OH243883   0.270   3.440  10.899  0.1111 -0.1336  0.4018
 6563TIP3    H143884   0.242   3.472  10.984 -0.2443 -0.5673  0.4528
 6563TIP3    H243885   0.356   3.401  10.914  0.4517  0.5957  0.3799
 6564TIP3   OH243886   6.616   0.755  12.506  0.4276 -0.2122  0.9085
 6564TIP3    H143887   6.572   0.740  12.422  1.3680  0.8398  0.2124
 6564TIP3    H243888   6.692   0.698  12.504 -0.1729 -1.0647  1.5673
 6565TIP3   OH243889   6.684   1.735  10.894 -0.4766  0.7019 -0.4563
 6565TIP3    H143890   6.757   1.683  10.861 -0.4640  1.2168 -1.2796
 6565TIP3    H243891   6.641   1.678  10.958  0.0162 -0.0053 -0.7350
 6566TIP3   OH243892   7.079   0.781  12.102 -0.7759 -0.1564 -0.2424
 6566TIP3    H143893   7.097   0.737  12.019  0.3834  0.7692 -0.5217
 6566TIP3    H243894   7.165   0.791  12.142 -1.4126 -1.4180  1.5345
 6567TIP3   OH243895   1.715   6.101  10.810  0.3524 -0.8431  0.3590
 6567TIP3    H143896   1.719   6.192  10.780  0.0918 -0.2414  2.0068
 6567TIP3    H243897   1.662   6.056  10.744  0.0400  0.3192 -0.2122
 6568TIP3   OH243898   3.643   1.398  10.628 -0.3816  0.0463 -0.0532
 6568TIP3    H143899   3.548   1.400  10.614 -0.3212  1.6244 -0.4037
 6568TIP3    H243900   3.659   1.467  10.692  0.3733 -1.2255  1.1559
 6569TIP3   OH243901   0.191   6.164  11.684  0.2531  0.2634  0.5126
 6569TIP3    H143902   0.132   6.112  11.629  0.5752 -0.9157  1.2481
 6569TIP3    H243903   0.156   6.156  11.772  1.1006  0.1402  0.8503
 6570TIP3   OH243904   3.119   7.583  10.717  0.1763  0.4049 -0.1699
 6570TIP3    H143905   3.050   7.518  10.717  0.3575  0.2118 -0.1420
 6570TIP3    H243906   3.111   7.626  10.802  0.3746  0.0779  0.0166
 6571TIP3   OH243907   4.633   6.564  12.263 -0.4323  0.1541 -0.3927
 6571TIP3    H143908   4.628   6.512  12.343 -1.2137  0.3068 -0.3369
 6571TIP3    H243909   4.723   6.551  12.231 -0.4067 -0.6570 -0.0000
 6572TIP3   OH243910   5.215   0.052  12.069  0.2438  0.2868 -0.2989
 6572TIP3    H143911   5.303   0.089  12.067 -0.0103  0.8744 -1.5840
 6572TIP3    H243912   5.215  -0.006  12.145  0.3678  3.5644  2.3982
 6573TIP3   OH243913   7.155   7.596  10.852 -0.2155  0.0065  0.0143
 6573TIP3    H143914   7.206   7.538  10.909  1.0877  0.8537 -0.2444
 6573TIP3    H243915   7.125   7.539  10.781  0.4141 -0.5109  0.1516
 6574TIP3   OH243916   6.350   7.398  12.898 -0.2532 -0.0511  0.5214
 6574TIP3    H143917   6.344   7.303  12.906 -1.6463 -0.1382 -1.1415
 6574TIP3    H243918   6.405   7.411  12.821 -1.7571  0.4391 -0.4941
 6575TIP3   OH243919   2.455   5.750  11.431  0.2133 -0.1743 -0.2668
 6575TIP3    H143920   2.419   5.665  11.407  0.6072 -0.2168 -0.7241
 6575TIP3    H243921   2.549   5.743  11.411  0.1760  0.5061 -0.7158
 6576TIP3   OH243922   7.641   2.208  11.953 -0.3591  0.0142 -0.3178
 6576TIP3    H143923   7.733   2.233  11.967 -0.0040 -1.6016  0.5457
 6576TIP3    H243924   7.602   2.282  11.908  1.0928  1.2200  0.3339
 6577TIP3   OH243925   4.116   6.904  11.477 -0.1932  0.5610 -0.4676
 6577TIP3    H143926   4.054   6.971  11.506  0.4358  0.5953  0.8299
 6577TIP3    H243927   4.106   6.832  11.540 -0.1368 -0.1689 -1.2592
 6578TIP3   OH243928   6.322   4.974  11.282 -0.4798 -0.4170  0.5253
 6578TIP3    H143929   6.286   4.897  11.240  2.1775 -1.1968 -0.5287
 6578TIP3    H243930   6.315   4.956  11.376 -1.2886 -1.2498  0.3132
 6579TIP3   OH243931   5.936   1.202  10.856  0.4410 -0.3753 -0.6013
 6579TIP3    H143932   5.964   1.269  10.794  1.0015  1.1074  1.1269
 6579TIP3    H243933   5.992   1.215  10.932 -2.3189  0.1832  1.5331
 6580TIP3   OH243934   6.505   6.380   9.843 -0.2726  0.2423 -0.4075
 6580TIP3    H143935   6.504   6.363   9.937  0.2499 -0.3939 -0.5116
 6580TIP3    H243936   6.428   6.334   9.810  0.6204 -1.2381 -0.5530
 6581TIP3   OH243937   7.118   6.514  10.568 -0.6364 -0.3358 -0.4193
 6581TIP3    H143938   7.117   6.431  10.616  0.5271 -1.0072 -1.5127
 6581TIP3    H243939   7.142   6.579  10.633  3.3761 -1.5467 -0.4510
 6582TIP3   OH243940   3.580   0.311  11.961 -0.3285  0.3968 -0.2061
 6582TIP3    H143941   3.632   0.317  11.882 -0.6553  0.1899 -0.4390
 6582TIP3    H243942   3.491   0.295  11.930 -0.0267 -2.8206  0.2357
 6583TIP3   OH243943   6.403   2.678  10.901  0.2439  0.8507 -0.1956
 6583TIP3    H143944   6.359   2.629  10.831  1.4883  0.1983 -0.5549
 6583TIP3    H243945   6.332   2.724  10.946 -0.9340 -0.8164 -0.2114
 6584TIP3   OH243946   2.300   3.044  11.064 -0.2063  0.2749  0.0665
 6584TIP3    H143947   2.388   3.021  11.093 -0.1476  0.8493  0.3534
 6584TIP3    H243948   2.243   3.017  11.137 -0.5568 -2.2213 -1.0221
 6585TIP3   OH243949   0.909   5.928  12.349 -0.1293 -0.0489 -0.3005
 6585TIP3    H143950   0.853   6.003  12.371 -0.8734 -0.4020 -0.9188
 6585TIP3    H243951   0.986   5.966  12.308  0.2574  0.4767  0.8884
 6586TIP3   OH243952   2.936   2.919  11.044 -0.6043 -0.2042  0.2136
 6586TIP3    H143953   2.934   3.010  11.012 -0.7108 -0.5494 -0.7930
 6586TIP3    H243954   3.021   2.886  11.015  0.3080  0.1506  2.2930
 6587TIP3   OH243955   3.568   6.172  10.794 -0.2242 -0.0864 -0.2011
 6587TIP3    H143956   3.622   6.245  10.766  0.4165 -1.1450 -1.8747
 6587TIP3    H243957   3.560   6.116  10.716 -1.9061 -1.0669  0.6085
 6588TIP3   OH243958   1.072   3.927  10.619 -0.0043 -0.3091  0.0799
 6588TIP3    H143959   1.065   3.849  10.564  0.0316  0.1597 -0.6045
 6588TIP3    H243960   1.134   3.983  10.572  1.1772 -0.5106  1.3462
 6589TIP3   OH243961   1.031   1.581  12.536 -0.1733  0.3996  0.2808
 6589TIP3    H143962   0.938   1.591  12.517 -0.0222  0.3890 -0.4765
 6589TIP3    H243963   1.042   1.622  12.622 -0.9384  0.0794  0.5419
 6590TIP3   OH243964   1.886   6.165  12.304 -0.4255  0.2773  0.0700
 6590TIP3    H143965   1.917   6.075  12.293 -1.0893  0.2528 -2.1497
 6590TIP3    H243966   1.905   6.207  12.220  1.7023  2.8550  1.6706
 6591TIP3   OH243967   4.962   2.041  10.443  0.5335 -0.2744 -0.0276
 6591TIP3    H143968   4.875   2.060  10.410 -1.2119 -3.0110  2.4479
 6591TIP3    H243969   4.957   2.059  10.537  2.4616 -1.0842  0.2902
 6592TIP3   OH243970   4.404   2.508  11.898  0.1100 -0.3343 -0.0747
 6592TIP3    H143971   4.371   2.450  11.829 -0.8628 -0.1184  0.1931
 6592TIP3    H243972   4.491   2.474  11.919 -0.1344 -1.2187 -0.4575
 6593TIP3   OH243973   4.601   3.369   9.708 -0.4210 -0.2429  0.5512
 6593TIP3    H143974   4.675   3.379   9.767  0.9925 -0.7994 -1.0255
 6593TIP3    H243975   4.567   3.457   9.695  1.3424  0.3398 -0.3487
 6594TIP3   OH243976   4.618   3.071  11.471  0.0499  0.2861  0.2032
 6594TIP3    H143977   4.624   3.030  11.557  1.0754 -1.5704 -0.6903
 6594TIP3    H243978   4.626   2.998  11.409  0.3280  1.6711 -1.4756
 6595TIP3   OH243979   2.080   6.002  11.885 -0.3988  0.0094  0.1636
 6595TIP3    H143980   2.003   5.969  11.838 -0.5521 -0.2172  0.5677
 6595TIP3    H243981   2.108   6.078  11.834  0.5961 -1.3316 -1.3938
 6596TIP3   OH243982   7.337   7.025   9.888  0.2016  0.1483 -0.5087
 6596TIP3    H143983   7.418   7.074   9.875 -0.2423  0.5847 -1.8794
 6596TIP3    H243984   7.348   6.980   9.971  0.5589  2.7567  0.9576
 6597TIP3   OH243985   6.549   4.490  10.538 -0.7134  0.7500  0.0512
 6597TIP3    H143986   6.620   4.429  10.520 -0.7475 -0.0933  2.3909
 6597TIP3    H243987   6.470   4.443  10.513 -0.6016  0.6529 -0.1173
 6598TIP3   OH243988   5.938   0.626  11.114 -0.1957  0.0109 -0.1769
 6598TIP3    H143989   5.971   0.658  11.198  0.0577  0.1215 -0.3190
 6598TIP3    H243990   5.953   0.531  11.117  1.6685  0.2285 -0.8953
 6599TIP3   OH243991   6.373   5.562  10.226 -0.2624  0.3756  0.0476
 6599TIP3    H143992   6.286   5.603  10.224 -0.2757  0.7785  3.3411
 6599TIP3    H243993   6.355   5.470  10.248  0.1415  0.6834  1.7509
 6600TIP3   OH243994   1.788   2.003  13.072  0.1306  0.1796 -0.0000
 6600TIP3    H143995   1.859   1.942  13.088 -2.1834 -2.2710  1.8300
 6600TIP3    H243996   1.728   1.956  13.014 -0.4338  1.8328 -0.8176
 6601TIP3   OH243997   1.766   7.381  12.814 -0.4475  0.0085 -0.1295
 6601TIP3    H143998   1.693   7.421  12.861 -0.4324 -1.1750  0.9513
 6601TIP3    H243999   1.828   7.453  12.801 -0.3661  0.3437  1.8486
 6602TIP3   OH244000   3.621   2.078  11.169  0.6791 -0.1930  0.2417
 6602TIP3    H144001   3.532   2.098  11.199  1.6082  1.4172  2.0760
 6602TIP3    H244002   3.648   2.156  11.119  0.6426 -1.2088 -1.4693
 6603TIP3   OH244003   4.531   6.228  11.461 -0.4668  0.6345 -0.2350
 6603TIP3    H144004   4.519   6.199  11.551  3.3125  0.3194  0.3516
 6603TIP3    H244005   4.547   6.322  11.468  0.8671  0.4446 -0.3672
 6604TIP3   OH244006   2.826   2.380  10.521 -0.0800  0.2305  0.1535
 6604TIP3    H144007   2.754   2.322  10.496  0.2524 -0.3819  0.6057
 6604TIP3    H244008   2.798   2.467  10.490 -0.3559 -0.2465 -0.9734
 6605TIP3   OH244009   3.876   5.492  12.035 -0.3035 -0.4698  0.1017
 6605TIP3    H144010   3.806   5.427  12.032 -0.5597 -0.1538 -0.9143
 6605TIP3    H244011   3.922   5.473  12.117  1.0011 -3.3440 -1.1403
 6606TIP3   OH244012   1.766   6.523  10.113 -0.2201  0.0466 -0.6150
 6606TIP3    H144013   1.674   6.497  10.104  0.1597 -1.9719  0.7609
 6606TIP3    H244014   1.810   6.446  10.147  2.0089  0.9958 -1.1525
 6607TIP3   OH244015   6.789   1.496  10.532  0.2476  0.2243 -0.6768
 6607TIP3    H144016   6.874   1.456  10.512 -0.7246 -1.7898 -1.0323
 6607TIP3    H244017   6.761   1.537  10.450  0.1079 -0.6290 -1.0641
 6608TIP3   OH244018   1.875   7.614  10.514  0.2506  0.4232 -0.3734
 6608TIP3    H144019   1.861   7.520  10.498 -0.1383  0.1961  1.1270
 6608TIP3    H244020   1.959   7.618  10.560 -0.5214  0.5993  1.1024
 6609TIP3   OH244021   0.029   0.912  11.730  0.1500  0.1561  0.3705
 6609TIP3    H144022  -0.023   0.939  11.806 -2.4770 -0.7476 -0.9838
 6609TIP3    H244023  -0.014   0.834  11.697  1.4445  0.2621 -1.8194
 6610TIP3   OH244024   1.945   7.368  18.449 -0.3160 -0.4707 -0.2986
 6610TIP3    H144025   1.870   7.310  18.462 -2.0377  1.5694 -0.7642
 6610TIP3    H244026   1.966   7.401  18.536 -0.4888 -0.3857 -0.2909
 6611TIP3   OH244027   3.681   3.822  12.457  0.3875  0.3711  0.3092
 6611TIP3    H144028   3.767   3.780  12.449 -0.0223 -0.1368 -1.9691
 6611TIP3    H244029   3.686   3.898  12.398 -1.0875 -0.3511 -0.8113
 6612TIP3   OH244030   3.963   1.008  12.013  0.1280  1.2132  0.8117
 6612TIP3    H144031   4.027   0.951  12.055  0.2166  0.7870  0.1254
 6612TIP3    H244032   4.004   1.033  11.930 -1.3318 -0.6702 -0.5875
 6613TIP3   OH244033   3.970   0.607  11.570  0.1384 -0.1537  0.2501
 6613TIP3    H144034   4.018   0.676  11.524 -0.0367  0.5641  1.1332
 6613TIP3    H244035   3.881   0.614  11.536  0.1737 -0.0993  0.1661
 6614TIP3   OH244036   1.934   1.456  10.666 -0.4836  0.5974 -0.1559
 6614TIP3    H144037   1.945   1.489  10.755  1.3602  0.4389 -0.2814
 6614TIP3    H244038   1.994   1.382  10.660  1.1796  1.9772 -2.1621
 6615TIP3   OH244039   0.812   6.777  11.874 -0.2827  0.4806 -0.1455
 6615TIP3    H144040   0.893   6.739  11.909 -1.4723 -0.6971  1.4737
 6615TIP3    H244041   0.805   6.740  11.786 -0.0410 -1.0357  0.4281
 6616TIP3   OH244042   3.962   7.531  11.336  0.1381 -0.4147 -0.1391
 6616TIP3    H144043   3.983   7.621  11.361  0.0112  0.1283 -1.8521
 6616TIP3    H244044   4.046   7.492  11.313 -0.0129 -0.1442 -1.1721
 6617TIP3   OH244045   4.326   4.757  11.654 -0.4119  0.5595 -0.2030
 6617TIP3    H144046   4.244   4.751  11.704 -0.6236 -0.5679 -0.6696
 6617TIP3    H244047   4.395   4.751  11.720 -0.6978  0.2836  0.0720
 6618TIP3   OH244048   4.956   7.337  10.853 -0.7106 -0.0823  0.3665
 6618TIP3    H144049   4.900   7.293  10.917 -1.4863 -1.7071 -1.3440
 6618TIP3    H244050   4.907   7.334  10.771  0.1114  2.2172 -0.2941
 6619TIP3   OH244051   2.651   2.007  10.148 -0.4009 -0.1748 -0.2314
 6619TIP3    H144052   2.605   2.073  10.200 -0.6780  0.8659 -1.7284
 6619TIP3    H244053   2.744   2.023  10.165 -0.4892  0.1066 -0.0144
 6620TIP3   OH244054   4.759   5.115   9.957 -0.0433 -0.0253 -0.7747
 6620TIP3    H144055   4.836   5.079   9.914  1.0689  2.5310 -1.0943
 6620TIP3    H244056   4.767   5.086  10.048  1.4650  0.4158 -0.7447
 6621TIP3   OH244057   6.010   1.904  10.474 -0.6369 -0.3919 -0.2600
 6621TIP3    H144058   5.972   1.980  10.519 -1.2975 -1.2370  0.6595
 6621TIP3    H244059   6.069   1.942  10.408 -1.0086  0.9110  0.1264
 6622TIP3   OH244060   4.969   2.933  11.840  0.1290  0.1414  0.2893
 6622TIP3    H144061   4.979   3.022  11.873  0.1214 -0.3865  1.7474
 6622TIP3    H244062   4.955   2.879  11.917 -0.5713 -1.0466 -0.6218
 6623TIP3   OH244063   0.149   6.077   9.968  0.1779  0.1508 -0.2012
 6623TIP3    H144064   0.079   6.012   9.965  0.4048 -0.0730 -0.8385
 6623TIP3    H244065   0.105   6.159   9.989 -0.3399  0.0886 -1.0003
 6624TIP3   OH244066   1.902   3.578  11.446  0.2051 -0.1776 -0.1421
 6624TIP3    H144067   1.870   3.625  11.523 -1.0031 -1.8819  0.4636
 6624TIP3    H244068   1.879   3.486  11.462  0.3856 -0.6706 -2.2961
 6625TIP3   OH244069   0.798   5.509  11.363 -0.1374  0.3419 -0.2763
 6625TIP3    H144070   0.868   5.569  11.387 -0.1142  1.0193 -1.9422
 6625TIP3    H244071   0.726   5.566  11.335 -0.8773 -0.3790  0.0927
 6626TIP3   OH244072   4.547   3.144  10.170  0.4179  0.0795 -0.1945
 6626TIP3    H144073   4.612   3.209  10.197  0.8332 -1.4488  2.9209
 6626TIP3    H244074   4.593   3.060  10.176 -1.6174 -1.0049  1.5118
 6627TIP3   OH244075   7.302   2.911  10.432  0.1877  0.5287  0.0773
 6627TIP3    H144076   7.221   2.885  10.476  2.4216 -0.8380  3.8252
 6627TIP3    H244077   7.334   2.985  10.482  1.8048  0.3550 -0.6366
 6628TIP3   OH244078   2.015   6.429  12.675  0.3738  0.2769 -0.3415
 6628TIP3    H144079   1.938   6.464  12.720 -1.6007 -1.8470 -1.7776
 6628TIP3    H244080   2.046   6.501  12.620  0.3274  1.6073  1.2877
 6629TIP3   OH244081   1.533   3.381  12.671 -0.3817  0.4902 -0.1908
 6629TIP3    H144082   1.580   3.408  12.751 -0.8314 -1.7448  0.9093
 6629TIP3    H244083   1.598   3.387  12.602  0.4379  1.0712  0.6011
 6630TIP3   OH244084   1.799   1.381  11.824 -0.0620 -0.7250  0.2899
 6630TIP3    H144085   1.827   1.342  11.741  1.2609  3.1415 -1.3150
 6630TIP3    H244086   1.705   1.396  11.813  0.3766  1.3488 -1.4391
 6631TIP3   OH244087   3.490   3.898  12.152 -0.1604 -0.1012 -0.3966
 6631TIP3    H144088   3.455   3.896  12.241  1.0273 -0.4268  0.0873
 6631TIP3    H244089   3.430   3.842  12.101 -0.2319 -0.8097  0.4417
 6632TIP3   OH244090   5.859   5.828  12.451  0.1725 -0.0809 -0.2537
 6632TIP3    H144091   5.889   5.915  12.477 -0.2313  0.4650 -1.5287
 6632TIP3    H244092   5.768   5.841  12.426  0.2051 -0.8049 -0.7740
 6633TIP3   OH244093   2.456   4.702  10.391  1.1631 -0.0272  0.2407
 6633TIP3    H144094   2.514   4.627  10.391 -0.0707 -1.0702  2.4320
 6633TIP3    H244095   2.435   4.717  10.484 -0.2098  1.7592 -0.2908
 6634TIP3   OH244096   5.881   2.198  10.347 -0.4933 -0.1140 -0.7063
 6634TIP3    H144097   5.874   2.152  10.263 -0.4302  0.7565 -1.2061
 6634TIP3    H244098   5.899   2.289  10.322 -2.4123  0.5665  0.1721
 6635TIP3   OH244099   1.575   5.436  10.172 -0.3117 -0.5374  0.0363
 6635TIP3    H144100   1.552   5.385  10.249  1.2869  0.1559  1.0403
 6635TIP3    H244101   1.560   5.378  10.098  1.8213 -2.6630  1.1440
 6636TIP3   OH244102   5.334   0.280  12.864 -0.3610  0.2770  0.2786
 6636TIP3    H144103   5.409   0.307  12.810 -0.6406 -0.7753 -0.6720
 6636TIP3    H244104   5.366   0.285  12.954  0.8411 -0.1198 -0.1139
 6637TIP3   OH244105   3.618   6.730  10.083 -1.0774  0.3723 -0.2947
 6637TIP3    H144106   3.605   6.682  10.002 -3.1675  0.0274  0.1932
 6637TIP3    H244107   3.533   6.729  10.126  0.1801 -0.4089  2.4261
 6638TIP3   OH244108   6.267   6.648  10.335  0.0316 -0.1235  0.1489
 6638TIP3    H144109   6.325   6.700  10.392  1.3436  1.5459 -2.5384
 6638TIP3    H244110   6.180   6.661  10.371  0.9143 -0.3375  2.5932
 6639TIP3   OH244111   0.504   2.357  12.500 -0.3617  0.3125  0.5344
 6639TIP3    H144112   0.595   2.331  12.496  0.0657  1.7717 -0.1542
 6639TIP3    H244113   0.458   2.295  12.444  0.5209  0.7005 -0.6557
 6640TIP3   OH244114   5.275   6.376  11.574 -0.4165 -0.3091 -0.1069
 6640TIP3    H144115   5.201   6.322  11.549  0.2164 -1.2104 -0.0819
 6640TIP3    H244116   5.302   6.342  11.660 -1.3718  1.4888  0.9731
 6641TIP3   OH244117   3.991   6.930  10.486 -0.4469 -0.5571 -0.0089
 6641TIP3    H144118   3.988   6.999  10.551  1.7702  0.8265 -1.2550
 6641TIP3    H244119   3.901   6.899  10.479 -1.3206  1.5357  1.2697
 6642TIP3   OH244120   4.463   7.136  11.392 -0.1657  0.1742  0.3900
 6642TIP3    H144121   4.467   7.099  11.480  0.7504 -0.2037  0.2038
 6642TIP3    H244122   4.382   7.100  11.354  0.4841 -1.3452  0.3605
 6643TIP3   OH244123   2.037   0.909  11.312  0.0650 -0.0629  0.1331
 6643TIP3    H144124   2.039   0.910  11.408 -1.7749 -0.6595  0.2239
 6643TIP3    H244125   2.121   0.947  11.286  0.3478  0.7013  1.9763
 6644TIP3   OH244126   7.227   2.624  10.351 -0.1013  0.0360  0.5473
 6644TIP3    H144127   7.188   2.641  10.437  1.8446  1.1682  1.2677
 6644TIP3    H244128   7.245   2.530  10.351  3.2502  0.4871  2.9950
 6645TIP3   OH244129   0.527   5.189  10.424 -0.3774 -0.0008 -0.3727
 6645TIP3    H144130   0.479   5.106  10.421 -1.4693  0.5417  1.0614
 6645TIP3    H244131   0.465   5.254  10.390  0.8080  0.1444 -2.4566
 6646TIP3   OH244132   6.415   5.234  12.401  0.4413 -0.3480 -0.4682
 6646TIP3    H144133   6.449   5.275  12.322 -1.5141  0.5339 -0.9127
 6646TIP3    H244134   6.486   5.243  12.465  0.8908  1.8840 -1.1711
 6647TIP3   OH244135   5.355   4.813  12.287  0.3084 -0.0944 -0.0324
 6647TIP3    H144136   5.401   4.806  12.371  0.3713 -0.9863 -0.1286
 6647TIP3    H244137   5.336   4.907  12.277  2.6714  0.4251 -0.2751
 6648TIP3   OH244138   5.665   5.402  11.808 -0.1418  0.0446  0.4055
 6648TIP3    H144139   5.714   5.482  11.789  0.4766 -0.4705 -0.2322
 6648TIP3    H244140   5.728   5.332  11.793 -0.9831 -0.6162 -0.0845
 6649TIP3   OH244141   2.193   0.001  12.467 -0.0091 -0.7117 -0.3348
 6649TIP3    H144142   2.137  -0.040  12.533  1.0413  0.4420  1.3693
 6649TIP3    H244143   2.245   0.065  12.517  0.1904  0.8615 -2.4462
 6650TIP3   OH244144   5.858   4.096  10.449  0.1308  0.4930 -0.1097
 6650TIP3    H144145   5.788   4.143  10.492  0.1518  0.0168  0.4607
 6650TIP3    H244146   5.816   4.020  10.410  0.2896  0.3247  0.0415
 6651TIP3   OH244147   2.139   7.518  10.379 -1.4097 -0.2590  0.1478
 6651TIP3    H144148   2.231   7.504  10.400 -1.3557 -1.4615 -0.7509
 6651TIP3    H244149   2.096   7.525  10.464 -0.4929  0.3590  0.5755
 6652TIP3   OH244150   6.223   1.857  12.088 -0.2160  0.8526  0.4429
 6652TIP3    H144151   6.219   1.807  12.169 -1.3323  0.9883  0.4929
 6652TIP3    H244152   6.184   1.941  12.109  0.8784  1.4544  0.1384
 6653TIP3   OH244153   7.658   4.308  10.592  0.2623  0.1642  0.2493
 6653TIP3    H144154   7.620   4.258  10.520 -0.2665  1.3706 -0.3401
 6653TIP3    H244155   7.750   4.281  10.594  0.4010  0.4678 -1.2080
 6654TIP3   OH244156   0.161   1.322  12.418 -0.2250 -0.1267  0.3123
 6654TIP3    H144157   0.102   1.248  12.434 -0.4481  0.1964  1.0447
 6654TIP3    H244158   0.122   1.368  12.344  0.1113 -0.9368 -0.3766
 6655TIP3   OH244159   3.420   2.673  11.974  0.2623  0.2705  0.4831
 6655TIP3    H144160   3.427   2.663  12.069  2.6783  0.5879  0.3852
 6655TIP3    H244161   3.331   2.642  11.954  0.6930 -2.7235  2.4847
 6656TIP3   OH244162   4.308   6.107  11.278  0.3154 -0.5403 -0.2858
 6656TIP3    H144163   4.365   6.101  11.202 -0.9308 -0.5290 -1.2693
 6656TIP3    H244164   4.364   6.136  11.349  1.6949 -1.4069 -0.9879
 6657TIP3   OH244165   3.155   7.602  11.612  0.5296 -0.1130  0.1294
 6657TIP3    H144166   3.237   7.554  11.598  1.0277  0.0390  2.2612
 6657TIP3    H244167   3.121   7.569  11.695 -2.1366 -0.8787 -1.1453
 6658TIP3   OH244168   2.284   1.670  11.859 -0.3486  0.1761  0.2552
 6658TIP3    H144169   2.361   1.677  11.916 -1.1131  0.3757  1.2747
 6658TIP3    H244170   2.263   1.577  11.858 -1.9676  0.4562  2.5386
 6659TIP3   OH244171   4.815   6.407  11.027  0.6208 -0.5460  0.3979
 6659TIP3    H144172   4.811   6.502  11.033  0.8246 -0.4316 -1.0302
 6659TIP3    H244173   4.808   6.377  11.118  1.4509  0.8500  0.9444
 6660TIP3   OH244174   0.986   1.865  10.045 -0.2313  0.0500  0.3071
 6660TIP3    H144175   1.034   1.948  10.039 -0.1411  0.0286  0.6800
 6660TIP3    H244176   1.052   1.801  10.071 -0.0088 -0.4266 -1.3238
 6661TIP3   OH244177   7.538   2.438  11.847  0.1036  0.5717  0.3899
 6661TIP3    H144178   7.623   2.476  11.867  0.4552 -0.7275  1.4883
 6661TIP3    H244179   7.495   2.504  11.792  2.1293  0.8644 -0.9355
 6662TIP3   OH244180   0.859   4.657  10.680  0.4516 -0.4678 -0.6395
 6662TIP3    H144181   0.930   4.600  10.711 -0.9530 -1.9845 -0.0624
 6662TIP3    H244182   0.781   4.602  10.684 -1.0483  1.5934  0.2515
 6663TIP3   OH244183   5.788   1.265  11.171 -0.4403 -0.3204 -0.2110
 6663TIP3    H144184   5.789   1.335  11.106  0.6159  0.3858  0.5225
 6663TIP3    H244185   5.879   1.234  11.173 -0.8073 -1.4561 -0.2364
 6664TIP3   OH244186   2.533   6.840  10.861  0.1181 -0.3034  0.0590
 6664TIP3    H144187   2.575   6.851  10.775  1.2057 -1.0434  0.4725
 6664TIP3    H244188   2.474   6.915  10.868  0.3120 -0.0041 -1.1595
 6665TIP3   OH244189   3.244   6.956   9.789  0.0078  0.1255  0.4240
 6665TIP3    H144190   3.232   7.049   9.808 -1.2785 -0.0192  0.3805
 6665TIP3    H244191   3.159   6.917   9.805  0.9090 -1.3310  1.9380
 6666TIP3   OH244192   4.950   4.141  11.521  0.2712  0.0173 -0.6820
 6666TIP3    H144193   4.942   4.075  11.590  1.4987  0.5234 -0.0388
 6666TIP3    H244194   4.896   4.106  11.449 -2.4383  0.2932  1.0770
 6667TIP3   OH244195   4.174   3.604  11.364 -0.4910  0.1839  0.4927
 6667TIP3    H144196   4.257   3.634  11.403 -0.3692  1.5715 -0.7664
 6667TIP3    H244197   4.110   3.611  11.435  0.7693 -2.8661  2.1354
 6668TIP3   OH244198   2.455   7.632  11.167 -0.1280 -0.3176  0.0795
 6668TIP3    H144199   2.438   7.658  11.076 -0.0119 -0.3271  0.0545
 6668TIP3    H244200   2.381   7.666  11.216 -0.4320 -0.7214 -0.0900
 6669TIP3   OH244201   4.641   4.745  10.820  0.5193  0.3080  0.6561
 6669TIP3    H144202   4.725   4.789  10.812  0.2635  0.6208 -0.5160
 6669TIP3    H244203   4.583   4.791  10.759  0.5168 -2.2751 -1.5045
 6670TIP3   OH244204   7.073   1.138  10.962 -0.3091  0.7487  0.1908
 6670TIP3    H144205   7.041   1.228  10.954  2.9287  2.1889  1.6332
 6670TIP3    H244206   7.072   1.121  11.057  0.9983  0.0723  0.1088
 6671TIP3   OH244207   7.613   5.730  10.611 -0.5146 -0.1991 -0.0576
 6671TIP3    H144208   7.547   5.661  10.607 -0.2696 -0.4921  0.7102
 6671TIP3    H244209   7.615   5.755  10.704  0.0661  0.1808 -0.1701
 6672TIP3   OH244210   3.500   1.446  12.054 -0.7272  0.2383  0.3280
 6672TIP3    H144211   3.525   1.396  11.976 -0.3138  0.4863  0.2961
 6672TIP3    H244212   3.463   1.527  12.019  0.0466  0.6320  0.3804
 6673TIP3   OH244213   0.571   5.452  10.180  0.3145 -0.0587 -0.0082
 6673TIP3    H144214   0.665   5.436  10.176  0.5834  1.5827 -2.3380
 6673TIP3    H244215   0.531   5.370  10.151  1.0516 -0.4494  0.0722
 6674TIP3   OH244216   1.491   7.478  11.786 -0.2000  0.8212 -0.2847
 6674TIP3    H144217   1.522   7.395  11.749 -0.4478  1.1465 -1.2613
 6674TIP3    H244218   1.556   7.543  11.758  1.1933  0.6687  2.2774
 6675TIP3   OH244219   5.564   4.896  11.218 -0.0864 -0.0350 -0.0830
 6675TIP3    H144220   5.499   4.945  11.269  1.0083  0.1013  1.2482
 6675TIP3    H244221   5.551   4.805  11.243 -0.7085 -0.1815 -0.9216
 6676TIP3   OH244222   3.754   0.572  12.094  0.0990 -0.2205  0.1915
 6676TIP3    H144223   3.767   0.610  12.007 -0.2583 -0.6021 -0.0306
 6676TIP3    H244224   3.776   0.480  12.084  0.0787 -0.2624  0.5138
 6677TIP3   OH244225   5.638   6.795  11.581  0.0079  0.2703  0.7532
 6677TIP3    H144226   5.557   6.810  11.631 -1.0382  2.4776 -1.4054
 6677TIP3    H244227   5.618   6.718  11.527 -1.8135  2.3479 -1.7546
 6678TIP3   OH244228   1.480   0.107  12.322  0.0509  0.4941 -0.2501
 6678TIP3    H144229   1.483   0.098  12.227 -1.0241 -1.4868 -0.1569
 6678TIP3    H244230   1.492   0.018  12.355 -0.6850  0.9687  1.4302
 6679TIP3   OH244231   1.618   3.854  11.618  0.2380  0.2306 -0.1304
 6679TIP3    H144232   1.701   3.843  11.572 -0.0771  1.1626 -0.9574
 6679TIP3    H244233   1.583   3.766  11.627  1.7580 -0.2930  1.1088
 6680TIP3   OH244234   1.677   0.864   9.698  0.5115  0.7288  0.3273
 6680TIP3    H144235   1.738   0.790   9.708 -0.9704 -0.6549 -0.3364
 6680TIP3    H244236   1.633   0.870   9.783  1.9327  2.1397  1.0207
 6681TIP3   OH244237   5.298   5.328  10.842  0.0225 -0.0490  0.3297
 6681TIP3    H144238   5.365   5.375  10.892  0.1335  2.0742 -1.6795
 6681TIP3    H244239   5.342   5.303  10.761 -1.5540  1.4311 -1.0596
 6682TIP3   OH244240   7.659   5.710  10.900  0.1763  0.0649 -0.4394
 6682TIP3    H144241   7.670   5.628  10.949 -0.8257 -0.9956 -1.9035
 6682TIP3    H244242   7.672   5.778  10.966  2.4677 -1.2026  0.5300
 6683TIP3   OH244243   5.205   2.236  11.004 -0.3859 -0.2162  0.2409
 6683TIP3    H144244   5.246   2.157  11.040  0.5069  0.6282  1.1300
 6683TIP3    H244245   5.211   2.225  10.909 -0.1614 -1.1576  0.3528
 6684TIP3   OH244246   5.739   0.399  11.299  0.4250 -0.2976  0.0503
 6684TIP3    H144247   5.810   0.460  11.314  1.9495 -1.7951 -0.7166
 6684TIP3    H244248   5.769   0.317  11.339 -0.8134 -1.0059 -0.3939
 6685TIP3   OH244249   3.299   1.258  12.223  0.7120 -0.1282  0.4646
 6685TIP3    H144250   3.370   1.316  12.195  0.3620  0.2471  0.3424
 6685TIP3    H244251   3.342   1.192  12.278  1.5585 -1.4523 -1.6763
 6686TIP3   OH244252   4.523   7.668  11.592  0.2338  0.0704 -0.0566
 6686TIP3    H144253   4.444   7.657  11.539 -0.4242 -0.3948  0.9937
 6686TIP3    H244254   4.491   7.678  11.682  1.2691  1.8019  0.1682
 6687TIP3   OH244255   1.925   4.109  11.634  0.1982 -0.1984 -0.5784
 6687TIP3    H144256   1.953   4.064  11.555  0.4289 -1.4231  0.1776
 6687TIP3    H244257   1.869   4.180  11.603  0.4244 -0.5559 -1.8407
 6688TIP3   OH244258   2.418   4.182  12.307 -0.4604  0.4028  0.2671
 6688TIP3    H144259   2.368   4.100  12.302  0.4761 -0.2731  1.5382
 6688TIP3    H244260   2.365   4.239  12.363 -0.2339  0.0049  0.8898
 6689TIP3   OH244261   3.490   4.840  11.594 -0.1873 -0.5891 -0.2979
 6689TIP3    H144262   3.539   4.799  11.665 -0.0311  2.2565  1.3966
 6689TIP3    H244263   3.556   4.883  11.540 -0.5736  1.2284  0.6087
 6690TIP3   OH244264   3.759   6.435  10.214 -0.0656  0.3373  0.2921
 6690TIP3    H144265   3.788   6.515  10.170  0.6079 -0.0755 -0.0224
 6690TIP3    H244266   3.786   6.446  10.305  0.8487  0.0755  0.0582
 6691TIP3   OH244267   3.497   0.868  12.349 -0.4291 -0.4212  0.4147
 6691TIP3    H144268   3.575   0.923  12.341  0.2875 -1.3726  0.6162
 6691TIP3    H244269   3.481   0.836  12.261  0.1328 -1.1602  0.5661
 6692TIP3   OH244270   4.951   5.920   9.980 -0.5468  0.2460  0.0890
 6692TIP3    H144271   4.868   5.964   9.967 -1.8235 -1.9396  0.4348
 6692TIP3    H244272   5.008   5.987  10.019 -2.6907  1.2994  1.5607
 6693TIP3   OH244273   0.872   4.115  10.784  1.0857  0.0568  0.3259
 6693TIP3    H144274   0.934   4.086  10.851 -0.1283 -1.7008  0.7576
 6693TIP3    H244275   0.900   4.071  10.704  1.4468  0.7062  0.0848
 6694TIP3   OH244276   4.994   3.149  11.472 -0.3939  0.3975  0.2429
 6694TIP3    H144277   5.062   3.186  11.416 -0.5372 -0.1968 -0.3406
 6694TIP3    H244278   4.975   3.218  11.535  1.5327  0.1928  1.1296
 6695TIP3   OH244279   4.430   5.704  11.445  0.0913  0.5000  0.2620
 6695TIP3    H144280   4.506   5.757  11.423 -2.2897  3.6512 -1.1293
 6695TIP3    H244281   4.360   5.736  11.388 -2.2648 -2.3843  1.2504
 6696TIP3   OH244282   4.937   1.741  12.378  0.0038 -0.3226 -0.2766
 6696TIP3    H144283   4.894   1.823  12.354 -0.0513 -0.6120 -1.2044
 6696TIP3    H244284   5.001   1.725  12.308 -0.1373 -1.1773 -0.2255
 6697TIP3   OH244285   2.322   4.955  12.195 -0.7867 -0.0552  0.5436
 6697TIP3    H144286   2.417   4.962  12.201 -0.6947 -0.8333  0.1301
 6697TIP3    H244287   2.307   4.889  12.127 -1.6379  0.7236 -0.0558
 6698TIP3   OH244288   1.307   1.821   9.971 -0.5433  0.1778 -0.2120
 6698TIP3    H144289   1.235   1.765   9.998  0.5280 -2.6711 -2.5925
 6698TIP3    H244290   1.298   1.826   9.875  1.4735  1.0715 -0.4045
 6699TIP3   OH244291   6.334   7.545  10.426 -0.1298  0.3356  0.3576
 6699TIP3    H144292   6.298   7.459  10.404  0.6089 -0.3267  1.6196
 6699TIP3    H244293   6.426   7.529  10.446  0.0858  1.4687  0.3714
 6700TIP3   OH244294   4.517   7.369  10.780  0.2111 -0.1948 -0.8470
 6700TIP3    H144295   4.477   7.390  10.695 -0.8792  1.4122 -0.0098
 6700TIP3    H244296   4.537   7.455  10.818 -1.3083 -0.7509  1.4057
 6701TIP3   OH244297   1.891   4.156  10.665  0.0356  0.5616  0.3123
 6701TIP3    H144298   1.886   4.168  10.760 -1.4847 -1.3768  0.5251
 6701TIP3    H244299   1.888   4.061  10.652 -1.6924  0.8242 -1.7599
 6702TIP3   OH244300   0.133   1.374   9.934  0.2892 -0.6476 -0.1194
 6702TIP3    H144301   0.045   1.340   9.950 -0.2815  1.0587  0.5461
 6702TIP3    H244302   0.189   1.319   9.988 -0.7508  0.1372  1.8804
 6703TIP3   OH244303   6.936   0.830  12.923 -0.1044  0.4568 -0.4986
 6703TIP3    H144304   7.026   0.847  12.895  0.2783 -0.5151  0.1109
 6703TIP3    H244305   6.919   0.897  12.989  0.5878 -0.0477  0.2175
 6704TIP3   OH244306   6.561   5.542  10.025  0.1630  0.0662  0.4936
 6704TIP3    H144307   6.528   5.469   9.973 -0.0378  2.0481 -2.4223
 6704TIP3    H244308   6.491   5.560  10.088 -0.5574 -1.1144  0.0660
 6705TIP3   OH244309   5.762   3.409  11.252 -0.0974 -0.1007 -0.4197
 6705TIP3    H144310   5.695   3.457  11.202  0.3898  0.8391 -0.1841
 6705TIP3    H244311   5.723   3.399  11.339 -0.6595 -1.1391 -0.7608
 6706TIP3   OH244312   5.429   0.141  10.942 -0.1106  0.6250  0.1538
 6706TIP3    H144313   5.471   0.147  11.028 -0.0816  0.3460  0.1609
 6706TIP3    H244314   5.439   0.228  10.904  2.0919  0.1188 -0.5874
 6707TIP3   OH244315   2.726   5.143  12.283  0.0344  0.8034  0.4310
 6707TIP3    H144316   2.766   5.230  12.288 -1.0760  1.2847  1.5240
 6707TIP3    H244317   2.650   5.148  12.341  1.0605 -1.4935  2.1683
 6708TIP3   OH244318   2.433   5.607  10.596  0.9715  0.0881 -0.0416
 6708TIP3    H144319   2.448   5.680  10.656 -0.8171 -1.1749  2.1037
 6708TIP3    H244320   2.342   5.619  10.567  0.6142 -1.3004  0.4365
 6709TIP3   OH244321   0.324   2.202  12.402 -0.0879  0.4440  0.4537
 6709TIP3    H144322   0.278   2.139  12.459 -0.2987  0.6381  0.4981
 6709TIP3    H244323   0.256   2.236  12.344  0.0737  0.4564  0.2734
 6710TIP3   OH244324   5.764   5.040  12.510  0.2620  0.4693 -0.4839
 6710TIP3    H144325   5.794   5.120  12.553  1.9964 -0.7867  0.7485
 6710TIP3    H244326   5.843   4.997  12.479 -0.2462 -2.2402  1.5756
 6711TIP3   OH244327   4.632   1.356  11.185 -0.1135  0.3588  0.3817
 6711TIP3    H144328   4.600   1.435  11.142  1.3002  0.5765 -0.3255
 6711TIP3    H244329   4.724   1.374  11.204  0.0996 -0.9240  0.6684
 6712TIP3   OH244330   2.362   5.408  10.898 -0.0335 -0.0579  0.1148
 6712TIP3    H144331   2.266   5.408  10.889 -0.0156  0.3527 -0.0911
 6712TIP3    H244332   2.379   5.462  10.975  0.0309 -0.1874  0.1916
 6713TIP3   OH244333   4.700   3.063   9.771  0.1429  0.0658 -0.1475
 6713TIP3    H144334   4.680   3.141   9.719 -1.9305 -0.8151 -0.7740
 6713TIP3    H244335   4.636   2.998   9.742  1.4533 -1.7037  0.7659
 6714TIP3   OH244336   2.347   5.785   9.986  0.2759 -0.2396 -0.1548
 6714TIP3    H144337   2.264   5.739   9.996  0.1397 -0.1283 -0.7301
 6714TIP3    H244338   2.404   5.723   9.942  0.5279 -0.3398  0.2998
 6715TIP3   OH244339   0.388   6.897  12.197 -0.2338  0.6686  0.1513
 6715TIP3    H144340   0.447   6.903  12.122 -1.1393  0.7784 -0.5607
 6715TIP3    H244341   0.357   6.806  12.196  0.2797  0.4783  0.8074
 6716TIP3   OH244342   7.498   0.974  10.325 -0.5276 -0.5856 -0.1652
 6716TIP3    H144343   7.444   1.053  10.328 -1.9440 -1.5335  1.3833
 6716TIP3    H244344   7.548   0.982  10.244 -0.7332  1.8008 -0.1526
 6717TIP3   OH244345   0.376   1.967  10.721 -0.4184  0.7298 -0.5182
 6717TIP3    H144346   0.457   1.960  10.771 -0.6974 -2.0790 -0.3058
 6717TIP3    H244347   0.310   1.990  10.787 -0.3347 -0.3063 -0.0530
 6718TIP3   OH244348   0.721   3.433  10.443  0.9068 -0.3935 -0.4926
 6718TIP3    H144349   0.748   3.341  10.448  1.3601 -0.2809 -0.8321
 6718TIP3    H244350   0.690   3.445  10.353  0.8838 -0.2060 -0.4613
 6719TIP3   OH244351   3.502   1.332  11.178 -0.1329  0.4393 -0.3443
 6719TIP3    H144352   3.515   1.418  11.218  1.2165  0.2814 -0.3812
 6719TIP3    H244353   3.463   1.350  11.093  0.8386  1.0946 -0.6724
 6720TIP3   OH244354   1.292   0.557   9.889  0.6494 -0.5524  0.2969
 6720TIP3    H144355   1.235   0.548   9.965  1.2537  0.3711  0.8855
 6720TIP3    H244356   1.377   0.523   9.919  1.1440  0.6831  0.3770
 6721TIP3   OH244357   2.435   7.509  11.703 -0.5001 -0.5268  0.0149
 6721TIP3    H144358   2.482   7.428  11.722 -2.3437 -1.8743 -0.8185
 6721TIP3    H244359   2.425   7.552  11.788  3.7564  0.8604  0.0643
 6722TIP3   OH244360   1.053   7.584  11.922 -0.3980 -1.1662  0.1809
 6722TIP3    H144361   1.093   7.564  12.006 -2.3147 -1.6775  1.0356
 6722TIP3    H244362   1.104   7.533  11.859 -0.0409 -2.2129  1.2740
 6723TIP3   OH244363   4.726   1.207  11.771  0.1008 -0.5802 -0.4074
 6723TIP3    H144364   4.723   1.284  11.828  1.7904 -1.5830  1.1449
 6723TIP3    H244365   4.740   1.243  11.683  1.2982  0.9140  0.3325
 6724TIP3   OH244366   3.396   0.468  11.708  0.5020 -0.2309 -0.0693
 6724TIP3    H144367   3.365   0.533  11.771  0.8116  1.4686 -1.5946
 6724TIP3    H244368   3.324   0.406  11.701 -0.5137  0.8763  0.2054
 6725TIP3   OH244369   0.170   5.902  12.926  0.4500 -0.0316  0.0610
 6725TIP3    H144370   0.115   5.837  12.882  1.4408 -0.6283 -0.3350
 6725TIP3    H244371   0.233   5.929  12.859  2.1037 -1.0841  1.1168
 6726TIP3   OH244372   2.369   6.579  10.868  0.4068 -0.2285  0.0947
 6726TIP3    H144373   2.410   6.663  10.889  1.5185 -0.3984 -1.2858
 6726TIP3    H244374   2.393   6.563  10.777 -3.1042 -0.1370 -0.9912
 6727TIP3   OH244375   5.469   0.815  12.275  0.0683 -0.7429 -0.1941
 6727TIP3    H144376   5.411   0.742  12.255 -0.2057 -1.2656  2.1982
 6727TIP3    H244377   5.517   0.786  12.353  0.2378  1.4691  0.5778
 6728TIP3   OH244378   2.350   7.519   9.680 -0.5992  0.4915  0.0165
 6728TIP3    H144379   2.275   7.472   9.645  1.1806 -2.1223 -0.5811
 6728TIP3    H244380   2.327   7.539   9.771 -1.2001 -2.3155  0.5604
 6729TIP3   OH244381   6.657   4.820  11.524  0.4376  0.6278 -0.4820
 6729TIP3    H144382   6.738   4.822  11.473  0.6064 -0.2785 -0.2596
 6729TIP3    H244383   6.660   4.737  11.571 -0.4244  0.7789 -0.1456
 6730TIP3   OH244384   6.461   5.423  12.690 -0.5351 -0.3763 -0.1431
 6730TIP3    H144385   6.450   5.340  12.738 -0.8983 -0.2716 -0.0418
 6730TIP3    H244386   6.533   5.467  12.735  0.6266 -1.2631 -1.0770
 6731TIP3   OH244387   3.502   6.762  11.477  0.5800 -0.1872  0.4546
 6731TIP3    H144388   3.484   6.668  11.465 -0.2107 -0.6577  4.1496
 6731TIP3    H244389   3.480   6.801  11.392 -0.4932 -3.1580 -0.7815
 6732TIP3   OH244390   0.626   5.308  11.469 -0.2285 -0.3797 -0.7323
 6732TIP3    H144391   0.581   5.277  11.390 -2.3872  0.4334  0.1000
 6732TIP3    H244392   0.682   5.379  11.439  0.9540 -1.7431 -1.8863
 6733TIP3   OH244393   6.897   5.892   9.887 -0.1115 -0.2051 -0.3443
 6733TIP3    H144394   6.838   5.821   9.862 -0.4926 -1.3112  3.1073
 6733TIP3    H244395   6.976   5.848   9.919 -0.9714  0.6124  3.4079
 6734TIP3   OH244396   6.976   6.765  12.010  0.0193 -0.0840 -0.1999
 6734TIP3    H144397   7.024   6.754  11.928  0.7135  0.1078  0.1766
 6734TIP3    H244398   6.904   6.703  12.004  0.7778 -0.9627 -0.4258
 6735TIP3   OH244399   2.407   2.674  11.418  0.6433  0.3436  0.1094
 6735TIP3    H144400   2.391   2.658  11.511 -0.9332  0.3515 -0.1317
 6735TIP3    H244401   2.391   2.589  11.376 -0.2518  0.7122 -0.3221
 6736TIP3   OH244402   3.762   7.568  11.647  0.5202 -0.3226  0.5650
 6736TIP3    H144403   3.742   7.484  11.688 -1.0817  0.7279  2.1212
 6736TIP3    H244404   3.684   7.588  11.594  1.5220 -0.4881 -1.0170
 6737TIP3   OH244405   6.477   0.437  12.517 -0.6177 -0.0749  0.2499
 6737TIP3    H144406   6.568   0.457  12.538 -0.4930 -1.6828  1.4658
 6737TIP3    H244407   6.438   0.412  12.601 -1.6432 -1.2728 -0.5386
 6738TIP3   OH244408   0.897   4.458  10.034 -0.7881  0.5458  0.0990
 6738TIP3    H144409   0.861   4.509   9.961  0.3381  1.0296 -0.1290
 6738TIP3    H244410   0.985   4.493  10.047  0.8728 -2.6652 -1.3953
 6739TIP3   OH244411   1.157   4.457  11.274  0.4550 -0.3847 -0.5868
 6739TIP3    H144412   1.082   4.510  11.301 -0.7064 -2.6357  0.8329
 6739TIP3    H244413   1.122   4.401  11.204  1.0697 -0.7689 -0.5907
 6740TIP3   OH244414   2.582   6.694  11.470 -0.4386 -0.2676 -0.2833
 6740TIP3    H144415   2.598   6.783  11.440  1.5455  0.2574  2.0264
 6740TIP3    H244416   2.669   6.660  11.493 -1.4076 -1.7838  1.4590
 6741TIP3   OH244417   0.694   6.432  11.552  0.4840 -0.3505  0.1292
 6741TIP3    H144418   0.718   6.413  11.461  2.7485  1.3238  0.2839
 6741TIP3    H244419   0.717   6.353  11.600  0.4154 -0.8040 -0.5706
 6742TIP3   OH244420   4.076   2.509  11.079 -0.0800 -0.1879  0.1568
 6742TIP3    H144421   4.152   2.549  11.121 -0.4929  1.2882 -0.4434
 6742TIP3    H244422   4.013   2.497  11.150  0.8122 -1.7579  0.7272
 6743TIP3   OH244423   3.664   4.766  10.707  0.0482 -0.1429 -0.4889
 6743TIP3    H144424   3.575   4.733  10.716  0.0203  0.2670  0.8267
 6743TIP3    H244425   3.715   4.717  10.771  0.4605  0.7211 -0.1393
 6744TIP3   OH244426   5.237   0.782  11.333  0.0839  0.5829  0.7907
 6744TIP3    H144427   5.234   0.850  11.266  0.4671  0.3404  0.5223
 6744TIP3    H244428   5.330   0.770  11.352  0.1505 -0.9477 -0.3024
 6745TIP3   OH244429   1.466   4.595  10.044 -0.0216 -0.3174  0.2197
 6745TIP3    H144430   1.502   4.506  10.051  1.3922  0.3548  3.1184
 6745TIP3    H244431   1.406   4.602  10.118 -0.8994  0.8225 -0.5836
 6746TIP3   OH244432   7.345   7.303  12.083  0.0851  0.1721 -0.4623
 6746TIP3    H144433   7.346   7.282  11.989  0.5040  2.7752 -1.1269
 6746TIP3    H244434   7.285   7.240  12.121  0.9443 -1.8514 -2.2313
 6747TIP3   OH244435   6.218   4.897  12.624  0.0402 -0.0508  0.3607
 6747TIP3    H144436   6.234   4.802  12.619  0.8997  0.1097 -0.3826
 6747TIP3    H244437   6.239   4.920  12.715  0.7472 -0.4365  0.3091
 6748TIP3   OH244438   5.790   6.349  11.274  0.3116 -0.1228 -0.1127
 6748TIP3    H144439   5.825   6.288  11.339 -1.0731 -0.5153  0.3125
 6748TIP3    H244440   5.764   6.294  11.201  0.7857  0.1883 -0.5220
 6749TIP3   OH244441   3.067   1.145  10.496 -0.0785  0.0123  0.0420
 6749TIP3    H144442   2.988   1.112  10.453  0.0882 -0.4734  0.1060
 6749TIP3    H244443   3.086   1.228  10.450 -0.5256  0.0492 -0.0822
 6750TIP3   OH244444   3.830   0.976  11.713 -0.3806  0.5468  0.4016
 6750TIP3    H144445   3.895   0.923  11.758 -0.3756  1.7055  1.8171
 6750TIP3    H244446   3.768   1.001  11.781 -1.1236  1.2492 -0.5009
 6751TIP3   OH244447   7.108   0.557  10.605  0.0208 -0.3959  0.5221
 6751TIP3    H144448   7.079   0.633  10.556 -0.2662  0.9927  2.6892
 6751TIP3    H244449   7.166   0.592  10.673  1.8764 -2.4113  0.1106
 6752TIP3   OH244450   7.359   5.667  11.790  0.2815  0.1988  0.3779
 6752TIP3    H144451   7.305   5.742  11.818 -1.0224 -1.7765  3.8377
 6752TIP3    H244452   7.301   5.615  11.735  0.1789  0.3056  0.3833
 6753TIP3   OH244453   5.601   0.217  10.400 -0.1280  0.1635 -0.3677
 6753TIP3    H144454   5.598   0.137  10.348 -3.8719  1.0611 -1.8610
 6753TIP3    H244455   5.589   0.187  10.491 -2.8501 -1.0613 -1.0143
 6754TIP3   OH244456   5.704   5.635  10.751 -0.0203  0.0304  0.1919
 6754TIP3    H144457   5.781   5.681  10.718  0.4347 -0.0791  1.0796
 6754TIP3    H244458   5.648   5.704  10.788 -0.7268  0.2053 -1.1368
 6755TIP3   OH244459   5.544   6.941  12.010  0.3053 -0.2497  0.8910
 6755TIP3    H144460   5.591   6.999  11.950  0.1102 -0.4115  0.5754
 6755TIP3    H244461   5.453   6.944  11.979  0.8144 -3.4655 -1.4453
 6756TIP3   OH244462   7.184   2.975  10.846 -0.4766 -0.2736 -0.2932
 6756TIP3    H144463   7.232   2.950  10.925  1.0827 -0.6830 -1.3272
 6756TIP3    H244464   7.165   3.068  10.858  0.1987 -0.2120  0.3390
 6757TIP3   OH244465   5.447   5.332  10.115 -0.3890 -0.6694  0.1241
 6757TIP3    H144466   5.388   5.400  10.083  0.2285 -0.8225 -1.4310
 6757TIP3    H244467   5.440   5.262  10.050  0.6907 -1.1436  0.4957
 6758TIP3   OH244468   6.254   2.446  10.717 -0.2234  0.2332  0.0037
 6758TIP3    H144469   6.191   2.476  10.651 -1.0340 -0.5997  0.3827
 6758TIP3    H244470   6.201   2.424  10.793  0.4616 -0.9130  0.1786
 6759TIP3   OH244471   1.068   7.507  11.431 -0.6565  0.3186  0.0414
 6759TIP3    H144472   1.065   7.579  11.493  0.6527  0.6433 -0.2477
 6759TIP3    H244473   1.089   7.548  11.347 -1.8450 -0.1800 -0.5234
 6760TIP3   OH244474   1.162   4.555  12.608  0.7522 -0.2640  0.7660
 6760TIP3    H144475   1.210   4.492  12.555 -0.8858 -2.8538  2.1352
 6760TIP3    H244476   1.212   4.562  12.689  2.6588  2.8402 -0.5096
 6761TIP3   OH244477   2.704   4.455  11.247 -0.3468  0.0648  0.1357
 6761TIP3    H144478   2.739   4.495  11.326 -0.0227  0.5237 -0.2403
 6761TIP3    H244479   2.627   4.406  11.277  0.2712 -0.4728  0.8711
 6762TIP3   OH244480   6.232   0.823  10.032 -0.1236  0.0102  0.1853
 6762TIP3    H144481   6.145   0.785  10.017 -1.0911  0.8200  3.0490
 6762TIP3    H244482   6.229   0.908   9.988 -0.1356 -0.6289 -1.1090
 6763TIP3   OH244483   4.220   4.102  11.345  0.5618  0.2550 -0.4025
 6763TIP3    H144484   4.226   4.118  11.250  0.9953  1.3285 -0.2160
 6763TIP3    H244485   4.255   4.182  11.384 -0.1583  0.0669  0.6737
 6764TIP3   OH244486   2.697   6.936  11.351 -0.2997  0.1232  0.8362
 6764TIP3    H144487   2.716   7.022  11.314  2.6046 -0.7475  0.0730
 6764TIP3    H244488   2.683   6.879  11.276 -1.7551 -0.2080  1.3230
 6765TIP3   OH244489   3.123   1.560  11.367  0.1038  0.2022  0.2029
 6765TIP3    H144490   3.122   1.509  11.286  0.6110  0.0461  0.2948
 6765TIP3    H244491   3.042   1.610  11.364 -1.4954 -2.1668  1.1214
 6766TIP3   OH244492   6.429   7.040  10.265  0.3261 -0.2348 -0.0025
 6766TIP3    H144493   6.452   7.128  10.236  0.2303 -0.6448 -1.4292
 6766TIP3    H244494   6.454   7.037  10.357 -0.0061  1.3940  0.1704
 6767TIP3   OH244495   0.493   2.738   9.825  0.0742 -0.2087 -0.8154
 6767TIP3    H144496   0.556   2.790   9.776  0.0841  0.0038 -0.5796
 6767TIP3    H244497   0.426   2.801   9.851 -0.2274 -0.4280 -1.0494
 6768TIP3   OH244498   0.787   4.455  11.058 -0.2298  0.0677  0.1936
 6768TIP3    H144499   0.745   4.370  11.051 -0.1470 -0.0600  1.0675
 6768TIP3    H244500   0.880   4.438  11.044 -0.3616  0.2214 -0.9157
 6769TIP3   OH244501   0.424   4.002  10.618 -0.6819  0.0225 -0.0748
 6769TIP3    H144502   0.412   3.907  10.623  0.1414 -0.0782  0.1251
 6769TIP3    H244503   0.467   4.025  10.700  1.2754  0.2188 -1.1169
 6770TIP3   OH244504   4.335   6.325  10.009  0.3322 -0.1182  0.7438
 6770TIP3    H144505   4.408   6.386   9.997  1.9356 -1.9830  0.4935
 6770TIP3    H244506   4.257   6.377   9.987  1.7635  1.2878 -1.4769
 6771TIP3   OH244507   7.161   3.409  11.740  0.0212  0.2767  0.4163
 6771TIP3    H144508   7.196   3.329  11.780 -2.4680 -0.9141  0.4575
 6771TIP3    H244509   7.091   3.377  11.683  0.6601  2.2781 -1.6115
 6772TIP3   OH244510   3.013   3.402  10.803 -0.4442 -0.2618 -0.8567
 6772TIP3    H144511   2.986   3.328  10.857 -1.1180  0.5656 -0.0152
 6772TIP3    H244512   3.060   3.363  10.730  0.8400 -1.4032  0.5154
 6773TIP3   OH244513   7.007   1.803  11.237 -0.4336 -0.0846 -0.1899
 6773TIP3    H144514   7.069   1.863  11.278  1.1676 -1.9973  0.2806
 6773TIP3    H244515   7.046   1.782  11.152  0.6459 -2.7938  0.8709
 6774TIP3   OH244516   6.621   5.057   9.956  0.1058  0.1771  0.1038
 6774TIP3    H144517   6.613   5.007   9.875  1.7269  0.7704 -0.4591
 6774TIP3    H244518   6.576   5.140   9.938  1.5257  0.8138 -0.6649
 6775TIP3   OH244519   1.680   7.595  11.116  0.5292  0.2746 -0.7348
 6775TIP3    H144520   1.658   7.652  11.189 -0.2012 -0.3074 -0.4863
 6775TIP3    H244521   1.776   7.590  11.116  0.5106 -0.8471  1.0717
 6776TIP3   OH244522   0.188   1.112  11.014  0.2310 -0.0649 -0.5473
 6776TIP3    H144523   0.131   1.114  10.937 -1.9634  1.6462  0.9681
 6776TIP3    H244524   0.181   1.023  11.047 -3.0796  0.4581  0.5149
 6777TIP3   OH244525   5.707   6.663  10.959 -0.1963 -0.2030 -0.0028
 6777TIP3    H144526   5.780   6.602  10.960  0.4101  0.5003 -0.0759
 6777TIP3    H244527   5.646   6.629  11.024  0.6741 -0.2419  0.8129
 6778TIP3   OH244528   0.194   3.753  10.083 -0.2989  0.5022 -0.0954
 6778TIP3    H144529   0.101   3.750  10.108 -0.4004  0.3103 -0.4966
 6778TIP3    H244530   0.213   3.846  10.074 -0.6532  0.5143 -0.7545
 6779TIP3   OH244531   5.245   1.218  10.395  0.8998 -0.0780 -0.0002
 6779TIP3    H144532   5.216   1.141  10.346 -1.7425  0.3658  0.6661
 6779TIP3    H244533   5.337   1.203  10.413  0.5769 -2.8741 -0.2611
 6780TIP3   OH244534   5.122   2.988  10.595 -0.4628 -0.1081  0.3593
 6780TIP3    H144535   5.058   3.059  10.588  0.0283  0.5255  2.0294
 6780TIP3    H244536   5.205   3.027  10.569 -0.6355 -0.8819 -1.6102
 6781TIP3   OH244537   2.194   0.313  11.598 -0.6050 -0.2122  0.0879
 6781TIP3    H144538   2.170   0.226  11.631 -1.7600 -0.1939 -0.6162
 6781TIP3    H244539   2.158   0.374  11.663 -2.8383 -0.1766 -1.0776
 6782TIP3   OH244540   5.041   4.892  11.768 -0.0459  0.4751  0.4709
 6782TIP3    H144541   5.069   4.854  11.685 -1.5980 -1.1705  0.6479
 6782TIP3    H244542   5.121   4.897  11.821  0.5702 -0.5415 -0.3425
 6783TIP3   OH244543   6.096   0.005  10.076  0.3978  0.2528 -0.4511
 6783TIP3    H144544   6.058   0.055  10.003 -0.4316 -0.4696 -0.5456
 6783TIP3    H244545   6.064  -0.085  10.061  1.5239 -0.2227 -0.0765
 6784TIP3   OH244546   0.998   7.416   9.983  0.0287  0.0909 -0.6864
 6784TIP3    H144547   0.918   7.453  10.020  0.7742  1.4805 -0.3962
 6784TIP3    H244548   1.050   7.390  10.060  0.6850  1.0439 -0.7878
 6785TIP3   OH244549   7.340   7.325  10.490 -0.0440 -0.6119 -0.0600
 6785TIP3    H144550   7.359   7.232  10.502 -1.9184 -1.0901 -0.3863
 6785TIP3    H244551   7.285   7.328  10.412 -1.9770  0.4694  1.2628
 6786TIP3   OH244552   4.849   0.685  10.408  0.0568  0.4699  0.5774
 6786TIP3    H144553   4.867   0.651  10.496 -0.2933  0.6494  0.7218
 6786TIP3    H244554   4.928   0.664  10.358  0.5684  1.0153  1.1296
 6787TIP3   OH244555   7.386   0.284  10.086 -0.2467 -0.2201 -0.1484
 6787TIP3    H144556   7.396   0.313  10.177 -0.5503 -0.0891 -0.1537
 6787TIP3    H244557   7.414   0.359  10.034 -2.2267  0.5780 -0.1737
 6788TIP3   OH244558   4.423   6.366  10.525  0.8613  0.5113  0.3055
 6788TIP3    H144559   4.410   6.430  10.454 -0.7894 -0.8725 -0.7447
 6788TIP3    H244560   4.506   6.323  10.503  0.4851  0.2568 -0.7072
 6789TIP3   OH244561   0.359   1.406  10.758 -0.2715  0.3300 -0.1041
 6789TIP3    H144562   0.339   1.407  10.851 -0.8078 -0.2222 -0.2031
 6789TIP3    H244563   0.381   1.496  10.736 -1.1188  0.6546  0.3540
 6790TIP3   OH244564   1.487   0.512  12.239  0.0754  0.2613 -0.0019
 6790TIP3    H144565   1.542   0.433  12.238 -0.7964 -0.3763  0.9561
 6790TIP3    H244566   1.530   0.571  12.178  0.9274 -0.8385 -0.5059
 6791TIP3   OH244567   5.944   3.877  11.221  0.3585  0.1115 -0.2871
 6791TIP3    H144568   5.959   3.949  11.159 -1.3591  2.3374  1.6949
 6791TIP3    H244569   5.870   3.829  11.183  0.6507  0.1772 -0.9663
 6792TIP3   OH244570   5.038   5.868  11.464 -0.2643 -0.7063  0.3372
 6792TIP3    H144571   5.075   5.895  11.548 -0.8838 -2.0563  1.0883
 6792TIP3    H244572   4.963   5.925  11.451 -0.2822 -0.6192  0.8123
 6793TIP3   OH244573   7.165   5.836  12.773 -0.2116  0.2467 -0.4147
 6793TIP3    H144574   7.148   5.909  12.832 -0.0544  0.9554 -1.2389
 6793TIP3    H244575   7.260   5.824  12.776 -0.3833 -1.1830  1.1755
 6794TIP3   OH244576   4.265   3.866  11.480 -0.1082  0.7361  0.1031
 6794TIP3    H144577   4.223   3.934  11.426  0.8324  0.6816 -0.7190
 6794TIP3    H244578   4.238   3.888  11.570 -0.8084  1.4788 -0.2713
 6795TIP3   OH244579   3.855   1.034  11.112 -0.1795  0.7035  0.3245
 6795TIP3    H144580   3.836   1.121  11.147  0.0332  0.7808  0.2482
 6795TIP3    H244581   3.880   0.982  11.189  2.1577  1.3677  0.1065
 6796TIP3   OH244582   2.822   0.113  10.287  0.2790  0.2977  0.1611
 6796TIP3    H144583   2.873   0.099  10.367 -0.2609 -1.2021  0.2649
 6796TIP3    H244584   2.815   0.026  10.247 -0.2657  0.8640 -1.0362
 6797TIP3   OH244585   5.560   3.965  10.629  0.1894  0.1258 -0.2024
 6797TIP3    H144586   5.627   3.899  10.612  1.5108  1.2964  0.1700
 6797TIP3    H244587   5.603   4.048  10.607 -0.5073  1.0624  1.7126
 6798TIP3   OH244588   2.892   5.712  10.691  0.5940 -0.6490 -0.1140
 6798TIP3    H144589   2.850   5.633  10.657  0.8740 -1.0143  0.3776
 6798TIP3    H244590   2.853   5.783  10.641 -0.8259 -0.9507  0.5424
 6799TIP3   OH244591   1.738   6.308  11.389  0.5994 -0.0284 -0.1761
 6799TIP3    H144592   1.768   6.393  11.356 -0.3559 -0.9039 -3.6900
 6799TIP3    H244593   1.818   6.257  11.398  0.9650  0.4589 -0.5880
 6800TIP3   OH244594   1.431   6.171  10.922  0.1144 -0.2389  0.1400
 6800TIP3    H144595   1.507   6.164  10.865  0.4797 -0.8731  0.6897
 6800TIP3    H244596   1.440   6.257  10.963  0.9602 -0.6153  0.7765
 6801TIP3   OH244597   1.336   0.518  12.456  0.6037  0.1034  0.0225
 6801TIP3    H144598   1.401   0.566  12.506  1.3426  0.4774 -1.2348
 6801TIP3    H244599   1.364   0.528  12.365 -1.9197  1.3430 -0.6971
 6802TIP3   OH244600   0.031   1.142  10.523  0.0305 -0.3636 -0.5130
 6802TIP3    H144601   0.011   1.156  10.430 -0.8537  1.2852 -0.1078
 6802TIP3    H244602  -0.053   1.116  10.561  0.4335 -1.2285 -0.1918
 6803TIP3   OH244603   6.207   4.639  11.286 -0.5979 -0.1680  0.3298
 6803TIP3    H144604   6.296   4.620  11.315 -0.2457 -2.5588 -2.0412
 6803TIP3    H244605   6.216   4.668  11.195 -2.0975  2.1035  0.7965
 6804TIP3   OH244606   7.021   4.493  10.379 -0.4283 -0.1100 -0.3074
 6804TIP3    H144607   7.045   4.583  10.356 -0.9945  1.1360  3.3326
 6804TIP3    H244608   6.928   4.486  10.356 -0.9192  0.9933  1.1876
 6805TIP3   OH244609   3.239   3.979  10.989 -0.0077 -0.0134  0.3246
 6805TIP3    H144610   3.276   4.060  11.024  0.1198 -0.0584  0.2935
 6805TIP3    H244611   3.303   3.948  10.925 -1.7133  1.8000 -2.4429
 6806TIP3   OH244612   5.689   6.790  11.231  0.0669 -0.4124 -0.5988
 6806TIP3    H144613   5.612   6.793  11.174  0.6769  0.1628 -1.4181
 6806TIP3    H244614   5.683   6.871  11.283 -0.7110 -1.1341  0.4931
 6807TIP3   OH244615   6.864   7.128  10.545  0.3286  0.6174  0.3108
 6807TIP3    H144616   6.855   7.046  10.497 -3.0852 -0.1033  1.8496
 6807TIP3    H244617   6.905   7.188  10.483  0.2032 -1.4243 -1.8953
 6808TIP3   OH244618   6.155   4.106  10.227  0.2305 -0.0876 -0.4059
 6808TIP3    H144619   6.138   4.187  10.275 -1.8269 -0.7853  0.1460
 6808TIP3    H244620   6.245   4.082  10.251  0.3920  1.3109  0.4786
 6809TIP3   OH244621   7.514   0.489   9.990  0.2887  0.0622  0.1574
 6809TIP3    H144622   7.491   0.568   9.940  0.4683 -0.2287 -0.3924
 6809TIP3    H244623   7.609   0.496  10.001  0.6917 -1.2426 -1.9644
 6810TIP3   OH244624   2.156   2.619  11.205  0.7014  0.6446 -0.1917
 6810TIP3    H144625   2.246   2.595  11.229  0.7501  0.4859 -0.5249
 6810TIP3    H244626   2.121   2.539  11.165  0.4267  0.7214 -0.1038
 6811TIP3   OH244627   6.478   0.576  11.291  0.0093  0.1235  0.1951
 6811TIP3    H144628   6.468   0.592  11.385  0.5397 -0.7409  0.4148
 6811TIP3    H244629   6.554   0.518  11.285 -1.6210 -2.0751 -0.5162
 6812TIP3   OH244630   6.184   3.512  10.901  0.1553  0.3388  0.7323
 6812TIP3    H144631   6.263   3.490  10.851 -1.3568 -2.0066 -0.8438
 6812TIP3    H244632   6.168   3.435  10.956 -1.4253  0.3865  0.4031
 6813TIP3   OH244633   3.365   2.934  10.891 -0.3907  0.3104  0.3819
 6813TIP3    H144634   3.455   2.911  10.868 -0.6009 -0.7948  0.6338
 6813TIP3    H244635   3.311   2.872  10.843 -0.9148 -0.6866  2.1385
 6814TIP3   OH244636   1.404   7.496   9.981  0.0091 -0.1659 -1.0201
 6814TIP3    H144637   1.343   7.529   9.915  0.9360  1.2951 -1.1925
 6814TIP3    H244638   1.398   7.559  10.053 -1.4026 -2.0340  0.5972
 6815TIP3   OH244639   0.986   2.078  12.434 -0.1604  0.0349 -0.3022
 6815TIP3    H144640   0.908   2.025  12.450 -0.6452  0.0510 -2.3388
 6815TIP3    H244641   1.046   2.018  12.389  0.1559  0.6033 -0.6431
 6816TIP3   OH244642   1.888   3.776  11.106 -0.4504  0.3888  1.2100
 6816TIP3    H144643   1.817   3.713  11.118  0.1985 -0.5067  0.5464
 6816TIP3    H244644   1.852   3.842  11.048 -0.4865 -0.5545  0.1140
 6817TIP3   OH244645   3.365   6.658  12.305  0.1554  0.4434  1.0269
 6817TIP3    H144646   3.363   6.660  12.401  2.1376  2.4752  1.1289
 6817TIP3    H244647   3.445   6.610  12.284  0.9201  1.8766  0.5068
 6818TIP3   OH244648   0.264   6.974  12.634  0.4704  0.6451 -0.4930
 6818TIP3    H144649   0.322   6.931  12.696  1.6548 -0.7348 -2.4305
 6818TIP3    H244650   0.304   7.060  12.619  1.2814  0.2290 -0.7792
 6819TIP3   OH244651   6.823   6.848  12.609  0.1784 -0.0642  0.3351
 6819TIP3    H144652   6.818   6.938  12.641 -0.3602  0.4665 -1.1272
 6819TIP3    H244653   6.865   6.856  12.523 -0.5231 -1.1247 -0.1207
 6820TIP3   OH244654   2.168   2.606  12.005 -1.1688  0.1973  0.1137
 6820TIP3    H144655   2.252   2.600  11.958 -0.1690 -1.4186  1.9962
 6820TIP3    H244656   2.173   2.690  12.050  0.2622 -0.6179  1.5893
 6821TIP3   OH244657   6.915   6.532  11.711 -0.0924  0.0630 -0.2383
 6821TIP3    H144658   6.931   6.599  11.645  3.9137  1.5755  1.9056
 6821TIP3    H244659   6.960   6.454  11.678  1.0624  0.5277  0.1790
 6822TIP3   OH244660   5.834   5.215  11.706  0.2483 -0.0017 -0.4400
 6822TIP3    H144661   5.921   5.209  11.746  0.7402 -0.0910 -1.5099
 6822TIP3    H244662   5.809   5.124  11.689 -0.2889 -0.0139  0.3144
 6823TIP3   OH244663   1.080   2.944  11.655  0.3930 -0.0449  0.4776
 6823TIP3    H144664   1.172   2.968  11.645  0.7326 -0.2446  2.6768
 6823TIP3    H244665   1.068   2.931  11.749 -1.6939 -0.8265  0.1675
 6824TIP3   OH244666   3.582   2.976  18.670 -0.1972 -0.0549 -0.0502
 6824TIP3    H144667   3.654   2.943  18.618 -0.5179  0.4940 -0.8562
 6824TIP3    H244668   3.548   2.899  18.716  0.7030 -0.3665  0.1078
 6825TIP3   OH244669   3.611   7.002  11.546  0.0517 -0.4353  0.0143
 6825TIP3    H144670   3.544   7.057  11.505 -0.0659 -0.2961  0.3880
 6825TIP3    H244671   3.576   6.913  11.541 -0.0574 -0.3919  0.0019
 6826TIP3   OH244672   3.214   0.417  10.765  0.3866 -0.2198 -0.7536
 6826TIP3    H144673   3.267   0.340  10.787  2.3694  0.4702 -2.7042
 6826TIP3    H244674   3.207   0.414  10.670 -1.7904  0.6281 -0.6727
 6827TIP3   OH244675   0.511   6.213  11.857 -0.3027 -0.3967  0.7642
 6827TIP3    H144676   0.451   6.233  11.929 -2.3893 -0.5357 -0.8317
 6827TIP3    H244677   0.454   6.202  11.781  1.8557  0.5197 -1.0959
 6828TIP3   OH244678   6.775   2.206  12.717 -0.5838 -0.4387 -0.0716
 6828TIP3    H144679   6.790   2.113  12.733 -1.3264 -0.6131 -0.3582
 6828TIP3    H244680   6.700   2.209  12.658  0.7043  0.2517 -1.8104
 6829TIP3   OH244681   3.588   7.471  10.290  0.2236 -0.7450  0.6387
 6829TIP3    H144682   3.646   7.492  10.363  1.0052  0.5990 -0.3361
 6829TIP3    H244683   3.636   7.404  10.241  0.7616  0.0394  0.0816
 6830TIP3   OH244684   1.378   4.623  10.289 -0.2238 -0.1321  0.5567
 6830TIP3    H144685   1.418   4.559  10.347 -2.0193 -2.2612 -0.4368
 6830TIP3    H244686   1.372   4.703  10.342  2.6256 -0.5178  1.6281
 6831TIP3   OH244687   3.334   0.034  10.368 -0.0609 -0.2362  0.5907
 6831TIP3    H144688   3.408   0.084  10.402 -0.4694  0.2664  0.7541
 6831TIP3    H244689   3.331  -0.044  10.423  0.2600 -0.1889  0.6760
 6832TIP3   OH244690   5.298   1.513  10.705 -0.7053  0.2588 -0.1110
 6832TIP3    H144691   5.206   1.509  10.734 -0.3796  0.0533  0.9590
 6832TIP3    H244692   5.341   1.566  10.772  0.1749 -0.5887  0.0144
 6833TIP3   OH244693   6.638   4.797   9.838 -0.2381  0.2250 -0.5357
 6833TIP3    H144694   6.586   4.757   9.908 -0.1028  0.7940 -0.1066
 6833TIP3    H244695   6.610   4.751   9.759 -0.0396 -0.7671 -0.0511
 6834TIP3   OH244696   6.351   1.979  10.563  0.7632 -0.2918 -0.3134
 6834TIP3    H144697   6.331   1.942  10.478  0.0869 -1.3378  0.2865
 6834TIP3    H244698   6.309   2.065  10.563 -1.2369 -1.2348 -0.1876
 6835TIP3   OH244699   1.445   5.212  10.316  0.2816  0.3396 -0.3466
 6835TIP3    H144700   1.533   5.176  10.311 -0.2527 -0.9073 -1.6140
 6835TIP3    H244701   1.388   5.141  10.285 -1.0772  1.3998 -0.3963
 6836TIP3   OH244702   6.195   6.290  11.618 -0.2814 -0.2257  0.3888
 6836TIP3    H144703   6.259   6.356  11.646 -0.1779  0.3044 -1.0215
 6836TIP3    H244704   6.239   6.206  11.635  1.4039  0.1232 -1.7205
 6837TIP3   OH244705   2.197   5.823  10.289  0.0422  0.2005  0.3486
 6837TIP3    H144706   2.102   5.813  10.295  0.0221 -0.2826 -0.5909
 6837TIP3    H244707   2.209   5.893  10.224  0.3406 -2.1904 -2.3529
 6838TIP3   OH244708   2.206   5.968  10.846 -0.2151  0.4451  0.5112
 6838TIP3    H144709   2.112   5.950  10.849 -0.0060 -0.7601  0.2549
 6838TIP3    H244710   2.247   5.882  10.840  0.9199  0.9489  0.8096
 6839TIP3   OH244711   5.477   2.560  11.027 -0.1676  0.0868  0.1373
 6839TIP3    H144712   5.496   2.472  10.995  1.6172  0.4987  0.0049
 6839TIP3    H244713   5.513   2.563  11.115 -0.2513  0.6870  0.1567
 6840TIP3   OH244714   1.877   1.296  12.540  0.3284  0.2253 -0.5640
 6840TIP3    H144715   1.895   1.302  12.634  1.0835 -0.2442 -0.6643
 6840TIP3    H244716   1.783   1.280  12.534  0.3066  0.0631  0.1181
 6841TIP3   OH244717   4.065   7.033  10.201 -0.0878 -0.2481 -0.7891
 6841TIP3    H144718   4.032   6.953  10.242 -2.6494  0.0901 -1.9952
 6841TIP3    H244719   4.078   7.009  10.109  1.8107  0.0509 -0.6501
 6842TIP3   OH244720   4.157   7.624  10.653 -0.3415  0.3864 -0.0190
 6842TIP3    H144721   4.139   7.700  10.709 -0.8860  0.0620  0.2678
 6842TIP3    H244722   4.137   7.653  10.564  1.1877  1.1150 -0.1495
 6843TIP3   OH244723   5.132   2.569  10.693 -0.3154  0.0439  0.4346
 6843TIP3    H144724   5.223   2.597  10.701 -0.4429  1.2158 -1.6935
 6843TIP3    H244725   5.136   2.489  10.641 -0.4403 -0.7059  1.5272
 6844TIP3   OH244726   6.469   1.226  11.152  0.1129  0.0485  0.2723
 6844TIP3    H144727   6.448   1.263  11.066 -2.7577 -0.2725  0.7385
 6844TIP3    H244728   6.565   1.222  11.153  0.2955  1.1915 -2.4049
 6845TIP3   OH244729   4.266   3.680  11.897  0.3728  0.1053  0.4081
 6845TIP3    H144730   4.328   3.610  11.877  0.2444  0.3651 -0.9975
 6845TIP3    H244731   4.184   3.635  11.918  0.1996 -0.1842 -0.8157
 6846TIP3   OH244732   5.346   3.382  11.705  0.0068  0.6654  0.2050
 6846TIP3    H144733   5.323   3.399  11.614  0.5063  2.1845  0.3500
 6846TIP3    H244734   5.430   3.425  11.718 -0.3613  1.0338  1.5525
 6847TIP3   OH244735   2.035   1.040  10.956 -0.1233  0.1119  0.5216
 6847TIP3    H144736   2.111   0.982  10.960  0.6043  0.9946 -0.2977
 6847TIP3    H244737   2.065   1.122  10.994 -0.6559  0.4787  0.1660
 6848TIP3   OH244738   2.366   3.370  12.590 -0.4953 -0.0084  0.3148
 6848TIP3    H144739   2.298   3.409  12.535  0.6090  1.1544 -0.2396
 6848TIP3    H244740   2.347   3.276  12.586 -1.5871  0.2164 -0.4783
 6849TIP3   OH244741   4.880   3.804  12.264  0.2420 -0.3383  0.0070
 6849TIP3    H144742   4.955   3.803  12.324  0.2678  2.0794  0.1003
 6849TIP3    H244743   4.805   3.782  12.318  0.3263  1.4129  0.8809
 6850TIP3   OH244744   0.770   7.366  12.165 -0.1904 -0.3733  0.9466
 6850TIP3    H144745   0.678   7.378  12.189  0.2501  0.5790  2.2899
 6850TIP3    H244746   0.771   7.284  12.115 -1.7599 -0.3941  0.8930
 6851TIP3   OH244747   3.686   1.001  11.964  0.2060  0.2290 -0.5336
 6851TIP3    H144748   3.633   0.938  12.013 -0.0263 -1.4132 -2.7605
 6851TIP3    H244749   3.773   0.995  12.005 -0.5427  0.7524  1.2205
 6852TIP3   OH244750   1.654   4.993  12.474 -0.3357 -0.0679 -0.1440
 6852TIP3    H144751   1.576   4.951  12.437 -0.4587 -2.3430  2.3741
 6852TIP3    H244752   1.717   4.921  12.483  1.0871  1.2009  0.3512
 6853TIP3   OH244753   0.042   2.170  10.463 -0.3076 -0.6430  0.1263
 6853TIP3    H144754   0.115   2.166  10.401 -0.3666 -0.2575  0.0252
 6853TIP3    H244755  -0.034   2.142  10.412 -0.9941  2.7904 -1.0090
 6854TIP3   OH244756   7.128   7.633  11.851 -0.0967  0.1578  0.5181
 6854TIP3    H144757   7.106   7.550  11.893 -0.2755  1.2043  2.6062
 6854TIP3    H244758   7.203   7.665  11.901 -0.2049  1.3868 -0.0829
 6855TIP3   OH244759   2.084   6.019  11.561  0.1478 -0.3648  0.1584
 6855TIP3    H144760   2.145   6.079  11.518 -0.6919 -0.9232 -1.9213
 6855TIP3    H244761   2.031   6.074  11.618  0.5618  0.5778 -0.3589
 6856TIP3   OH244762   6.737   7.158  10.173  0.1462  0.2764 -0.5821
 6856TIP3    H144763   6.832   7.149  10.165  0.5525  2.0222  1.4703
 6856TIP3    H244764   6.713   7.224  10.108 -0.3959 -2.9193 -3.9609
 6857TIP3   OH244765   5.357   7.562  11.770 -0.4933  0.0254  0.2245
 6857TIP3    H144766   5.428   7.501  11.749  0.2511  0.9203  0.0852
 6857TIP3    H244767   5.401   7.636  11.812 -1.6562 -0.7525  3.0502
 6858TIP3   OH244768   0.079   2.266  10.015  0.3421 -0.0227  0.5817
 6858TIP3    H144769   0.050   2.271  10.106 -1.0323 -1.7786  0.3128
 6858TIP3    H244770   0.010   2.310   9.965  1.0139  0.7996  0.3699
 6859TIP3   OH244771   1.295   1.296  10.483  0.4214 -0.5096  0.4580
 6859TIP3    H144772   1.221   1.259  10.434 -0.8644  0.9825  1.1779
 6859TIP3    H244773   1.370   1.288  10.424 -0.9357  0.6368 -1.4996
 6860TIP3   OH244774   4.926   0.718  12.492 -0.4914  0.2508  0.2292
 6860TIP3    H144775   4.861   0.674  12.437  0.1572 -1.7211  0.9499
 6860TIP3    H244776   4.875   0.777  12.546 -1.3829  0.6217 -0.9655
 6861TIP3   OH244777   3.269   1.584  12.498  0.3152  0.3899 -0.2510
 6861TIP3    H144778   3.222   1.665  12.520  2.5681  1.9653 -0.9163
 6861TIP3    H244779   3.206   1.515  12.517 -1.7987  2.2841  0.1383
 6862TIP3   OH244780   6.628   0.814  11.475 -0.0026  0.2296 -0.2349
 6862TIP3    H144781   6.540   0.820  11.511  0.4888  0.6924  0.9355
 6862TIP3    H244782   6.622   0.858  11.390 -1.1827 -0.8876 -0.7698
 6863TIP3   OH244783   5.670   5.842  11.074  0.1510 -0.3916  0.1166
 6863TIP3    H144784   5.645   5.867  10.986 -0.0897 -1.0596 -0.0123
 6863TIP3    H244785   5.586   5.824  11.119  0.3138 -1.1092  0.1491
 6864TIP3   OH244786   4.132   5.520  10.959  0.4085 -0.4858 -0.1018
 6864TIP3    H144787   4.124   5.425  10.963 -0.6949 -0.4035 -0.0392
 6864TIP3    H244788   4.146   5.539  10.867  2.3471 -0.8062  0.0906
 6865TIP3   OH244789   5.761   6.162  11.067  0.0332 -0.2909 -0.3891
 6865TIP3    H144790   5.697   6.154  10.995 -0.3350 -1.4051  0.0410
 6865TIP3    H244791   5.804   6.076  11.070  1.4216  0.3738 -0.5276
 6866TIP3   OH244792   6.366   2.085  12.415  0.3701 -0.2424  0.3295
 6866TIP3    H144793   6.325   2.158  12.370  0.9491 -0.8011 -1.1622
 6866TIP3    H244794   6.293   2.025  12.434 -0.1505  0.7965  1.8198
 6867TIP3   OH244795   2.341   0.255  12.796  0.3548 -0.0220  0.3721
 6867TIP3    H144796   2.359   0.285  12.885 -1.5787 -1.5626  1.3571
 6867TIP3    H244797   2.249   0.278  12.780  0.3727 -0.6892 -0.8391
 6868TIP3   OH244798   4.423   3.097  10.836  0.1906 -0.2294 -0.0564
 6868TIP3    H144799   4.406   3.013  10.877  0.8562 -0.4243 -0.1555
 6868TIP3    H244800   4.488   3.078  10.768  0.8349  0.4589  0.3438
 6869TIP3   OH244801   1.863   7.287  12.239  0.6602 -0.7470 -0.1720
 6869TIP3    H144802   1.822   7.373  12.230  3.0772  0.4185 -0.5914
 6869TIP3    H244803   1.795   7.226  12.210 -1.0919  0.9730  0.0562
 6870TIP3   OH244804   3.021   4.292   9.967 -0.2436 -0.0013 -0.4297
 6870TIP3    H144805   3.057   4.315   9.881 -0.2848  0.6505 -0.2776
 6870TIP3    H244806   2.973   4.211   9.952  0.7347 -0.5395 -0.7748
 6871TIP3   OH244807   5.579   5.775  10.439 -0.2528 -0.0615  0.4924
 6871TIP3    H144808   5.547   5.806  10.523  0.6579 -0.0010  0.8320
 6871TIP3    H244809   5.510   5.798  10.377 -1.1108 -0.4685  1.2735
 6872TIP3   OH244810   2.919   3.046  11.757 -0.0449  0.4287 -0.3058
 6872TIP3    H144811   2.880   3.098  11.687 -0.0701 -0.3911 -0.9116
 6872TIP3    H244812   2.989   2.996  11.715 -0.6520 -0.7621  0.0552
 6873TIP3   OH244813   4.262   2.741   9.673  0.4749  0.2966  0.7697
 6873TIP3    H144814   4.246   2.662   9.724  0.6757  0.5154  1.1748
 6873TIP3    H244815   4.180   2.790   9.679  0.3883  0.1712  0.6123
 6874TIP3   OH244816   1.039   0.839  10.936 -0.1521 -0.5747  0.8413
 6874TIP3    H144817   0.996   0.818  10.853  0.7356 -1.4928  0.5919
 6874TIP3    H244818   1.126   0.869  10.911 -0.6278  1.3578  1.3333
 6875TIP3   OH244819   2.577   4.123  11.221  0.2332  0.8311 -0.2053
 6875TIP3    H144820   2.531   4.100  11.140 -0.7915  0.7269  0.3814
 6875TIP3    H244821   2.666   4.145  11.193 -0.4519  2.1001 -1.5313
 6876TIP3   OH244822   7.324   6.504  10.126  0.8498 -0.0654 -0.0648
 6876TIP3    H144823   7.271   6.582  10.106  0.2579 -0.6348 -0.8037
 6876TIP3    H244824   7.282   6.466  10.203 -0.3781 -0.9702 -1.1288
 6877TIP3   OH244825   3.554   2.331  10.068  0.1864 -0.5199 -0.1768
 6877TIP3    H144826   3.592   2.255  10.023 -1.2246 -2.7180  2.0438
 6877TIP3    H244827   3.560   2.309  10.161  1.2105  2.9155  0.7030
 6878TIP3   OH244828   4.446   2.880  12.017  0.3750 -0.5967 -0.5456
 6878TIP3    H144829   4.411   2.966  12.041  0.8470 -0.1188 -1.5265
 6878TIP3    H244830   4.393   2.818  12.068  1.2379  0.3255  1.6070
 6879TIP3   OH244831   2.943   3.050  11.302  0.7841 -0.3972  0.5815
 6879TIP3    H144832   2.982   2.964  11.288  1.1349 -0.2061  0.3787
 6879TIP3    H244833   2.924   3.083  11.214  2.7095  0.6719  0.5152
 6880TIP3   OH244834   5.508   2.204  11.971  0.2848  0.0613 -0.2492
 6880TIP3    H144835   5.476   2.270  11.909 -1.2973 -0.2783  0.1725
 6880TIP3    H244836   5.563   2.252  12.032 -1.6525  1.2256  0.6631
 6881TIP3   OH244837   4.829   0.431  10.036  0.1709  0.1832  0.4023
 6881TIP3    H144838   4.916   0.400  10.059  0.1172 -1.0970 -0.9608
 6881TIP3    H244839   4.844   0.494   9.965  0.0312  0.3987  0.5643
 6882TIP3   OH244840   1.202   3.957  11.305 -0.1940 -0.0402  0.6967
 6882TIP3    H144841   1.168   3.889  11.363  0.2762 -0.2195  0.7684
 6882TIP3    H244842   1.237   4.023  11.365  0.4795 -0.3222  0.6234
 6883TIP3   OH244843   5.904   1.777  11.387  0.1850  0.3247 -0.4507
 6883TIP3    H144844   5.877   1.708  11.447  2.4060  0.0976  0.4112
 6883TIP3    H244845   5.935   1.731  11.310  0.4303  0.4151 -0.4092
 6884TIP3   OH244846   3.165   4.108  12.292 -0.1797 -0.7132 -0.0326
 6884TIP3    H144847   3.244   4.160  12.276  0.0834 -0.9484  0.4807
 6884TIP3    H244848   3.094   4.173  12.295  0.0981 -0.4226  0.2590
 6885TIP3   OH244849   7.109   1.131  10.400  0.0871  0.2998  0.4891
 6885TIP3    H144850   7.027   1.094  10.367  0.9550 -1.0864 -0.1990
 6885TIP3    H244851   7.108   1.111  10.494  0.1121 -0.6811  0.2905
 6886TIP3   OH244852   3.589   3.524  12.453  0.2923  0.4390 -0.4823
 6886TIP3    H144853   3.570   3.608  12.495 -1.5261  0.9356 -2.1275
 6886TIP3    H244854   3.679   3.533  12.422  1.3389  0.4236  2.2824
 6887TIP3   OH244855   2.278   7.254  11.564 -0.3002 -0.0882 -0.2109
 6887TIP3    H144856   2.269   7.250  11.659  1.9071  0.6200  0.0875
 6887TIP3    H244857   2.367   7.286  11.549 -0.3376 -0.8138 -2.5247
 6888TIP3   OH244858   2.179   6.125  12.556 -0.1002  1.2134  0.9109
 6888TIP3    H144859   2.129   6.199  12.522  0.5751  1.6305  0.8047
 6888TIP3    H244860   2.270   6.145  12.534  0.1559  0.6339  1.4038
 6889TIP3   OH244861   2.062   4.642  10.296  0.3306  0.4724  0.0759
 6889TIP3    H144862   2.104   4.725  10.271 -0.5329  0.8966 -0.0057
 6889TIP3    H244863   2.132   4.592  10.338  1.0775  0.9045 -0.6163
 6890TIP3   OH244864   5.307   6.751  12.208 -0.4498  0.4485  0.5349
 6890TIP3    H144865   5.284   6.658  12.197  0.8833  0.1642 -0.1605
 6890TIP3    H244866   5.352   6.755  12.292  0.0977  0.3219  0.2537
 6891TIP3   OH244867   3.460   5.070  11.015 -0.0965  0.1453 -0.6933
 6891TIP3    H144868   3.403   5.091  10.941 -1.2774 -1.0723 -0.1746
 6891TIP3    H244869   3.412   5.101  11.092 -0.3618 -1.4141 -0.1992
 6892TIP3   OH244870   5.785   1.640  10.665  0.5754 -0.0337  0.3192
 6892TIP3    H144871   5.814   1.709  10.724 -2.0889  1.4049  0.0956
 6892TIP3    H244872   5.743   1.686  10.592 -0.0435 -1.8450 -0.5435
 6893TIP3   OH244873   6.373   2.314  10.044 -0.4172  0.4804  0.0058
 6893TIP3    H144874   6.370   2.395  10.095 -1.8194  0.6687 -0.3366
 6893TIP3    H244875   6.296   2.318   9.987 -0.1901 -0.8217 -0.4359
 6894TIP3   OH244876   3.298   3.990  11.514  0.3839 -0.3876  0.3837
 6894TIP3    H144877   3.302   4.037  11.597 -2.2824 -1.1955  1.0522
 6894TIP3    H244878   3.303   3.897  11.539 -0.9352 -0.6557 -0.2779
 6895TIP3   OH244879   2.094   6.614  11.948 -0.5106  0.5846  0.1868
 6895TIP3    H144880   2.188   6.628  11.953 -0.3598 -0.2842 -0.0777
 6895TIP3    H244881   2.065   6.608  12.039 -0.0792 -0.5540  0.2664
 6896TIP3   OH244882   7.677   0.279  12.128  0.6086  0.8165  0.6114
 6896TIP3    H144883   7.614   0.330  12.180  2.2987  1.9615  1.6052
 6896TIP3    H244884   7.687   0.330  12.047 -0.8872 -0.2016 -0.2817
 6897TIP3   OH244885   2.589   5.879  11.105 -0.0925 -0.2041 -0.1884
 6897TIP3    H144886   2.673   5.838  11.126 -0.5049 -1.7082 -1.3442
 6897TIP3    H244887   2.609   5.937  11.031  0.1012  0.1851  0.1632
 6898TIP3   OH244888   0.879   5.919  11.490  0.5781 -0.3387 -0.6782
 6898TIP3    H144889   0.934   5.944  11.564 -0.0773 -0.8508 -0.0111
 6898TIP3    H244890   0.895   5.825  11.479  1.5786 -0.0568 -1.9651
 6899TIP3   OH244891   1.684   7.501  12.509 -0.4538  0.2783 -0.0488
 6899TIP3    H144892   1.652   7.420  12.547 -0.1624  0.6861  1.1139
 6899TIP3    H244893   1.605   7.548  12.481 -0.5740 -1.0112 -2.1329
 6900TIP3   OH244894   6.580   5.574  11.024  0.0498 -0.1663 -0.3585
 6900TIP3    H144895   6.635   5.498  11.004 -1.3447 -2.1222  2.5525
 6900TIP3    H244896   6.640   5.637  11.064  0.9556 -0.3035 -1.4423
 6901TIP3   OH244897   7.010   1.487  10.045  0.4490  0.3563 -0.3160
 6901TIP3    H144898   7.093   1.522  10.013 -0.7954  2.0256 -1.9606
 6901TIP3    H244899   6.944   1.528   9.989 -1.4444 -1.5621  0.3747
 6902TIP3   OH244900   3.559   0.167  10.428  0.0812  0.5758  0.7727
 6902TIP3    H144901   3.552   0.242  10.488  0.7877  1.4180 -0.1699
 6902TIP3    H244902   3.596   0.204  10.348  0.5408 -0.8087  0.3280
 6903TIP3   OH244903   6.878   3.652  12.109  0.2615 -0.3446 -0.2178
 6903TIP3    H144904   6.867   3.586  12.177 -0.2883  0.8611  0.8899
 6903TIP3    H244905   6.967   3.639  12.077  0.1468 -1.6383 -0.0614
 6904TIP3   OH244906   1.911   6.713  10.470  0.5080  0.1066 -0.2393
 6904TIP3    H144907   1.861   6.795  10.469  0.9513  0.4066  0.9530
 6904TIP3    H244908   1.876   6.664  10.544  0.2149 -0.8326 -0.9685
 6905TIP3   OH244909   1.975   1.167   9.662 -0.1543  0.1894  0.0574
 6905TIP3    H144910   2.019   1.213   9.590  0.1292  1.3162  0.9238
 6905TIP3    H244911   1.889   1.145   9.627  0.4206 -0.4162 -1.0437
 6906TIP3   OH244912   5.567   2.386   9.849 -0.3535 -0.1476  0.8032
 6906TIP3    H144913   5.485   2.379   9.898 -1.8882  0.6381 -1.4915
 6906TIP3    H244914   5.543   2.365   9.758  1.8137  0.9009 -0.0981
 6907TIP3   OH244915   0.566   6.822  11.999 -0.1307  0.2775 -0.4184
 6907TIP3    H144916   0.487   6.801  11.950  0.4649 -1.0993 -0.8254
 6907TIP3    H244917   0.637   6.781  11.950  0.5970 -0.2685  1.0345
 6908TIP3   OH244918   5.941   0.278  10.516 -0.1415  0.3919 -0.0582
 6908TIP3    H144919   5.873   0.346  10.514 -0.4237  0.1407  0.5870
 6908TIP3    H244920   5.949   0.249  10.425  0.0322  1.3288 -0.3527
 6909TIP3   OH244921   0.911   6.109  10.443 -0.2592  0.9685  0.1203
 6909TIP3    H144922   0.830   6.119  10.394  0.6326  1.9851 -1.2145
 6909TIP3    H244923   0.926   6.195  10.483 -1.3545 -0.0278  2.9010
 6910TIP3   OH244924   4.685   3.222  11.694  0.9202 -0.2374  0.4177
 6910TIP3    H144925   4.657   3.176  11.615  0.3750 -0.7973  0.9219
 6910TIP3    H244926   4.776   3.246  11.677  0.5094  0.5344 -0.7745
 6911TIP3   OH244927   3.391   6.714   9.724 -0.5689 -0.1418 -0.4576
 6911TIP3    H144928   3.346   6.799   9.721  2.3896  1.5622  0.1579
 6911TIP3    H244929   3.356   6.671   9.802 -1.7331  0.7356 -0.4672
 6912TIP3   OH244930   5.591   3.197  12.047  0.2793  0.7786  0.5591
 6912TIP3    H144931   5.545   3.281  12.041 -0.7771  0.1853  0.1436
 6912TIP3    H244932   5.542   3.138  11.990  1.2351 -0.0290  0.5419
 6913TIP3   OH244933   1.602   6.995  11.048  0.6199 -0.2301 -0.8858
 6913TIP3    H144934   1.534   6.989  11.115  0.4821  0.7020 -0.9355
 6913TIP3    H244935   1.626   7.087  11.045  1.1144 -0.3676 -1.6405
 6914TIP3   OH244936   4.491   3.555  11.232 -0.2300  0.2280  0.2433
 6914TIP3    H144937   4.466   3.482  11.289  1.0596  0.0823  0.6471
 6914TIP3    H244938   4.490   3.632  11.289 -0.4540  0.3393  0.0901
 6915TIP3   OH244939   1.677   2.999  11.071 -0.1416 -0.4379  0.0814
 6915TIP3    H144940   1.719   3.075  11.030 -0.8408 -0.5138 -0.8190
 6915TIP3    H244941   1.679   2.931  11.004 -0.6425 -0.8099  0.4356
 6916TIP3   OH244942   4.664   6.020  11.697 -0.0209 -0.2974  0.7241
 6916TIP3    H144943   4.745   5.989  11.738  0.9507  0.4178 -0.5614
 6916TIP3    H244944   4.688   6.105  11.659 -1.9911  1.0657  2.2610
 6917TIP3   OH244945   1.765   0.271  11.014 -0.3720 -0.1117 -0.1910
 6917TIP3    H144946   1.818   0.228  10.946  1.2139 -1.1316  1.5858
 6917TIP3    H244947   1.683   0.222  11.015 -0.5087  0.0653 -1.5112
 6918TIP3   OH244948   4.171   7.592  11.144 -0.3027  0.4951 -0.1488
 6918TIP3    H144949   4.105   7.638  11.091  0.7038  0.9465 -1.0518
 6918TIP3    H244950   4.191   7.513  11.094  1.4443  1.4537 -1.0518
 6919TIP3   OH244951   7.656   0.139   9.811 -0.1756 -0.1601  0.2539
 6919TIP3    H144952   7.622   0.096   9.732  2.3530 -0.7702 -0.6029
 6919TIP3    H244953   7.584   0.196   9.839 -1.8309 -1.2587 -1.4303
 6920TIP3   OH244954   2.225   2.156  12.620  0.1653 -0.3460 -0.1151
 6920TIP3    H144955   2.210   2.124  12.531 -3.5244  1.6714 -0.4330
 6920TIP3    H244956   2.314   2.129  12.641  0.9073 -1.6226 -4.0935
 6921TIP3   OH244957   3.608   2.476  10.595 -0.1564  0.3511 -0.0502
 6921TIP3    H144958   3.548   2.477  10.670  1.1405  0.3421  1.0422
 6921TIP3    H244959   3.692   2.452  10.634 -0.1032 -3.4456 -2.0470
 6922TIP3   OH244960   2.068   2.056  11.194  0.0488 -0.1878  0.5403
 6922TIP3    H144961   2.161   2.056  11.169 -0.0723  0.1982  0.0559
 6922TIP3    H244962   2.040   2.146  11.177 -0.5316 -0.4237  0.2294
 6923TIP3   OH244963   7.261   3.601  12.893  0.2516  0.0511  0.2689
 6923TIP3    H144964   7.317   3.537  12.849  0.3822  0.0940  0.3691
 6923TIP3    H244965   7.323   3.658  12.940  0.0734 -0.6043  1.3441
 6924TIP3   OH244966   1.174   2.279  11.008 -0.1522  0.0656  0.3069
 6924TIP3    H144967   1.118   2.206  11.034  1.4728 -0.7927  1.5376
 6924TIP3    H244968   1.231   2.243  10.941 -0.1016  0.5297  0.0950
 6925TIP3   OH244969   7.563   2.692  10.022  0.2227  0.2907 -0.2610
 6925TIP3    H144970   7.475   2.715  10.051 -0.1157 -1.4899  0.2772
 6925TIP3    H244971   7.596   2.771   9.980 -1.5847  1.0311 -0.3887
 6926TIP3   OH244972   6.567   4.933  11.171  0.3027 -0.1451 -0.5073
 6926TIP3    H144973   6.506   4.934  11.097 -2.9595 -0.4626  1.9824
 6926TIP3    H244974   6.512   4.946  11.248  3.2596 -1.6765  2.0692
 6927TIP3   OH244975   7.157   4.878  10.940  0.3962 -0.2005  0.1932
 6927TIP3    H144976   7.149   4.783  10.934  1.9796 -0.3245 -0.2271
 6927TIP3    H244977   7.245   4.897  10.908 -0.0952  1.4618 -0.2637
 6928TIP3   OH244978   0.387   6.804  11.785 -0.3917 -0.0361 -0.2343
 6928TIP3    H144979   0.418   6.750  11.712  0.2359 -1.6105  1.1295
 6928TIP3    H244980   0.440   6.883  11.780  0.4607 -0.6186 -0.8078
 6929TIP3   OH244981   5.660   0.265  10.743 -0.6910 -0.3900  0.3434
 6929TIP3    H144982   5.732   0.328  10.745 -0.4898 -0.6381  2.1897
 6929TIP3    H244983   5.582   0.317  10.763 -0.6219 -0.6048  1.1772
 6930TIP3   OH244984   7.471   2.008  12.399  0.0603  0.4728  0.6518
 6930TIP3    H144985   7.428   2.057  12.469  2.0087  2.4557  0.5412
 6930TIP3    H244986   7.441   2.050  12.318 -0.2646 -0.2408  0.3852
 6931TIP3   OH244987   7.205   2.127  10.313 -0.2109  0.0868 -0.1847
 6931TIP3    H144988   7.164   2.121  10.226  0.6016 -0.3412 -0.5455
 6931TIP3    H244989   7.189   2.042  10.353  0.5418 -0.1733 -0.4280
 6932TIP3   OH244990   3.939   0.375  11.806  0.0239 -0.5382 -0.0507
 6932TIP3    H144991   3.893   0.455  11.781  0.3238 -0.4408 -0.2976
 6932TIP3    H244992   4.029   0.390  11.778  0.0715 -0.9815 -0.1350
 6933TIP3   OH244993   2.965   1.458   9.892  0.1539 -0.0554  0.0847
 6933TIP3    H144994   2.979   1.369   9.926  1.0627  0.8077  2.1480
 6933TIP3    H244995   3.053   1.489   9.870 -0.0913  0.5372 -0.0649
 6934TIP3   OH244996   7.543   0.054  10.788 -0.2009 -0.0720  0.1064
 6934TIP3    H144997   7.490   0.133  10.795  1.8896  1.5162 -0.9237
 6934TIP3    H244998   7.494  -0.004  10.730 -1.3973  0.7867  0.2420
 6935TIP3   OH244999   1.623   6.870  10.078  0.3931  0.6445 -0.4004
 6935TIP3    H145000   1.712   6.839  10.060 -0.0514 -1.6940  1.1287
 6935TIP3    H245001   1.608   6.849  10.170 -1.3788  2.0090 -0.3287
 6936TIP3   OH245002   1.788   3.149  12.511 -0.1761  0.3344  0.4349
 6936TIP3    H145003   1.871   3.132  12.467 -1.1234  1.8874 -2.0991
 6936TIP3    H245004   1.757   3.061  12.535  1.8834 -0.3216  0.9689
 6937TIP3   OH245005   5.719   6.568  10.514 -0.3946 -0.4722 -0.2787
 6937TIP3    H145006   5.653   6.509  10.552  0.4284 -0.8558  0.6006
 6937TIP3    H245007   5.686   6.588  10.427 -1.9768 -0.1857  0.3465
 6938TIP3   OH245008   0.302   4.845  11.509  0.1063  0.1859 -0.2938
 6938TIP3    H145009   0.234   4.882  11.565  0.6417 -1.1814  1.3528
 6938TIP3    H245010   0.275   4.754  11.496  1.5743 -0.3802  0.3859
 6939TIP3   OH245011   1.258   3.391  12.654 -0.0941  0.7030 -0.7378
 6939TIP3    H145012   1.328   3.425  12.710 -0.4006  0.0874  0.0419
 6939TIP3    H245013   1.282   3.300  12.638  0.3658  1.0752 -2.2368
 6940TIP3   OH245014   5.844   5.252  12.925 -0.8686  0.1628 -0.1179
 6940TIP3    H145015   5.909   5.317  12.952  0.6884 -1.9205  1.5087
 6940TIP3    H245016   5.772   5.262  12.988  0.0258 -0.6271  1.0581
 6941TIP3   OH245017   1.666   1.027  12.598  0.0703  0.0986  0.4580
 6941TIP3    H145018   1.663   1.118  12.566 -0.4180  0.3158  1.1031
 6941TIP3    H245019   1.608   1.027  12.674 -0.4786 -0.9352  0.0464
 6942TIP3   OH245020   4.646   7.120  11.182 -0.2433  0.0681  0.1840
 6942TIP3    H145021   4.574   7.071  11.143 -1.0714  1.0592  0.4084
 6942TIP3    H245022   4.613   7.149  11.267  1.0733 -0.9622  1.0976
 6943TIP3   OH245023   6.353   2.318  12.945 -0.2831 -0.1715 -0.4297
 6943TIP3    H145024   6.274   2.266  12.937 -0.7738  0.7099 -1.5393
 6943TIP3    H245025   6.423   2.254  12.954 -1.0881 -0.9593  0.4232
 6944TIP3   OH245026   7.319   1.132  11.788  0.3650  0.3338 -0.4579
 6944TIP3    H145027   7.229   1.100  11.789 -0.1330  1.5511 -1.7404
 6944TIP3    H245028   7.342   1.135  11.695  1.2359  1.2788 -0.2316
 6945TIP3   OH245029   3.240   2.490  11.890  0.3083  0.9997 -0.4361
 6945TIP3    H145030   3.199   2.472  11.975  2.4483  0.9753  0.6418
 6945TIP3    H245031   3.266   2.403  11.857  2.1934  1.2177  0.3559
 6946TIP3   OH245032   0.863   6.433  12.401 -0.1536 -0.3234 -0.5745
 6946TIP3    H145033   0.818   6.510  12.437  0.7035 -0.1443  0.1361
 6946TIP3    H245034   0.956   6.455  12.407  0.1630 -1.8148  0.6027
 6947TIP3   OH245035   1.976   2.286  11.516 -0.2134  0.6024  0.1996
 6947TIP3    H145036   1.900   2.247  11.473 -0.4284  0.6820  0.5002
 6947TIP3    H245037   1.984   2.238  11.598 -0.3470  1.0370  0.4695
 6948TIP3   OH245038   7.371   3.100  10.594 -0.2482 -0.1716 -0.2355
 6948TIP3    H145039   7.432   3.107  10.667  0.9940  1.8556 -1.3636
 6948TIP3    H245040   7.317   3.179  10.600 -0.8559 -0.5275 -0.8705
 6949TIP3   OH245041   0.834   3.093  10.331 -0.4171 -0.2872  0.0651
 6949TIP3    H145042   0.793   3.042  10.261  1.2608 -1.8117  0.0981
 6949TIP3    H245043   0.876   3.166  10.286 -2.1093  0.6217 -0.0944
 6950TIP3   OH245044   0.985   3.559  11.579 -0.1533  0.7367  0.9427
 6950TIP3    H145045   1.029   3.599  11.654 -1.3934  1.5490  1.2570
 6950TIP3    H245046   0.953   3.475  11.611  1.7416 -0.2187  0.5073
 6951TIP3   OH245047   6.626   6.405  10.218  0.5985  0.7003 -0.2201
 6951TIP3    H145048   6.637   6.498  10.235 -0.5408  0.8312 -0.1465
 6951TIP3    H245049   6.714   6.368  10.229  0.9119  1.6374  0.5286
 6952TIP3   OH245050   1.377   6.562  12.003  0.2154  0.1578 -0.1061
 6952TIP3    H145051   1.363   6.641  11.952 -1.1818  0.8404  1.2394
 6952TIP3    H245052   1.365   6.490  11.941 -0.4019  0.9650 -0.9459
 6953TIP3   OH245053   5.335   1.935  11.038 -0.4166  0.3690 -0.1065
 6953TIP3    H145054   5.371   1.901  11.120  0.2103  1.6567  0.1928
 6953TIP3    H245055   5.250   1.892  11.028 -0.5067  0.2112  1.2295
 6954TIP3   OH245056   3.301   6.042  10.718 -0.3031 -0.3945 -0.0276
 6954TIP3    H145057   3.317   5.957  10.760 -2.0089 -1.1258 -0.7359
 6954TIP3    H245058   3.363   6.045  10.645 -0.7687 -1.4282 -0.4918
 6955TIP3   OH245059   6.606   1.066  12.636  0.1462  0.4614 -0.3452
 6955TIP3    H145060   6.640   1.129  12.574  1.6005 -0.4563 -0.5171
 6955TIP3    H245061   6.527   1.031  12.594  0.3156  0.8846 -1.0184
 6956TIP3   OH245062   1.649   5.751  11.220 -0.3097  0.3316  0.2776
 6956TIP3    H145063   1.647   5.732  11.313 -0.2339  0.7147  0.3583
 6956TIP3    H245064   1.568   5.800  11.204 -0.9524 -0.8170 -0.0945
 6957TIP3   OH245065   7.511   1.595   9.869 -0.3308  0.4227 -0.5921
 6957TIP3    H145066   7.598   1.583   9.833 -0.1977  0.0822 -0.1610
 6957TIP3    H245067   7.520   1.669   9.930 -0.4325  0.6391 -0.8367
 6958TIP3   OH245068   3.216   3.431  11.665  0.1821 -0.2016  0.1278
 6958TIP3    H145069   3.239   3.357  11.721  0.1219 -0.8687 -0.7142
 6958TIP3    H245070   3.296   3.451  11.617 -0.1619 -0.6107 -0.6369
 6959TIP3   OH245071   5.259   6.838  10.265 -0.1081  0.0309  0.1180
 6959TIP3    H145072   5.285   6.912  10.321 -2.3728  0.4763  0.6632
 6959TIP3    H245073   5.254   6.764  10.325  1.7723 -0.5363 -0.3596
 6960TIP3   OH245074   0.238   5.114   9.896  0.0900 -0.3188 -0.2331
 6960TIP3    H145075   0.145   5.099   9.913  0.2675 -0.8840  0.2791
 6960TIP3    H245076   0.274   5.027   9.879  0.6053 -0.1542 -0.0118
 6961TIP3   OH245077   6.897   1.665  12.609 -0.5083 -0.8329  0.1992
 6961TIP3    H145078   6.854   1.587  12.573  0.1205 -1.2520  0.3339
 6961TIP3    H245079   6.987   1.660  12.576 -0.4612 -0.1668  0.2209
 6962TIP3   OH245080   2.199   6.750  10.452  0.5009 -0.9869  0.3288
 6962TIP3    H145081   2.109   6.718  10.458  0.7166 -1.7296 -0.3437
 6962TIP3    H245082   2.190   6.839  10.417  0.1142 -1.6449 -1.3170
 6963TIP3   OH245083   3.352   7.381  11.554 -0.2370 -0.0682 -0.0248
 6963TIP3    H145084   3.342   7.287  11.544 -0.5740 -0.0646  0.2385
 6963TIP3    H245085   3.381   7.412  11.468  1.2523 -0.5811  0.2754
 6964TIP3   OH245086   1.248   4.368  12.446  0.5315 -0.1450 -0.4281
 6964TIP3    H145087   1.161   4.328  12.449  0.2560  0.4886  0.7444
 6964TIP3    H245088   1.292   4.326  12.372 -0.1709 -1.7005  0.0051
 6965TIP3   OH245089   6.042   7.206  12.316  0.3889 -0.0862 -0.1977
 6965TIP3    H145090   6.064   7.160  12.397  0.9089  0.6569  0.0968
 6965TIP3    H245091   6.114   7.268  12.304  1.0279 -1.1023 -1.9602
 6966TIP3   OH245092   5.939   4.676  11.911 -0.1367  0.2479 -0.0129
 6966TIP3    H145093   5.939   4.693  12.006  2.1411 -0.1639  0.1269
 6966TIP3    H245094   5.914   4.760  11.872 -0.2257  0.6867  0.9464
 6967TIP3   OH245095   1.330   2.181  11.857  0.2411  0.1135  0.6186
 6967TIP3    H145096   1.364   2.101  11.897  2.6509  0.7984  0.0867
 6967TIP3    H245097   1.310   2.239  11.931 -0.2651 -0.4735  0.9524
 6968TIP3   OH245098   1.916   6.310  10.182  0.1102 -0.1591 -0.0027
 6968TIP3    H145099   2.005   6.333  10.154 -0.1096 -0.4559 -0.9911
 6968TIP3    H245100   1.925   6.224  10.222  0.4485  0.3197  0.9827
 6969TIP3   OH245101   2.821   6.588  11.569  0.0146  0.1336  0.2830
 6969TIP3    H145102   2.837   6.590  11.663 -1.3622  1.0439  0.5207
 6969TIP3    H245103   2.772   6.508  11.555  1.3961 -0.7177  0.1051
 6970TIP3   OH245104   3.101   4.922  11.094  0.5482 -0.4072 -0.1370
 6970TIP3    H145105   3.118   4.912  11.188 -3.0907  1.0863  0.8522
 6970TIP3    H245106   3.137   5.007  11.072 -1.6523  0.8819  0.9058
 6971TIP3   OH245107   1.612   2.650  11.051  0.0392  0.2461  0.2557
 6971TIP3    H145108   1.537   2.660  11.110  0.8348  1.1708  1.1549
 6971TIP3    H245109   1.688   2.659  11.108  0.8560 -0.6765 -0.6394
 6972TIP3   OH245110   5.286   4.050  10.992 -0.4017  0.1806  0.1327
 6972TIP3    H145111   5.204   4.074  10.948 -0.5396  0.1235  0.3545
 6972TIP3    H245112   5.298   3.957  10.971  0.8598  0.7379 -1.8860
 6973TIP3   OH245113   0.794   0.616  12.782  0.0869 -0.7716  0.0069
 6973TIP3    H145114   0.876   0.654  12.751 -0.1094 -0.1329  0.2654
 6973TIP3    H245115   0.818   0.527  12.809  1.0398 -0.0665  1.6170
 6974TIP3   OH245116   1.101   5.453  10.424 -0.1870  0.4125  0.4579
 6974TIP3    H145117   1.136   5.533  10.386 -0.5777  1.6058  2.4588
 6974TIP3    H245118   1.177   5.413  10.468 -0.0539 -0.2117 -0.3072
 6975TIP3   OH245119   0.216   6.728   9.981 -0.2562 -0.4846 -0.1627
 6975TIP3    H145120   0.185   6.687   9.900  1.0789 -1.4573 -0.2169
 6975TIP3    H245121   0.136   6.747  10.030 -1.0330 -0.9992 -1.1771
 6976TIP3   OH245122   2.458   1.581  12.063  0.5452  0.7152 -0.0966
 6976TIP3    H145123   2.401   1.581  12.140 -2.1023 -2.2177 -1.8332
 6976TIP3    H245124   2.539   1.623  12.093 -0.1839 -0.5649  4.3531
 6977TIP3   OH245125   4.121   1.046  11.441  0.2146 -0.1037  0.5042
 6977TIP3    H145126   4.129   1.021  11.349 -0.3890 -1.4390  0.7931
 6977TIP3    H245127   4.138   1.140  11.441 -0.5514  0.0855 -1.0982
 6978TIP3   OH245128   3.834   6.540   9.863  0.2659  0.1179  0.2009
 6978TIP3    H145129   3.927   6.562   9.858 -0.2148  2.2107 -0.6158
 6978TIP3    H245130   3.789   6.621   9.841 -1.7562 -1.2118 -0.8807
 6979TIP3   OH245131   4.996   6.427  10.110  0.3829 -0.4611  0.0464
 6979TIP3    H145132   5.044   6.402  10.189 -1.9740 -2.2034  1.0387
 6979TIP3    H245133   4.927   6.362  10.102 -1.6975  1.7598 -1.4229
 6980TIP3   OH245134   1.924   5.768  10.221  0.5078 -0.2436  0.3460
 6980TIP3    H145135   1.959   5.718  10.148  2.0610  0.6397  0.4306
 6980TIP3    H245136   1.843   5.723  10.246  0.2046 -0.8237 -1.5833
 6981TIP3   OH245137   7.143   1.889  10.451  0.0101 -0.3950 -0.1687
 6981TIP3    H145138   7.123   1.802  10.486 -1.5209  1.1083  3.0374
 6981TIP3    H245139   7.059   1.935  10.452  0.7697  1.1349 -1.8948
 6982TIP3   OH245140   2.612   7.613   9.637  0.3026 -0.3344  0.3327
 6982TIP3    H145141   2.517   7.613   9.633  0.3124 -0.0203  0.0868
 6982TIP3    H245142   2.640   7.563   9.561  0.3394 -0.2063  0.2615
 6983TIP3   OH245143   6.853   7.527  11.476 -0.0378  0.3962 -0.2152
 6983TIP3    H145144   6.874   7.592  11.543 -1.0086  2.1369 -1.4938
 6983TIP3    H245145   6.757   7.526  11.474 -0.0321  0.3280 -1.4755
 6984TIP3   OH245146   0.317   3.439  11.944  0.4773  0.0012  0.2643
 6984TIP3    H145147   0.410   3.433  11.965  1.6266 -1.1456 -4.0279
 6984TIP3    H245148   0.299   3.361  11.891 -1.9478  1.8770 -2.0172
 6985TIP3   OH245149   5.882   4.414  11.841 -0.4781 -0.7574  0.0078
 6985TIP3    H145150   5.833   4.417  11.759  1.5283 -1.1259 -1.2831
 6985TIP3    H245151   5.901   4.505  11.861 -1.9796 -0.5768  0.7558
 6986TIP3   OH245152   5.542   0.536  11.851  0.0055  0.5351 -0.0567
 6986TIP3    H145153   5.631   0.508  11.829  0.1994 -0.0746  1.3483
 6986TIP3    H245154   5.498   0.456  11.879 -0.5637  1.0472  0.5475
 6987TIP3   OH245155   3.682   5.097  11.569  0.6411  0.3495 -0.3905
 6987TIP3    H145156   3.748   5.051  11.517 -1.1833 -0.0559 -2.5221
 6987TIP3    H245157   3.656   5.172  11.515  1.2513  2.0854  1.6131
 6988TIP3   OH245158   1.488   2.833  11.227  0.1776  0.1013 -0.1110
 6988TIP3    H145159   1.484   2.890  11.151  1.6250  1.1129  0.5150
 6988TIP3    H245160   1.531   2.887  11.295  1.6327 -1.7092  0.5002
 6989TIP3   OH245161   7.584   5.321  11.601  0.1486  0.2704 -0.5920
 6989TIP3    H145162   7.546   5.235  11.583 -0.7312  0.0861  1.8553
 6989TIP3    H245163   7.555   5.375  11.527 -3.4047 -0.3535  0.1536
 6990TIP3   OH245164   1.955   7.185  10.994  0.3741  0.0516 -0.1069
 6990TIP3    H145165   1.922   7.226  11.074 -0.5913 -1.3230  0.2345
 6990TIP3    H245166   2.048   7.168  11.011  0.6594  1.5196 -0.0484
 6991TIP3   OH245167   5.604   7.640  10.302  0.4853 -0.5357  0.3353
 6991TIP3    H145168   5.528   7.610  10.251 -0.0429  0.1590  0.7009
 6991TIP3    H245169   5.587   7.610  10.391  0.4040  0.0210  0.5137
 6992TIP3   OH245170   2.919   0.037  11.417  0.1232 -0.1213 -0.0289
 6992TIP3    H145171   2.847  -0.025  11.424 -0.5030  0.6174  0.1427
 6992TIP3    H245172   2.936   0.065  11.507  0.8323 -0.5205 -0.0340
 6993TIP3   OH245173   1.047   1.735  12.288  0.3952 -0.0966 -0.0465
 6993TIP3    H145174   0.993   1.800  12.332 -0.1392  1.1689 -2.4179
 6993TIP3    H245175   1.080   1.679  12.359  0.7974  2.6587  2.0933
 6994TIP3   OH245176   4.221   2.714  10.265 -0.4227  0.3063  0.3070
 6994TIP3    H145177   4.167   2.636  10.268 -1.1284  0.7551 -0.1889
 6994TIP3    H245178   4.161   2.783  10.236 -0.0078  1.1958  1.5022
 6995TIP3   OH245179   0.394   0.063  12.392 -0.3550  0.3354  0.2202
 6995TIP3    H145180   0.374  -0.012  12.449  1.3064 -0.4728 -0.2071
 6995TIP3    H245181   0.313   0.114  12.392 -0.4917  0.2943  3.1657
 6996TIP3   OH245182   2.835   2.293  10.779  0.2722  0.1932 -0.3768
 6996TIP3    H145183   2.764   2.320  10.837  0.4960  1.8519 -0.8254
 6996TIP3    H245184   2.821   2.343  10.699  0.7352 -1.0709 -1.2715
 6997TIP3   OH245185   0.988   6.272  11.414 -0.2806  0.2196  0.2083
 6997TIP3    H145186   0.909   6.224  11.388  0.1840 -0.4910  0.0629
 6997TIP3    H245187   0.990   6.348  11.357 -1.3671  0.7595  0.8619
 6998TIP3   OH245188   6.136   5.403  11.510  0.3022  0.1018 -0.8419
 6998TIP3    H145189   6.121   5.314  11.542 -0.0235 -0.4215 -2.3648
 6998TIP3    H245190   6.141   5.394  11.415  0.9456  1.6240 -0.9853
 6999TIP3   OH245191   0.246   3.295  10.641  0.1698  0.0290  0.3759
 6999TIP3    H145192   0.307   3.350  10.592 -0.2943  0.6417  0.4854
 6999TIP3    H245193   0.256   3.322  10.732 -0.3258  0.1926  0.3841
 7000TIP3   OH245194   5.327   4.129  11.243 -0.2898 -0.2250  0.4706
 7000TIP3    H145195   5.316   4.101  11.152  0.7000  0.4539  0.1166
 7000TIP3    H245196   5.357   4.220  11.236  0.5885 -0.4129  1.4417
 7001TIP3   OH245197   3.422   7.639  10.124 -0.4142 -0.4997  0.0309
 7001TIP3    H145198   3.482   7.568  10.148 -1.2268 -2.1066 -2.3080
 7001TIP3    H245199   3.383   7.666  10.207  2.2136 -0.5786  1.3975
 7002TIP3   OH245200   6.934   2.140  11.261 -0.3873  0.2794 -0.0300
 7002TIP3    H145201   7.001   2.166  11.197  1.9859 -1.7967  1.4269
 7002TIP3    H245202   6.878   2.080  11.213  0.6778 -0.3713 -0.4925
 7003TIP3   OH245203   7.115   7.575  12.182  0.1541  0.2302 -0.3164
 7003TIP3    H145204   7.038   7.529  12.215  0.9212 -0.3225  0.7643
 7003TIP3    H245205   7.168   7.507  12.141  0.4037  0.4805 -0.4116
 7004TIP3   OH245206   2.722   3.863  11.747  0.3051 -0.3189  0.2107
 7004TIP3    H145207   2.661   3.878  11.819  1.5551  1.6756  0.9512
 7004TIP3    H245208   2.681   3.905  11.672  0.3433  0.2357  0.4932
 7005TIP3   OH245209   2.698   3.732  11.357  0.6800 -0.1356  0.1280
 7005TIP3    H145210   2.607   3.706  11.344  0.9099 -0.7948 -0.2576
 7005TIP3    H245211   2.735   3.663  11.414  0.3541  1.3539  2.2673
 7006TIP3   OH245212   2.865   6.329  10.898  0.4234 -0.1379  0.3494
 7006TIP3    H145213   2.904   6.383  10.967  0.4983 -0.5969  0.6755
 7006TIP3    H245214   2.931   6.328  10.829  0.5649 -0.0815  0.4815
 7007TIP3   OH245215   1.558   6.706  12.168  0.2364 -0.4497  0.3350
 7007TIP3    H145216   1.510   6.707  12.251  1.6538  0.9576  1.1852
 7007TIP3    H245217   1.514   6.638  12.116 -3.0400  1.1267  0.7880
 7008TIP3   OH245218   4.655   1.938  10.594  0.1064  0.3231  0.3040
 7008TIP3    H145219   4.692   2.003  10.535 -1.3342  0.8408 -0.0553
 7008TIP3    H245220   4.596   1.886  10.539  1.9017 -1.9446  0.3518
 7009TIP3   OH245221   4.331   5.830  10.198  0.3753 -0.4648 -0.0924
 7009TIP3    H145222   4.268   5.809  10.130 -0.7292 -1.6496  1.2257
 7009TIP3    H245223   4.364   5.917  10.175 -1.8725  0.2785 -0.7340
 7010TIP3   OH245224   2.397   1.257  11.971 -0.2698 -0.1175 -0.0380
 7010TIP3    H145225   2.344   1.179  11.955 -0.3913 -0.0054 -0.1843
 7010TIP3    H245226   2.334   1.329  11.971 -0.0709  0.0622 -0.5815
 7011TIP3   OH245227   1.327   2.280  12.179 -0.5132 -0.6031 -0.0759
 7011TIP3    H145228   1.314   2.375  12.181  0.9272 -0.3974  1.2889
 7011TIP3    H245229   1.239   2.244  12.170 -0.9512  0.8627 -2.6977
 7012TIP3   OH245230   1.726   4.133  11.240 -0.7012  0.1746  0.0755
 7012TIP3    H145231   1.677   4.196  11.293  0.4780 -0.2857  1.8133
 7012TIP3    H245232   1.818   4.156  11.255 -0.3098 -0.6375 -0.9805
 7013TIP3   OH245233   1.685   5.498  12.023 -1.2587 -0.0327  0.9773
 7013TIP3    H145234   1.624   5.424  12.025  0.4766 -1.5450  0.4836
 7013TIP3    H245235   1.743   5.484  12.097  0.2591 -0.2476 -0.2018
 7014TIP3   OH245236   1.768   2.474  10.193 -0.1564  0.6645  0.4300
 7014TIP3    H145237   1.753   2.382  10.171 -1.5425  1.0178 -0.1483
 7014TIP3    H245238   1.690   2.520  10.163  0.3944  2.0059  0.9591
 7015TIP3   OH245239   0.443   7.128  10.511 -0.3437 -0.4559  0.4472
 7015TIP3    H145240   0.413   7.071  10.582 -3.0660  0.8621  0.4713
 7015TIP3    H245241   0.498   7.193  10.554  0.1311 -1.1618  0.9281
 7016TIP3   OH245242   0.557   5.597  10.767 -0.0262 -0.3941  0.2594
 7016TIP3    H145243   0.581   5.505  10.757 -0.5026 -0.4907 -0.0087
 7016TIP3    H245244   0.579   5.618  10.858  0.0276 -0.7887  0.3375
 7017TIP3   OH245245   6.184   6.167  11.368 -0.1538  0.0936  0.2527
 7017TIP3    H145246   6.246   6.097  11.391  2.3609  2.1587  0.2272
 7017TIP3    H245247   6.188   6.228  11.441 -0.1641  1.5526 -0.9180
 7018TIP3   OH245248   2.385   4.495  10.073 -0.3490  0.4801 -0.4271
 7018TIP3    H145249   2.359   4.582  10.105 -0.9245  0.2907 -0.3783
 7018TIP3    H245250   2.326   4.434  10.117 -0.6569  0.1545 -1.2775
 7019TIP3   OH245251   3.005   2.338  11.770  0.2731 -0.1498  0.5198
 7019TIP3    H145252   2.970   2.336  11.859  0.4444  0.2695  0.6000
 7019TIP3    H245253   3.012   2.431  11.749  0.8578 -0.2337  0.3198
 7020TIP3   OH245254   4.149   2.368  11.356 -0.4574  0.2592  0.0865
 7020TIP3    H145255   4.079   2.431  11.376  0.6642  1.0442  1.7140
 7020TIP3    H245256   4.228   2.421  11.352  0.0815 -0.6094 -1.8142
 7021TIP3   OH245257   3.767   5.616  12.364 -0.3693 -0.0711  0.5637
 7021TIP3    H145258   3.731   5.529  12.350  0.2120 -0.3021  0.4835
 7021TIP3    H245259   3.692   5.669  12.392 -0.8619 -0.4309 -0.0439
 7022TIP3   OH245260   4.799   5.368   9.814 -0.1039 -0.2423  0.1915
 7022TIP3    H145261   4.893   5.350   9.809 -0.0782 -0.0448 -0.0854
 7022TIP3    H245262   4.764   5.295   9.865  0.2599 -0.0915  0.6610
 7023TIP3   OH245263   3.348   0.440  12.901 -0.4055 -0.1121  0.3735
 7023TIP3    H145264   3.379   0.361  12.945  1.0431  0.3684  0.3023
 7023TIP3    H245265   3.342   0.414  12.809  2.3489  0.3931 -0.0511
 7024TIP3   OH245266   5.262   0.865  11.991  0.1583  0.1890 -0.0274
 7024TIP3    H145267   5.257   0.840  11.898  0.6260 -1.0726  0.2616
 7024TIP3    H245268   5.301   0.789  12.034 -1.6790  0.0197  1.4891
 7025TIP3   OH245269   3.765   6.054  10.998  0.0719 -0.5883  0.2017
 7025TIP3    H145270   3.714   6.048  10.917 -0.6634  1.7192  0.4228
 7025TIP3    H245271   3.720   6.121  11.050  2.3634  0.3299  1.1476
 7026TIP3   OH245272   7.109   2.190  10.625 -0.6154  0.8583 -0.1333
 7026TIP3    H145273   7.138   2.188  10.534 -0.3560  0.7159 -0.0499
 7026TIP3    H245274   7.044   2.120  10.632 -1.3503  1.4994 -0.4423
 7027TIP3   OH245275   5.570   0.630  10.146 -0.2763  0.0156 -0.6616
 7027TIP3    H145276   5.618   0.550  10.123  0.6203  0.5268 -0.6307
 7027TIP3    H245277   5.638   0.696  10.156 -0.9685  0.6658 -0.1699
 7028TIP3   OH245278   5.854   3.308  11.005  0.0484 -0.2486  0.3382
 7028TIP3    H145279   5.804   3.327  11.084  0.3826  0.3049  0.4227
 7028TIP3    H245280   5.808   3.356  10.936 -0.4020 -0.9511  0.1414
 7029TIP3   OH245281   4.474   6.221  11.743 -0.1998  0.3334  0.7345
 7029TIP3    H145282   4.533   6.287  11.778 -0.1660 -0.4238  2.2008
 7029TIP3    H245283   4.515   6.138  11.766 -0.9487 -0.2011  0.1846
 7030TIP3   OH245284   7.485   2.051  11.343  0.3404  0.4469 -0.2219
 7030TIP3    H145285   7.472   2.146  11.342 -0.3347  0.3901  1.0449
 7030TIP3    H245286   7.548   2.037  11.414  1.2045  0.0165 -1.0571
 7031TIP3   OH245287   0.220   6.076  11.003 -0.1327  0.4674  0.1346
 7031TIP3    H145288   0.166   6.146  11.039  0.3536  1.6084 -1.2570
 7031TIP3    H245289   0.183   6.060  10.916 -0.1802 -0.9586  0.4031
 7032TIP3   OH245290   3.289   1.191  10.821  0.4697 -0.0958 -0.2008
 7032TIP3    H145291   3.311   1.138  10.743 -1.1558  0.3902 -1.0405
 7032TIP3    H245292   3.278   1.127  10.891  1.4248 -0.5906 -0.4777
 7033TIP3   OH245293   2.679   0.862  12.139  0.5731  0.0988 -0.2593
 7033TIP3    H145294   2.653   0.778  12.100 -1.1278 -0.7872  2.5156
 7033TIP3    H245295   2.719   0.910  12.066  1.8225 -3.1368 -1.9556
 7034TIP3   OH245296   3.341   0.413  10.316  0.5434 -0.2840 -0.5058
 7034TIP3    H145297   3.313   0.504  10.312 -1.5910 -0.8342  0.2516
 7034TIP3    H245298   3.436   0.417  10.327  0.2934  1.9164  1.8681
 7035TIP3   OH245299   1.079   7.074  10.719 -0.2988  0.0505  0.3184
 7035TIP3    H145300   1.050   7.139  10.783 -0.9355 -0.4764  0.5723
 7035TIP3    H245301   1.168   7.101  10.697 -0.5102  0.9355  0.5121
 7036TIP3   OH245302   0.978   5.459  12.435 -0.0410 -0.5333  0.1137
 7036TIP3    H145303   0.923   5.389  12.400 -0.3797 -0.0267 -0.4054
 7036TIP3    H245304   1.067   5.434  12.411 -0.2207 -0.4513 -0.7037
 7037TIP3   OH245305   0.366   1.554  10.109 -0.2083 -0.7867  0.5910
 7037TIP3    H145306   0.330   1.568  10.197  0.2935 -0.8774  0.8200
 7037TIP3    H245307   0.293   1.569  10.050 -0.6450 -1.0896  1.0455
 7038TIP3   OH245308   1.672   7.579  16.694 -0.2772  0.4408 -0.4069
 7038TIP3    H145309   1.653   7.582  16.601 -0.6108 -0.6225 -0.3867
 7038TIP3    H245310   1.611   7.514  16.729  1.0933 -0.5631  0.2315
 7039TIP3   OH245311   1.486   5.422  11.634  0.4881  0.3853  0.0319
 7039TIP3    H145312   1.419   5.431  11.702 -1.2003  3.1625 -1.7789
 7039TIP3    H245313   1.498   5.327  11.624 -2.8088 -0.2431  0.8428
 7040TIP3   OH245314   6.802   4.531  12.267 -0.5586  0.1420 -0.3453
 7040TIP3    H145315   6.880   4.479  12.249 -0.5574  0.0865 -0.1755
 7040TIP3    H245316   6.833   4.607  12.315 -0.9195 -1.1657  2.1048
 7041TIP3   OH245317   6.379   1.455  10.991  0.0514 -0.2638 -0.7443
 7041TIP3    H145318   6.468   1.478  11.019  0.2105  1.1150 -2.2488
 7041TIP3    H245319   6.333   1.437  11.072  0.9690  1.7660  0.3040
 7042TIP3   OH245320   5.237   0.902  12.889 -0.0226 -0.3297  0.2204
 7042TIP3    H145321   5.195   0.988  12.893  0.2573 -0.2417  2.7712
 7042TIP3    H245322   5.175   0.847  12.841 -1.2237  0.7618  0.4561
 7043TIP3   OH245323   3.855   2.092  11.471 -0.2701 -0.3962  0.4113
 7043TIP3    H145324   3.849   1.997  11.472 -0.1895 -0.4372 -1.0702
 7043TIP3    H245325   3.838   2.116  11.380  1.8690  0.8444  0.2750
 7044TIP3   OH245326   6.101   2.049  11.678 -0.3512  0.5338  0.1274
 7044TIP3    H145327   6.185   2.064  11.721 -1.3652  1.5080  1.8849
 7044TIP3    H245328   6.122   1.995  11.602  1.6761 -0.3656  1.2564
 7045TIP3   OH245329   6.434   6.472  10.743  0.3057 -0.2541  0.7807
 7045TIP3    H145330   6.486   6.432  10.673 -1.2523 -1.6655  0.3582
 7045TIP3    H245331   6.493   6.473  10.819  1.8299  0.7709 -0.3609
 7046TIP3   OH245332   5.793   6.261  10.519  0.2365  0.3524 -0.1305
 7046TIP3    H145333   5.806   6.284  10.427 -0.6159 -0.5939 -0.4967
 7046TIP3    H245334   5.864   6.306  10.565 -0.0370  1.8227 -1.0930
 7047TIP3   OH245335   5.092   0.274  11.225  0.1212  0.0323 -0.3066
 7047TIP3    H145336   5.183   0.298  11.209  0.3322 -1.2344 -1.1409
 7047TIP3    H245337   5.077   0.197  11.171 -0.9192 -0.8802  1.1885
 7048TIP3   OH245338   2.734   0.615  11.740  0.5846  0.0779 -0.4411
 7048TIP3    H145339   2.756   0.534  11.787 -0.3886  0.2958  0.4201
 7048TIP3    H245340   2.794   0.680  11.774 -0.0488  0.2116  0.4646
 7049TIP3   OH245341   5.644   0.477  11.018  0.2715  0.2469 -0.0544
 7049TIP3    H145342   5.677   0.403  11.068  0.1712  0.6797  0.6665
 7049TIP3    H245343   5.704   0.483  10.943 -0.2347 -1.0823 -0.5929
 7050TIP3   OH245344   5.809   1.297  11.831  0.0785  0.3823  0.2257
 7050TIP3    H145345   5.747   1.317  11.901 -0.0594 -0.2036  0.2803
 7050TIP3    H245346   5.763   1.235  11.774  0.2988  0.6217 -0.2193
 7051TIP3   OH245347   4.348   0.835  10.227 -0.1886  0.6166  0.1044
 7051TIP3    H145348   4.396   0.755  10.205 -0.8527  0.1921  0.1380
 7051TIP3    H245349   4.340   0.882  10.144  2.5657  2.0237  0.5373
 7052TIP3   OH245350   1.336   3.180  10.777  0.4590  0.4605  0.2016
 7052TIP3    H145351   1.259   3.166  10.832  0.1148  2.1214  0.1933
 7052TIP3    H245352   1.349   3.275  10.779  1.8578  0.3042 -0.6827
 7053TIP3   OH245353   5.070   2.350  10.059  0.2114  0.0795  0.4679
 7053TIP3    H145354   5.100   2.297  10.132 -2.4851 -2.1261  0.1635
 7053TIP3    H245355   5.015   2.418  10.099 -0.4178 -0.4860  0.5744
 7054TIP3   OH245356   3.446   7.096  10.257  0.1449 -0.2723 -0.0393
 7054TIP3    H145357   3.499   7.107  10.178  0.1313  1.7890  0.1831
 7054TIP3    H245358   3.401   7.180  10.267 -0.3918 -0.7380  1.7757
 7055TIP3   OH245359   0.994   1.932  12.123 -0.4375 -0.4568  0.0253
 7055TIP3    H145360   1.007   1.916  12.030 -1.2172  0.2519 -0.2099
 7055TIP3    H245361   1.023   1.850  12.165  1.0561 -0.3536 -0.7283
 7056TIP3   OH245362   2.425   1.270  12.231  0.4791 -0.3500 -0.0993
 7056TIP3    H145363   2.412   1.256  12.138  1.0290  0.5896 -0.3294
 7056TIP3    H245364   2.501   1.216  12.254  1.4468  0.7545 -0.5892
 7057TIP3   OH245365   3.984   5.748  12.387 -0.6519 -0.1392 -0.6360
 7057TIP3    H145366   3.895   5.714  12.377 -0.4877 -0.3967 -1.3108
 7057TIP3    H245367   3.975   5.842  12.374 -1.1887  0.1911  1.7410
 7058TIP3   OH245368   6.491   0.417  12.032 -0.5067 -0.2430  0.3686
 7058TIP3    H145369   6.437   0.414  12.111  0.4609 -1.5899  1.0179
 7058TIP3    H245370   6.579   0.434  12.064  0.3281 -3.1421 -0.1212
 7059TIP3   OH245371   4.314   2.668  11.191  0.0997 -0.5719  0.4794
 7059TIP3    H145372   4.357   2.623  11.264  2.8947 -0.8000 -1.1858
 7059TIP3    H245373   4.291   2.754  11.227  0.2749 -1.1125  1.9625
 7060TIP3   OH245374   7.590   6.534  10.075 -0.2947  0.2092 -0.1418
 7060TIP3    H145375   7.495   6.527  10.069 -0.2525 -0.4514 -0.0110
 7060TIP3    H245376   7.604   6.616  10.123 -0.8178 -0.2574  0.8396
 7061TIP3   OH245377   5.954   6.895  10.954 -0.7793  0.6235  0.0518
 7061TIP3    H145378   6.015   6.867  10.886 -0.7852  0.2711  0.1871
 7061TIP3    H245379   5.870   6.857  10.927 -0.7515  0.3628  0.3282
 7062TIP3   OH245380   1.059   2.730  10.708  0.2850  0.1941 -0.3089
 7062TIP3    H145381   1.095   2.742  10.796 -2.2852  1.9051  0.6107
 7062TIP3    H245382   1.088   2.808  10.660  2.1693 -1.0138 -1.2257
 7063TIP3   OH245383   5.558   6.577   9.805  0.2715  0.1122  0.3373
 7063TIP3    H145384   5.494   6.595   9.737  1.0341  0.7715 -0.2231
 7063TIP3    H245385   5.519   6.507   9.857 -0.9571  0.6004  0.0971
 7064TIP3   OH245386   7.255   7.422  11.033  0.1381  0.7875 -0.3348
 7064TIP3    H145387   7.347   7.395  11.039  0.0400 -0.1350 -2.2949
 7064TIP3    H245388   7.218   7.397  11.118  0.9625 -1.8376 -0.6485
 7065TIP3   OH245389   5.350   4.142  11.772  0.4039  0.7078  0.0534
 7065TIP3    H145390   5.311   4.116  11.689  0.9338  0.9926 -0.2845
 7065TIP3    H245391   5.300   4.093  11.838 -0.0820  0.5576 -0.4196
 7066TIP3   OH245392   0.773   6.401  11.280  0.1473  0.2867 -0.1257
 7066TIP3    H145393   0.758   6.473  11.220  0.2378 -1.1403 -1.9497
 7066TIP3    H245394   0.780   6.324  11.224  1.3490 -0.9720  1.6354
 7067TIP3   OH245395   3.108   3.893  12.124 -0.0469 -0.3364  0.5826
 7067TIP3    H145396   3.150   3.952  12.186 -0.0864  0.3567 -0.0389
 7067TIP3    H245397   3.177   3.831  12.099  0.5944  0.7163 -0.3358
 7068TIP3   OH245398   1.111   5.263  12.184  0.3395 -0.0821 -0.4053
 7068TIP3    H145399   1.157   5.183  12.206 -1.0776 -0.5211  1.1625
 7068TIP3    H245400   1.155   5.331  12.236  1.4289  0.1622 -1.6029
 7069TIP3   OH245401   4.887   3.660  10.020  0.0173  0.4119  0.2294
 7069TIP3    H145402   4.864   3.591  10.082  0.2056  0.2269  0.0945
 7069TIP3    H245403   4.837   3.736  10.049  1.1192  0.7183  1.4181
 7070TIP3   OH245404   2.321   0.407  10.064  0.1129 -0.2063 -0.2492
 7070TIP3    H145405   2.249   0.467  10.085  0.1235 -0.3959  0.3483
 7070TIP3    H245406   2.333   0.416   9.970  0.3103  0.9559 -0.1307
 7071TIP3   OH245407   2.567   3.052  11.154 -0.3313 -0.7723 -0.0972
 7071TIP3    H145408   2.661   3.060  11.137 -0.5595  1.0234 -0.7049
 7071TIP3    H245409   2.555   2.960  11.176  1.1096 -1.7623 -2.9109
 7072TIP3   OH245410   6.192   6.714  10.068  0.2158  0.0349  0.5336
 7072TIP3    H145411   6.166   6.684  10.155 -0.9229 -0.0597  0.1729
 7072TIP3    H245412   6.283   6.742  10.079 -0.2651  1.1749  2.0604
 7073TIP3   OH245413   1.222   0.068  11.529  0.1664  0.0667  0.0971
 7073TIP3    H145414   1.226   0.159  11.558  0.0275 -0.3688  1.5593
 7073TIP3    H245415   1.240   0.017  11.608  1.4381 -1.1683 -0.9323
 7074TIP3   OH245416   3.895   4.498  10.360  0.7130 -0.3995  0.3937
 7074TIP3    H145417   3.837   4.565  10.397  0.5729 -0.0901 -0.3785
 7074TIP3    H245418   3.921   4.533  10.275  1.2490 -0.9860  0.3074
 7075TIP3   OH245419   3.536   2.110  11.619  0.0762 -0.3100  0.0355
 7075TIP3    H145420   3.626   2.090  11.641  0.5892  1.1825 -0.5741
 7075TIP3    H245421   3.489   2.027  11.629  1.4901 -1.0783  0.4408
 7076TIP3   OH245422   7.072   5.370  10.825  0.0973  0.3471  0.0410
 7076TIP3    H145423   7.048   5.374  10.918 -3.0937  0.3035 -0.6984
 7076TIP3    H245424   7.076   5.276  10.806 -2.7084  0.2838 -0.5851
 7077TIP3   OH245425   4.840   3.601  11.852 -0.4577 -0.1768  0.6021
 7077TIP3    H145426   4.915   3.619  11.796 -1.1236  1.2181  0.1055
 7077TIP3    H245427   4.865   3.524  11.903  0.8064 -0.4745 -0.4349
 7078TIP3   OH245428   4.863   0.834  11.750  0.1243 -0.2703  0.5100
 7078TIP3    H145429   4.838   0.746  11.779 -2.3050 -0.4624 -1.7648
 7078TIP3    H245430   4.931   0.818  11.684  0.6805 -0.3107  1.0815
 7079TIP3   OH245431   7.514   3.109  12.131 -0.5210 -0.0436  0.2634
 7079TIP3    H145432   7.502   3.201  12.156  0.3899  0.1662 -0.0316
 7079TIP3    H245433   7.558   3.113  12.046 -0.3531 -0.7478  0.3143
 7080TIP3   OH245434   4.440   5.722  10.789  0.4951  0.1239 -0.0301
 7080TIP3    H145435   4.360   5.678  10.819 -0.8219  2.1616 -0.3776
 7080TIP3    H245436   4.506   5.697  10.854 -0.0774 -2.5320 -0.3657
 7081TIP3   OH245437   5.588   7.411  11.733 -0.1063 -0.3073 -0.4285
 7081TIP3    H145438   5.593   7.473  11.661 -0.4358  0.6547  0.3589
 7081TIP3    H245439   5.651   7.443  11.797 -1.9324  0.6346  1.0190
 7082TIP3   OH245440   5.942   1.002  11.260  0.5890  0.4197  0.3119
 7082TIP3    H145441   6.026   1.048  11.249  0.4615  1.3156  2.5392
 7082TIP3    H245442   5.949   0.961  11.346 -0.5311 -1.1662 -0.3168
 7083TIP3   OH245443   3.198   2.415  12.171 -0.0963 -0.0794 -1.0925
 7083TIP3    H145444   3.249   2.495  12.184 -0.5772  0.0032  0.4260
 7083TIP3    H245445   3.247   2.347  12.218 -2.4454  0.4428  2.4321
 7084TIP3   OH245446   1.191   6.155  10.598  0.0811 -0.1767  0.2445
 7084TIP3    H145447   1.208   6.180  10.507  0.0465 -1.2700 -0.0732
 7084TIP3    H245448   1.113   6.205  10.623 -1.3018 -1.5553 -1.0822
 7085TIP3   OH245449   0.147   5.504  10.914 -0.0026 -1.1875 -0.8772
 7085TIP3    H145450   0.176   5.574  10.856 -1.4287  0.6041  0.4576
 7085TIP3    H245451   0.213   5.502  10.983 -1.8075  1.6453  1.1769
 7086TIP3   OH245452   5.269   6.977  12.042  0.4123  0.6646  0.0451
 7086TIP3    H145453   5.173   6.973  12.052  0.4841 -1.8553  0.3089
 7086TIP3    H245454   5.302   6.913  12.105  2.1820  0.3411 -1.1634
 7087TIP3   OH245455   5.447   3.173  10.249 -0.2932  0.2332 -0.3903
 7087TIP3    H145456   5.392   3.181  10.327 -0.0651 -0.8242 -0.1155
 7087TIP3    H245457   5.424   3.250  10.197 -0.6581  0.8080  0.5761
 7088TIP3   OH245458   3.256   6.879  12.171  0.2380  0.0734 -0.0849
 7088TIP3    H145459   3.275   6.793  12.210  0.3705  0.2230  0.1819
 7088TIP3    H245460   3.187   6.861  12.107 -0.0220 -0.1675  0.2563
 7089TIP3   OH245461   2.805   7.002  12.014  0.0762 -0.0435  0.1067
 7089TIP3    H145462   2.848   7.087  12.013 -0.2936  0.1524  0.5836
 7089TIP3    H245463   2.740   7.008  12.085 -1.3703 -0.0081 -1.1677
 7090TIP3   OH245464   5.877   4.691  10.567 -0.7408  0.0586 -0.4481
 7090TIP3    H145465   5.806   4.702  10.504 -0.7091  1.3018 -0.2869
 7090TIP3    H245466   5.956   4.707  10.516 -0.6204 -0.5052 -0.4428
 7091TIP3   OH245467   2.036   7.529  12.772 -0.2571 -0.3083 -0.1640
 7091TIP3    H145468   1.994   7.538  12.686  0.7217 -0.1964 -0.6381
 7091TIP3    H245469   1.993   7.596  12.826 -0.0371  0.4669 -0.9140
 7092TIP3   OH245470   7.299   2.827  11.553  0.2050 -0.4581  0.1609
 7092TIP3    H145471   7.277   2.874  11.634  1.2792 -0.9223  0.7366
 7092TIP3    H245472   7.385   2.859  11.529  0.3751 -1.1556 -0.1777
 7093TIP3   OH245473   2.492   5.082  12.407 -0.2704 -0.1276 -0.0398
 7093TIP3    H145474   2.514   4.990  12.423  0.4652  0.3376  1.8919
 7093TIP3    H245475   2.424   5.102  12.471  0.2984  0.9319  0.2515
 7094TIP3   OH245476   2.782   2.165  12.706 -0.0892  0.1721  0.4707
 7094TIP3    H145477   2.851   2.118  12.754  0.2449  1.4030  1.2599
 7094TIP3    H245478   2.744   2.223  12.772  0.7678  2.3319 -0.8452
 7095TIP3   OH245479   0.010   1.313  11.799  0.3128 -1.0331 -0.0886
 7095TIP3    H145480   0.027   1.297  11.892 -1.8007  0.3097  0.6040
 7095TIP3    H245481   0.089   1.357  11.767  0.0164  1.0982  1.8392
 7096TIP3   OH245482   4.712   6.019  10.012  0.6604  0.5008 -0.2678
 7096TIP3    H145483   4.701   5.933  10.052  0.6076  1.0149  0.8362
 7096TIP3    H245484   4.629   6.037   9.968  0.3875  0.3454  0.1896
 7097TIP3   OH245485   0.782   1.618  10.434 -0.2577 -0.6560 -0.1609
 7097TIP3    H145486   0.873   1.618  10.403 -0.6694 -0.7829 -1.4403
 7097TIP3    H245487   0.767   1.527  10.461  0.0165 -0.6220  0.1063
 7098TIP3   OH245488   2.014   0.803  12.993  0.2118  0.2239 -0.0231
 7098TIP3    H145489   1.959   0.844  12.926 -0.2806  0.5568  0.5710
 7098TIP3    H245490   2.093   0.777  12.947 -0.6282 -0.7019 -1.0110
 7099TIP3   OH245491   1.614   7.340  10.624  0.1089  0.6193  0.5908
 7099TIP3    H145492   1.530   7.359  10.583  0.4367  1.5832  0.3179
 7099TIP3    H245493   1.674   7.326  10.550  0.3373  0.6413  0.7714
 7100TIP3   OH245494   0.364   3.948  11.359 -0.1873 -0.1587 -0.1658
 7100TIP3    H145495   0.411   3.874  11.321  0.7299  1.1599 -1.7500
 7100TIP3    H245496   0.340   4.002  11.283 -0.1584  1.5407  0.9901
 7101TIP3   OH245497   4.115   7.325  10.129  0.4842  0.6438  0.3371
 7101TIP3    H145498   4.200   7.284  10.111 -0.3484 -0.9218 -0.2269
 7101TIP3    H245499   4.060   7.254  10.160 -0.9944  1.3659 -0.5147
 7102TIP3   OH245500   4.036   3.939  10.401 -0.3422 -0.0881 -0.1583
 7102TIP3    H145501   4.037   3.895  10.315  1.0645 -0.3099 -0.0449
 7102TIP3    H245502   4.075   4.024  10.385 -2.6123  1.0212 -0.2655
 7103TIP3   OH245503   1.076   3.299  10.723 -0.2767  0.1247 -0.1337
 7103TIP3    H145504   1.078   3.309  10.628 -2.9378  1.2623 -0.1715
 7103TIP3    H245505   1.120   3.377  10.757  2.4747 -1.2316 -0.3419
 7104TIP3   OH245506   2.819   2.855  10.251  0.0876  0.6607 -0.1658
 7104TIP3    H145507   2.815   2.926  10.187  0.7366  1.4023  0.5866
 7104TIP3    H245508   2.759   2.883  10.321  1.1997  1.0388  0.6650
 7105TIP3   OH245509   0.491   2.690  11.252 -0.6234 -0.5099  0.2220
 7105TIP3    H145510   0.415   2.667  11.198 -1.4005  1.5603  0.3450
 7105TIP3    H245511   0.566   2.653  11.205 -1.5123 -0.7856 -1.0303
 7106TIP3   OH245512   0.818   3.836  11.650  0.6652 -0.4909  0.1185
 7106TIP3    H145513   0.745   3.884  11.689 -0.2994 -0.9634 -1.0623
 7106TIP3    H245514   0.782   3.752  11.624  1.9295 -1.2102  0.5810
 7107TIP3   OH245515   1.917   7.002  12.136 -0.2215 -0.2171 -0.0957
 7107TIP3    H145516   1.876   6.929  12.182 -1.0108 -0.5456 -1.2600
 7107TIP3    H245517   1.950   6.964  12.055  1.5814  0.2427  0.3672
 7108TIP3   OH245518   2.945   0.180  11.184  0.4257  0.1383  0.3636
 7108TIP3    H145519   2.907   0.257  11.227  2.9628  2.0676 -0.6267
 7108TIP3    H245520   2.913   0.106  11.236 -1.8485  1.8445  1.5694
 7109TIP3   OH245521   2.521   6.031  10.821  0.7259  0.2245 -0.9020
 7109TIP3    H145522   2.431   6.053  10.845  0.8391 -0.3633  0.1186
 7109TIP3    H245523   2.566   6.116  10.815  0.9488  0.4262  2.1344
 7110TIP3   OH245524   0.479   0.310  11.563  0.6840  0.6091  0.1161
 7110TIP3    H145525   0.491   0.367  11.639  1.4538  1.4406 -0.6000
 7110TIP3    H245526   0.545   0.242  11.573  0.8442  0.7683  0.1540
 7111TIP3   OH245527   7.086   5.089  10.751  0.1499  0.3152 -0.4333
 7111TIP3    H145528   7.070   5.011  10.803  0.4200  0.3139 -0.3511
 7111TIP3    H245529   7.177   5.082  10.724  0.1187  0.5032 -0.5914
 7112TIP3   OH245530   0.977   2.663  11.340 -0.2300  0.2974 -0.5637
 7112TIP3    H145531   0.982   2.695  11.430 -2.8827 -1.1308  0.2017
 7112TIP3    H245532   0.992   2.740  11.286  0.1151  1.4497  1.1161
 7113TIP3   OH245533   1.072   7.490  10.501 -0.1895 -0.0069  0.0352
 7113TIP3    H145534   1.092   7.511  10.410 -1.1872 -0.8637 -0.4048
 7113TIP3    H245535   0.977   7.480  10.503 -0.1807 -0.0531  1.1690
 7114TIP3   OH245536   5.153   4.774  11.428  0.3482 -0.4109 -0.7347
 7114TIP3    H145537   5.185   4.694  11.387  0.7865 -0.2208 -0.7649
 7114TIP3    H245538   5.224   4.837  11.418  0.5215 -0.3937  0.4240
 7115TIP3   OH245539   0.358   2.427  10.651  0.1488 -0.1960 -0.2990
 7115TIP3    H145540   0.354   2.339  10.613 -0.0986 -0.0976 -0.5039
 7115TIP3    H245541   0.316   2.483  10.586  1.3195  0.2644 -0.6969
 7116TIP3   OH245542   3.754   7.076  10.885 -0.5466 -0.5403 -0.6938
 7116TIP3    H145543   3.737   7.069  10.791 -1.4597  2.1549 -0.8175
 7116TIP3    H245544   3.690   7.140  10.917 -1.0109 -2.1801  2.0235
 7117TIP3   OH245545   7.054   3.536  11.343 -0.1881  0.5933 -0.3526
 7117TIP3    H145546   7.048   3.585  11.425  0.4025 -0.1829  0.1598
 7117TIP3    H245547   7.137   3.564  11.305 -0.3335  0.7461 -0.5632
 7118TIP3   OH245548   4.058   7.374  10.643 -0.4137  0.2132  0.8497
 7118TIP3    H145549   3.965   7.393  10.627 -0.3842  0.8061  1.3446
 7118TIP3    H245550   4.100   7.460  10.645  0.1866 -0.0686  0.4097
 7119TIP3   OH245551   7.593   2.318  10.224 -0.1794 -0.6209 -0.1543
 7119TIP3    H145552   7.555   2.230  10.225 -0.2814 -0.5784  0.3587
 7119TIP3    H245553   7.579   2.351  10.313 -0.2723 -0.0285 -0.3807
 7120TIP3   OH245554   5.149   4.451  11.415  0.3437 -0.1877  0.4605
 7120TIP3    H145555   5.236   4.446  11.454  0.5564  1.1022  0.1842
 7120TIP3    H245556   5.159   4.409  11.329  1.0500  1.0870 -0.1219
 7121TIP3   OH245557   1.207   0.983  11.520 -0.0442 -0.7128 -1.0769
 7121TIP3    H145558   1.264   0.962  11.594  0.5959 -1.5664 -1.7865
 7121TIP3    H245559   1.211   1.078  11.512 -0.3037 -0.5892  0.1180
 7122TIP3   OH245560   1.333   1.329  10.817  0.0020 -0.4710 -0.4012
 7122TIP3    H145561   1.415   1.279  10.821 -0.0291 -0.4669  0.7463
 7122TIP3    H245562   1.360   1.420  10.805  0.1283 -0.5551 -0.7683
 7123TIP3   OH245563   7.244   2.159  12.527 -0.0948  0.2524 -0.2540
 7123TIP3    H145564   7.162   2.109  12.528  0.7344 -1.1787  0.9106
 7123TIP3    H245565   7.244   2.205  12.611  0.2459  0.3329 -0.2993
 7124TIP3   OH245566   1.826   4.892  10.230 -0.0905  0.0489  0.6166
 7124TIP3    H145567   1.761   4.842  10.181  0.6153  0.4404 -0.7841
 7124TIP3    H245568   1.902   4.897  10.172  1.3021 -0.5633  2.2845
 7125TIP3   OH245569   7.671   5.645  10.033 -0.0742  0.5246  0.0475
 7125TIP3    H145570   7.743   5.583  10.033 -0.1013  0.3583  2.8744
 7125TIP3    H245571   7.600   5.601  10.080 -0.4109  2.2892  1.3270
 7126TIP3   OH245572   2.137   6.855  10.741  0.0906  0.5477  0.0201
 7126TIP3    H145573   2.161   6.790  10.675  0.3314  0.2175  0.4375
 7126TIP3    H245574   2.087   6.807  10.806 -1.9374  1.2546 -0.9373
 7127TIP3   OH245575   0.163   2.295  11.118  0.0521  0.2149 -0.7038
 7127TIP3    H145576   0.237   2.317  11.061 -0.5892  2.1564 -0.8490
 7127TIP3    H245577   0.086   2.313  11.065 -0.5748  2.3471  0.8123
 7128TIP3   OH245578   1.726   6.407  11.847 -0.3855 -0.1683 -0.2304
 7128TIP3    H145579   1.807   6.430  11.801 -1.5835  0.1628 -2.2848
 7128TIP3    H245580   1.656   6.431  11.787 -2.0847  0.2463  1.7784
 7129TIP3   OH245581   6.139   7.468  12.092 -0.7228 -0.4706 -0.3762
 7129TIP3    H145582   6.148   7.523  12.170 -1.4058 -0.1177 -0.5392
 7129TIP3    H245583   6.065   7.411  12.112 -3.1284  1.8464 -2.0227
 7130TIP3   OH245584   1.278   0.549  10.721 -0.4382  0.0469  0.1763
 7130TIP3    H145585   1.295   0.606  10.796  0.8587 -0.6301  0.4309
 7130TIP3    H245586   1.365   0.523  10.691 -0.9151 -3.6280  1.5021
 7131TIP3   OH245587   6.173   2.319  10.242 -0.0281  0.8544 -0.3781
 7131TIP3    H145588   6.188   2.268  10.163  2.3732  0.8800  0.0002
 7131TIP3    H245589   6.197   2.409  10.217 -0.7456  1.1496 -0.0345
 7132TIP3   OH245590   4.265   0.789  10.839 -0.0614  0.0809  0.0606
 7132TIP3    H145591   4.179   0.830  10.850  0.6462  1.6138  0.0228
 7132TIP3    H245592   4.293   0.769  10.928 -0.6961 -0.9869  0.0419
 7133TIP3   OH245593   3.880   7.066  11.538  0.2256  0.5491 -0.0538
 7133TIP3    H145594   3.791   7.037  11.521  0.2345  0.1766  0.5115
 7133TIP3    H245595   3.902   7.122  11.464 -0.6786  1.1034  0.0872
 7134TIP3   OH245596   0.654   2.153  11.856 -0.1507  0.0198  0.3019
 7134TIP3    H145597   0.657   2.204  11.774  1.8875 -1.9840 -0.9670
 7134TIP3    H245598   0.728   2.185  11.907 -0.5806  0.2702  0.7863
 7135TIP3   OH245599   4.337   0.653  12.528  0.1209  0.1926  0.4317
 7135TIP3    H145600   4.418   0.604  12.515 -0.2078 -0.1310 -0.4899
 7135TIP3    H245601   4.318   0.645  12.621  0.5323 -0.7051  0.4423
 7136TIP3   OH245602   5.017   4.482  12.054  0.4703 -0.2754 -0.6621
 7136TIP3    H145603   5.099   4.504  12.098 -0.9120  2.5578  0.8102
 7136TIP3    H245604   5.011   4.387  12.059  2.9969 -0.4489  0.3635
 7137TIP3   OH245605   4.930   0.700  10.106 -0.4535 -0.8193  0.2725
 7137TIP3    H145606   4.975   0.650  10.174  0.3062 -1.8465 -0.9503
 7137TIP3    H245607   4.998   0.756  10.069 -0.4788 -1.4068 -0.6859
 7138TIP3   OH245608   3.423   2.923  11.166  0.4014  0.4553  1.3289
 7138TIP3    H145609   3.500   2.866  11.162 -1.8871 -2.8742  0.5531
 7138TIP3    H245610   3.396   2.933  11.075 -0.1680  1.4580  1.5988
 7139TIP3   OH245611   2.388   0.596  11.271  0.3646  0.4599 -0.6306
 7139TIP3    H145612   2.468   0.599  11.324 -0.0482  0.1553  0.0211
 7139TIP3    H245613   2.317   0.590  11.335 -0.0863 -1.1005 -1.2386
 7140TIP3   OH245614   4.592   2.012   9.955 -0.4444 -0.3891 -0.6049
 7140TIP3    H145615   4.605   1.918   9.969 -2.2371 -0.5724  0.1373
 7140TIP3    H245616   4.679   2.045   9.932  0.3294 -2.1324 -0.3665
 7141TIP3   OH245617   0.667   0.327  12.194  0.1697 -0.1238  0.1928
 7141TIP3    H145618   0.663   0.339  12.099  3.0578  0.1417  0.0111
 7141TIP3    H245619   0.675   0.416  12.229 -1.2385 -0.1955  0.7480
 7142TIP3   OH245620   0.030   5.331  12.870  0.5404  0.3174  0.0739
 7142TIP3    H145621  -0.002   5.246  12.900 -0.2431  1.1143  1.6017
 7142TIP3    H245622   0.020   5.328  12.774 -0.0177 -1.0781  0.1486
 7143TIP3   OH245623   0.362   3.179  11.813  0.4186  0.0232 -0.0230
 7143TIP3    H145624   0.307   3.102  11.825 -0.5597  0.8108  0.7648
 7143TIP3    H245625   0.450   3.144  11.800 -0.4449 -1.3777 -3.0941
 7144TIP3   OH245626   1.919   1.662  10.437  0.3554 -0.4290 -0.1393
 7144TIP3    H145627   1.992   1.690  10.492 -2.5794  1.8138  3.0052
 7144TIP3    H245628   1.862   1.613  10.495 -0.6815 -2.2497 -2.5290
 7145TIP3   OH245629   1.026   2.523  11.780 -0.2838  0.4641 -0.3221
 7145TIP3    H145630   1.071   2.452  11.735 -1.8355 -0.0732 -1.0919
 7145TIP3    H245631   1.093   2.560  11.838  0.9537 -0.6904 -0.9415
 7146TIP3   OH245632   5.615   1.036  11.435  0.6335 -0.2367  0.0975
 7146TIP3    H145633   5.674   1.111  11.425  1.3137 -0.1659  3.4777
 7146TIP3    H245634   5.664   0.962  11.401  0.3336  0.5937 -2.3733
 7147TIP3   OH245635   0.494   5.517  10.450 -0.9259  0.1377 -0.6289
 7147TIP3    H145636   0.540   5.599  10.469  0.3244 -1.0136  1.6053
 7147TIP3    H245637   0.508   5.503  10.356  1.2079  1.0752 -0.5014
 7148TIP3   OH245638   2.091   2.949  11.818  0.2269 -0.3126 -0.4435
 7148TIP3    H145639   2.133   2.877  11.866  0.5212  0.0621 -0.1370
 7148TIP3    H245640   2.139   3.027  11.845 -1.5969  0.3560  1.0270
 7149TIP3   OH245641   5.780   1.192  10.593 -0.2290  0.4183 -0.0933
 7149TIP3    H145642   5.792   1.267  10.651  1.1519  0.8948 -0.9517
 7149TIP3    H245643   5.868   1.173  10.559 -0.8516 -0.4042 -1.3366
 7150TIP3   OH245644   3.624   2.891  10.824  0.1445  0.1378 -0.0765
 7150TIP3    H145645   3.629   2.901  10.729 -0.5657  0.0553 -0.1290
 7150TIP3    H245646   3.697   2.944  10.857 -0.0819  0.8116 -0.6256
 7151TIP3   OH245647   0.192   2.608  10.486  0.3280  0.1902  0.3882
 7151TIP3    H145648   0.140   2.636  10.411 -1.2704  1.1589  1.7860
 7151TIP3    H245649   0.243   2.685  10.512  1.2301 -0.2707  0.0477
 7152TIP3   OH245650   0.815   0.765  10.674  0.0426 -0.1949  0.3035
 7152TIP3    H145651   0.741   0.715  10.640  0.8828 -1.6873  0.5792
 7152TIP3    H245652   0.893   0.716  10.646  0.8705  0.4359  1.4037
 7153TIP3   OH245653   0.556   0.623  10.614 -0.0676 -0.4966 -0.2433
 7153TIP3    H145654   0.473   0.581  10.590 -0.1940 -0.4727  0.1497
 7153TIP3    H245655   0.595   0.564  10.677  0.5423 -0.8485 -0.9323
 7154TIP3   OH245656   2.006   1.817  11.340  0.1035  0.0457  0.3080
 7154TIP3    H145657   2.078   1.757  11.357  1.1307  0.8175 -1.0790
 7154TIP3    H245658   2.040   1.877  11.273 -1.5641  0.9146  0.1810
 7155TIP3   OH245659   2.649   1.537  10.835  0.0762  0.5889 -0.6266
 7155TIP3    H145660   2.646   1.583  10.919 -4.2224 -3.8576  2.2096
 7155TIP3    H245661   2.708   1.463  10.851  0.4756  0.5458 -2.1659
 7156TIP3   OH245662   1.472   0.880  11.225 -0.6137  0.0362  0.4208
 7156TIP3    H145663   1.449   0.891  11.133 -1.7015 -0.7540  0.5742
 7156TIP3    H245664   1.564   0.907  11.230 -0.5073  0.0029 -0.9085
 7157TIP3   OH245665   2.405   6.964  11.437 -0.0734 -0.0120 -0.4874
 7157TIP3    H145666   2.413   7.030  11.505  1.2376  0.7500 -1.3330
 7157TIP3    H245667   2.495   6.941  11.414 -0.4784 -0.4750 -1.7299
 7158TIP3   OH245668   1.668   4.251  11.622  0.0255 -0.0430  0.0959
 7158TIP3    H145669   1.593   4.215  11.575  0.2143 -1.3083  0.7064
 7158TIP3    H245670   1.674   4.198  11.702  0.6545  1.0325  0.7869
 7159TIP3   OH245671   4.215   3.274  10.725 -0.2256  0.2890 -0.0936
 7159TIP3    H145672   4.210   3.230  10.640  0.3160 -1.0354  0.5410
 7159TIP3    H245673   4.280   3.225  10.774 -0.3009  1.2313  0.9943
 7160TIP3   OH245674   7.517   2.431  10.000 -0.5654 -0.0734  0.2149
 7160TIP3    H145675   7.539   2.401  10.088  1.4101 -0.2595 -0.2942
 7160TIP3    H245676   7.527   2.526  10.005  0.1534 -0.1376  0.0432
 7161TIP3   OH245677   0.745   3.292  10.745  0.3947 -0.2858 -0.5410
 7161TIP3    H145678   0.710   3.231  10.679  0.2434 -1.2430  0.4044
 7161TIP3    H245679   0.818   3.246  10.784  2.3961  1.4380 -2.0154
 7162TIP3   OH245680   6.934   4.227  11.469  0.0241 -0.6452 -1.2652
 7162TIP3    H145681   6.915   4.308  11.422  1.7136  0.1641 -0.6198
 7162TIP3    H245682   6.904   4.242  11.558  0.1978 -0.8105 -1.1780
 7163TIP3   OH245683   7.143   4.535  10.676 -0.0522  0.6948 -0.2665
 7163TIP3    H145684   7.184   4.461  10.631  1.2958  0.3595  1.4292
 7163TIP3    H245685   7.134   4.602  10.607 -0.4579 -0.6804 -1.6103
 7164TIP3   OH245686   4.906   6.015  12.234 -0.3646 -0.1460 -0.4046
 7164TIP3    H145687   4.999   6.036  12.222 -0.6700  1.0990 -0.7395
 7164TIP3    H245688   4.867   6.096  12.267 -1.3506 -0.6334 -0.3332
 7165TIP3   OH245689   0.667   2.647  11.034 -0.4530  0.4754 -0.1260
 7165TIP3    H145690   0.593   2.636  10.975 -0.1831  0.9673 -0.5606
 7165TIP3    H245691   0.682   2.560  11.071 -0.9172  0.2690 -0.4241
 7166TIP3   OH245692   4.654   4.983  12.100  0.4922  0.2181  0.4753
 7166TIP3    H145693   4.654   4.891  12.128 -1.0938 -0.3260 -1.1558
 7166TIP3    H245694   4.727   4.989  12.038  0.0238 -0.1815 -0.1200
 7167TIP3   OH245695   3.225   6.655  11.693  0.2969 -0.2548  0.3855
 7167TIP3    H145696   3.272   6.733  11.665 -0.5992 -0.2299 -1.1725
 7167TIP3    H245697   3.134   6.682  11.700  0.0751 -0.9960  0.4898
 7168TIP3   OH245698   3.223   1.555   9.879  0.4756 -0.3201 -0.3616
 7168TIP3    H145699   3.255   1.617   9.814  0.2772  0.7240  0.5048
 7168TIP3    H245700   3.301   1.529   9.928  0.6930 -1.4317 -1.2507
 7169TIP3   OH245701   1.990   2.564  11.757 -0.0323 -0.5861  0.7077
 7169TIP3    H145702   2.030   2.614  11.828 -0.1219 -0.4949  0.6946
 7169TIP3    H245703   1.897   2.584  11.763 -0.0314 -0.5220  0.5207
 7170TIP3   OH245704   3.388   0.219  10.855 -0.6307 -0.0831  0.7142
 7170TIP3    H145705   3.427   0.229  10.942  0.7997  0.1245  0.0692
 7170TIP3    H245706   3.443   0.154  10.811  0.3177  1.7532 -0.9576
 7171TIP3   OH245707   4.286   1.942  12.486 -0.2668 -0.7649 -0.4502
 7171TIP3    H145708   4.257   1.895  12.408 -1.1633 -1.0795  0.0573
 7171TIP3    H245709   4.360   1.890  12.519 -1.0166 -1.6469 -0.1017
 7172TIP3   OH245710   3.635   2.957  10.531 -0.1398 -0.0239 -0.4359
 7172TIP3    H145711   3.627   3.049  10.557 -0.5980  0.7894 -3.1270
 7172TIP3    H245712   3.606   2.956  10.439  1.1589 -2.6282 -0.8962
 7173TIP3   OH245713   1.537   5.603  11.442 -0.0957  0.0008  0.0856
 7173TIP3    H145714   1.536   5.545  11.518 -0.4910  0.9515  0.8294
 7173TIP3    H245715   1.444   5.620  11.424  0.0233  0.8250  0.2138
 7174TIP3   OH245716   1.777   4.613  10.458 -0.3354 -0.4675 -0.1878
 7174TIP3    H145717   1.824   4.551  10.513  0.1091  0.9654  1.0951
 7174TIP3    H245718   1.845   4.657  10.406 -0.5208 -0.2185 -0.2237
 7175TIP3   OH245719   5.631   2.074  10.434 -0.0255  0.0920  0.0248
 7175TIP3    H145720   5.657   2.016  10.363 -0.1466 -0.7553  0.6613
 7175TIP3    H245721   5.704   2.135  10.444  0.2248 -0.1278 -0.4622
 7176TIP3   OH245722   1.696   4.753  10.040  0.0796  0.0775 -0.6704
 7176TIP3    H145723   1.759   4.684  10.019  1.0627  1.8088 -4.3232
 7176TIP3    H245724   1.610   4.711  10.028  0.6381 -0.8265 -1.7587
 7177TIP3   OH245725   0.581   7.055  10.884  0.8488 -0.3081 -0.2554
 7177TIP3    H145726   0.617   7.018  10.964 -3.2987 -0.2145  1.9149
 7177TIP3    H245727   0.620   7.142  10.878  1.0340 -0.1934  1.9060
 7178TIP3   OH245728   4.407   7.095   9.876  0.4120 -0.0945 -0.1381
 7178TIP3    H145729   4.477   7.150   9.911  1.7441 -1.5792 -0.3639
 7178TIP3    H245730   4.439   7.006   9.886 -1.8140 -0.8936  0.5194
 7179TIP3   OH245731   5.646   0.699  10.754  0.2294  0.2613  0.1996
 7179TIP3    H145732   5.563   0.690  10.801  0.5171 -0.9423  0.5186
 7179TIP3    H245733   5.657   0.793  10.743 -2.0164  0.4255 -1.3760
 7180TIP3   OH245734   4.683   1.388  11.557 -0.5147 -0.1915 -0.0748
 7180TIP3    H145735   4.626   1.458  11.586  1.1826  0.7041  1.3171
 7180TIP3    H245736   4.746   1.431  11.498  0.0913 -0.6696  0.2035
 7181TIP3   OH245737   5.770   0.653  11.501 -0.2225  0.5275 -0.0804
 7181TIP3    H145738   5.748   0.578  11.557  0.1104 -0.3756 -1.1215
 7181TIP3    H245739   5.686   0.685  11.469 -0.2845 -0.3584 -0.8251
 7182TIP3   OH245740   6.836   3.969  11.230 -0.3106 -0.2339 -0.2470
 7182TIP3    H145741   6.780   4.040  11.198  0.1819  0.3579  0.1618
 7182TIP3    H245742   6.776   3.905  11.268 -0.7038  0.4941  0.3884
 7183TIP3   OH245743   6.370   0.533  10.262  0.6264  0.1487 -0.3387
 7183TIP3    H145744   6.398   0.442  10.252 -0.6162 -0.1363 -1.5541
 7183TIP3    H245745   6.415   0.563  10.341  0.3059 -1.8253  0.6713
 7184TIP3   OH245746   2.133   1.017   9.817  0.5782  0.2989 -0.2174
 7184TIP3    H145747   2.074   1.073   9.768  1.4961 -0.7745 -2.7318
 7184TIP3    H245748   2.218   1.027   9.774  1.4508 -0.7918  1.1254
 7185TIP3   OH245749   0.179   6.654  11.149  0.0187  0.6178  0.5226
 7185TIP3    H145750   0.139   6.663  11.235 -1.6161  1.4487 -0.2732
 7185TIP3    H245751   0.164   6.739  11.106  2.7796  1.0212  0.1876
 7186TIP3   OH245752   0.469   6.497  10.789 -0.0685  0.7277 -0.0413
 7186TIP3    H145753   0.481   6.565  10.723 -0.9819  1.5147  0.5734
 7186TIP3    H245754   0.379   6.508  10.819  0.4161  0.6046  1.5512
 7187TIP3   OH245755   2.764   2.539  12.066  0.4996 -0.3875 -0.1488
 7187TIP3    H145756   2.687   2.483  12.069  1.0234 -1.2822 -1.9571
 7187TIP3    H245757   2.746   2.600  11.995  1.4927 -0.6965 -0.6859
 7188TIP3   OH245758   2.448   4.999  10.346 -0.3058 -0.2149  0.2348
 7188TIP3    H145759   2.442   4.905  10.358  0.0618 -0.1024  1.4244
 7188TIP3    H245760   2.529   5.024  10.390 -1.0784  0.8312  1.1363
 7189TIP3   OH245761   0.425   2.977  10.726  0.7053  0.1085  0.2948
 7189TIP3    H145762   0.456   2.984  10.817  0.4333  2.5338  0.2687
 7189TIP3    H245763   0.331   2.993  10.732  0.3591 -1.4946 -0.2716
 7190TIP3   OH245764   3.534   1.032  12.665 -0.0665  0.3756 -0.3628
 7190TIP3    H145765   3.509   1.108  12.717 -0.1791 -1.2309  2.1106
 7190TIP3    H245766   3.625   1.014  12.690 -0.6579 -1.4338  0.6615
 7191TIP3   OH245767   1.841   6.945  10.797  0.4165  0.3242  0.0866
 7191TIP3    H145768   1.876   6.857  10.808 -0.7486 -0.3761 -1.3839
 7191TIP3    H245769   1.864   6.991  10.878  1.0197 -1.3264  0.8952
 7192TIP3   OH245770   2.389   1.570  10.771 -0.1329 -0.2109  0.0897
 7192TIP3    H145771   2.481   1.548  10.752  0.4203  2.3308 -0.5347
 7192TIP3    H245772   2.350   1.487  10.796  2.0180 -1.6284 -0.9022
 7193TIP3   OH245773   4.433   1.790  10.463 -0.0341  0.6920 -0.7285
 7193TIP3    H145774   4.496   1.719  10.454  0.1544  0.8092 -0.3345
 7193TIP3    H245775   4.445   1.843  10.384 -0.0929  0.3577 -0.9664
 7194TIP3   OH245776   3.123   1.518  10.153 -0.2934 -0.1308 -0.2354
 7194TIP3    H145777   3.134   1.489  10.063 -1.1972  0.1022 -0.4297
 7194TIP3    H245778   3.182   1.593  10.161 -0.2259 -0.1379 -0.6352
 7195TIP3   OH245779   6.228   5.323  10.328 -0.0954  0.0222  0.1550
 7195TIP3    H145780   6.201   5.244  10.375 -1.7254 -1.4153 -2.8523
 7195TIP3    H245781   6.207   5.304  10.236  2.1397  2.8595 -1.1163
 7196TIP3   OH245782   4.931   0.596  12.121  0.1139 -0.1040  0.4330
 7196TIP3    H145783   4.868   0.651  12.168 -0.8900 -1.8861  1.2612
 7196TIP3    H245784   4.990   0.564  12.190  0.1132 -0.8176  0.1036
 7197TIP3   OH245785   4.614   0.262  11.028  0.0028  0.0703 -0.0719
 7197TIP3    H145786   4.698   0.281  10.987 -1.2199 -0.4188 -3.0186
 7197TIP3    H245787   4.632   0.189  11.088  1.9366  1.0855  0.6650
 7198TIP3   OH245788   4.460   3.465  11.895 -0.5106 -0.4121 -0.8550
 7198TIP3    H145789   4.445   3.446  11.802  0.2195 -3.0277 -0.5245
 7198TIP3    H245790   4.517   3.394  11.925 -0.3273  0.6424  1.4957
 7199TIP3   OH245791   6.624   3.107  10.651 -0.1677  0.2394 -0.4422
 7199TIP3    H145792   6.557   3.101  10.582 -0.3205 -1.5521 -0.1907
 7199TIP3    H245793   6.579   3.148  10.725 -0.5717  0.3679 -0.7571
 7200TIP3   OH245794   1.179   7.193  11.779  0.2535  0.5976 -0.2397
 7200TIP3    H145795   1.205   7.115  11.828 -2.2376 -0.3249 -0.2796
 7200TIP3    H245796   1.156   7.161  11.693 -0.6171  1.4082 -0.3246
 7201TIP3   OH245797   3.301   0.825  11.404  0.4877 -0.3107  0.2807
 7201TIP3    H145798   3.367   0.781  11.457  1.4137  1.6418  0.8540
 7201TIP3    H245799   3.225   0.767  11.406  1.7434 -2.0124  0.6702
 7202TIP3   OH245800   3.089   5.878  11.665 -0.2695  0.1849  0.4650
 7202TIP3    H145801   3.122   5.916  11.746 -1.2114  2.0317  0.0437
 7202TIP3    H245802   3.061   5.789  11.689  4.3446 -1.4395  0.9478
 7203TIP3   OH245803   4.652   1.284  10.394 -0.5857  0.5390  0.0343
 7203TIP3    H145804   4.574   1.248  10.352 -0.0455  0.2152 -0.7116
 7203TIP3    H245805   4.702   1.208  10.423 -0.6763  0.7500  0.7848
 7204TIP3   OH245806   5.247   0.945  11.123  0.1364 -0.7304  0.2750
 7204TIP3    H145807   5.333   0.935  11.083  0.3991  0.2471  0.5693
 7204TIP3    H245808   5.190   0.977  11.053  0.8229  1.9500  0.8438
 7205TIP3   OH245809   0.808   5.775  11.184 -0.3947  0.8028  0.3064
 7205TIP3    H145810   0.782   5.859  11.222 -1.5229  0.8238 -0.4434
 7205TIP3    H245811   0.881   5.796  11.126  0.2608  1.0262  1.1900
 7206TIP3   OH245812   5.748   0.885  12.404  0.3055  0.1125 -0.1599
 7206TIP3    H145813   5.677   0.858  12.463  0.0811  2.9483  1.0199
 7206TIP3    H245814   5.707   0.948  12.344  1.0546 -1.0249 -1.9589
 7207TIP3   OH245815   6.032   2.446  11.908  0.1449 -0.0032  0.3061
 7207TIP3    H145816   6.065   2.447  11.998  0.5155 -1.5558  0.2098
 7207TIP3    H245817   6.109   2.429  11.855  0.0992  1.8163 -0.4338
 7208TIP3   OH245818   0.531   1.800  11.718  0.3125  0.0849 -0.3355
 7208TIP3    H145819   0.614   1.834  11.687  0.1014  1.2447  0.3084
 7208TIP3    H245820   0.514   1.848  11.800 -1.4140  0.5662 -0.9299
 7209TIP3   OH245821   6.208   0.869  12.280  0.0519  0.4077 -0.5371
 7209TIP3    H145822   6.115   0.865  12.257 -0.7321 -2.0088  2.4360
 7209TIP3    H245823   6.242   0.783  12.255  0.6978  0.1339  1.2040
 7210TIP3   OH245824   2.426   7.558  10.724 -0.7316  0.4502  0.3571
 7210TIP3    H145825   2.399   7.630  10.782 -1.8642 -0.8375  1.4985
 7210TIP3    H245826   2.473   7.497  10.781 -1.9820 -0.9100  0.0075
 7211TIP3   OH245827   0.580   1.842  10.447 -0.2170 -0.2542  0.0187
 7211TIP3    H145828   0.504   1.842  10.388 -0.8607  0.2277  0.8201
 7211TIP3    H245829   0.597   1.749  10.464  0.9608 -0.5089 -2.1071
 7212TIP3   OH245830   0.126   1.958  10.611 -0.1095  0.3616  0.0175
 7212TIP3    H145831   0.085   2.030  10.561 -2.4009 -1.4571 -0.9444
 7212TIP3    H245832   0.219   1.980  10.613  0.2406  0.6772 -5.1502
 7213TIP3   OH245833   1.634   2.081   9.992  0.4470  0.8053 -0.1316
 7213TIP3    H145834   1.539   2.080   9.989  0.4287  0.6489 -3.6873
 7213TIP3    H245835   1.660   1.989   9.990  0.7523  0.7854  2.2820
 7214TIP3   OH245836   0.493   3.006  11.274  0.0879  0.3055 -0.2130
 7214TIP3    H145837   0.571   3.034  11.321  0.1886 -0.3722  0.0389
 7214TIP3    H245838   0.488   2.912  11.291 -2.3565  0.7390  2.1203
 7215TIP3   OH245839   0.483   4.327  12.609 -0.2765 -0.5399  0.9793
 7215TIP3    H145840   0.445   4.277  12.536  1.7925 -0.8641  0.0740
 7215TIP3    H245841   0.438   4.411  12.605 -0.8355 -0.8671 -0.1067
 7216TIP3   OH245842   7.361   5.437  11.963  0.1384  0.2168  0.4128
 7216TIP3    H145843   7.381   5.524  11.930 -0.1497  1.3720  3.0515
 7216TIP3    H245844   7.288   5.450  12.024 -0.3284 -1.9777  0.4318
 7217TIP3   OH245845   4.622   4.195  10.802  0.3688  0.2063  0.0385
 7217TIP3    H145846   4.618   4.157  10.714  0.9754  0.8499 -0.2801
 7217TIP3    H245847   4.554   4.150  10.851 -0.4967  0.3632 -0.9736
 7218TIP3   OH245848   4.266   6.989  11.270  0.0272  0.4512 -0.2699
 7218TIP3    H145849   4.235   6.936  11.197 -1.4383  2.7812 -1.4529
 7218TIP3    H245850   4.235   6.943  11.348  0.0304 -1.1211 -1.1552
 7219TIP3   OH245851   4.447   6.216  12.260  0.9377 -0.2685 -0.1152
 7219TIP3    H145852   4.434   6.264  12.178  0.4288  0.5786  0.4313
 7219TIP3    H245853   4.368   6.162  12.268  1.4070 -1.0424 -0.6210
 7220TIP3   OH245854   0.135   3.007  10.160  0.6847 -0.1760 -0.2461
 7220TIP3    H145855   0.043   3.015  10.134  0.6375  2.3343  0.4203
 7220TIP3    H245856   0.132   2.999  10.255  1.1518 -0.7119 -0.2722
 7221TIP3   OH245857   7.118   6.810   9.857  0.3880 -0.0634 -0.2359
 7221TIP3    H145858   7.115   6.786   9.764 -0.8819  2.0017 -0.8040
 7221TIP3    H245859   7.180   6.883   9.860  2.0810 -1.4697  0.9600
 7222TIP3   OH245860   2.075   7.623  10.139  0.2035  0.0930  0.1156
 7222TIP3    H145861   1.982   7.599  10.143  0.4408 -0.8610  0.0810
 7222TIP3    H245862   2.108   7.605  10.227  0.3335  0.5589  0.1645
 7223TIP3   OH245863   3.876   6.334  11.719  0.0809 -0.0629  0.2715
 7223TIP3    H145864   3.941   6.314  11.786 -0.8090 -0.5103  1.0313
 7223TIP3    H245865   3.891   6.270  11.650 -0.8546 -1.5212  1.3663
 7224TIP3   OH245866   4.080   6.476  10.035 -0.1321 -0.0820 -0.4635
 7224TIP3    H145867   3.989   6.504  10.046  0.2059  1.3151 -1.0901
 7224TIP3    H245868   4.113   6.468  10.125 -0.7130 -0.0801 -0.2439
 7225TIP3   OH245869   2.991   0.882  12.048 -0.0464  0.0039  0.4928
 7225TIP3    H145870   2.996   0.821  11.974  0.2782  0.7019 -0.0649
 7225TIP3    H245871   2.944   0.958  12.013 -1.0948 -0.1978  1.3863
 7226TIP3   OH245872   4.919   2.066  10.723 -0.0885  0.2997  0.1110
 7226TIP3    H145873   5.011   2.085  10.743 -0.1231  0.2228  0.3489
 7226TIP3    H245874   4.870   2.114  10.789 -0.1716 -0.7310  0.8188
 7227TIP3   OH245875   1.119   3.583  10.856 -0.2334 -0.1003 -0.3790
 7227TIP3    H145876   1.157   3.636  10.926 -0.8017 -0.6016  0.3251
 7227TIP3    H245877   1.032   3.621  10.842  0.6081  1.3178 -2.2816
 7228TIP3   OH245878   7.283   1.402  11.016  0.3229  0.5841 -0.2729
 7228TIP3    H145879   7.261   1.419  11.107 -0.3139 -0.8871 -0.1166
 7228TIP3    H245880   7.308   1.487  10.980 -1.2880  1.5333  0.7527
 7229TIP3   OH245881   6.521   6.681  12.617 -0.0225  0.2792  1.1022
 7229TIP3    H145882   6.581   6.720  12.681  0.6938  0.4904  0.3220
 7229TIP3    H245883   6.527   6.739  12.541 -1.0524  0.1703  0.9284
 7230TIP3   OH245884   6.166   0.915  10.552  0.0525 -0.0696  0.2824
 7230TIP3    H145885   6.193   0.960  10.632 -0.0361 -1.5762  1.1876
 7230TIP3    H245886   6.246   0.910  10.499  0.9915 -2.0680  1.7666
 7231TIP3   OH245887   2.485   6.281  10.219 -0.6172  0.0860  0.1133
 7231TIP3    H145888   2.569   6.269  10.175  0.0491  0.8717  1.1316
 7231TIP3    H245889   2.430   6.324  10.153 -0.6171 -1.4741 -0.9465
 7232TIP3   OH245890   0.795   5.148  10.351 -0.2005 -0.4694  0.3562
 7232TIP3    H145891   0.844   5.224  10.321  1.4242 -2.2848 -1.9465
 7232TIP3    H245892   0.703   5.173  10.342  0.2738  1.3901  0.2625
 7233TIP3   OH245893   3.270   3.790  11.178  0.1110  0.4224 -0.2815
 7233TIP3    H145894   3.277   3.862  11.241  1.1264 -0.0114  0.1240
 7233TIP3    H245895   3.213   3.824  11.109 -0.7736  1.0144  0.7118
 7234TIP3   OH245896   7.231   6.391  10.358  0.0595 -0.4658 -0.2752
 7234TIP3    H145897   7.222   6.298  10.380 -1.7513 -0.1054  0.6682
 7234TIP3    H245898   7.191   6.437  10.431  1.4944  1.1154 -0.4239
 7235TIP3   OH245899   7.673   5.023  10.741 -0.0760 -0.5919 -0.2398
 7235TIP3    H145900   7.590   5.021  10.694 -0.6449 -1.2110  0.7595
 7235TIP3    H245901   7.733   4.973  10.686  0.5662  2.5074 -2.5820
 7236TIP3   OH245902   5.196   2.308  11.412 -0.1234  0.2884 -0.2750
 7236TIP3    H145903   5.249   2.355  11.348 -0.3015  1.7572  0.6091
 7236TIP3    H245904   5.198   2.363  11.491 -0.2542 -1.2528  0.8562
 7237TIP3   OH245905   6.086   6.131  12.224  0.1550 -0.2963  0.0082
 7237TIP3    H145906   6.165   6.146  12.172  0.5607  2.5645  1.2929
 7237TIP3    H245907   6.111   6.155  12.313 -1.6081 -1.3631  0.8423
 7238TIP3   OH245908   3.997   4.115  10.996  0.1187  0.8765 -0.3137
 7238TIP3    H145909   4.023   4.106  10.904  0.1027 -2.3532 -0.1281
 7238TIP3    H245910   4.080   4.124  11.043  0.4007 -0.7238 -0.4370
 7239TIP3   OH245911   1.027   4.404  11.841  0.4170 -0.0464 -0.0084
 7239TIP3    H145912   0.988   4.491  11.831  0.2309  0.0662  1.4819
 7239TIP3    H245913   0.968   4.358  11.901 -0.6467 -1.9640 -2.3526
 7240TIP3   OH245914   4.171   0.932  11.190  0.2015 -0.6773  1.0999
 7240TIP3    H145915   4.233   0.861  11.173  0.8636  0.2203 -0.4574
 7240TIP3    H245916   4.189   0.996  11.122 -0.3018  1.0562  2.5186
 7241TIP3   OH245917   0.601   1.769  11.363  0.0610  0.1373 -0.2242
 7241TIP3    H145918   0.667   1.816  11.413 -0.0441  0.1583 -0.1048
 7241TIP3    H245919   0.572   1.832  11.297 -1.5991  0.9979  1.2426
 7242TIP3   OH245920   2.163   1.980  11.987  0.0979  0.3850  0.3037
 7242TIP3    H145921   2.145   1.888  11.971  0.0465  0.3204  0.7412
 7242TIP3    H245922   2.115   2.026  11.918  0.3484  0.0757 -0.0878
 7243TIP3   OH245923   6.382   4.951  10.960 -0.5633  0.4483  0.2689
 7243TIP3    H145924   6.308   4.963  11.019 -0.0039  0.7200  0.9326
 7243TIP3    H245925   6.386   5.031  10.908 -0.5366  0.5801  0.4708
 7244TIP3   OH245926   1.864   4.208  12.024  0.9373  0.3991 -0.0615
 7244TIP3    H145927   1.832   4.134  11.972  1.5016 -0.1598  0.3929
 7244TIP3    H245928   1.795   4.223  12.089  2.2231 -1.8443  1.9698
 7245TIP3   OH245929   5.227   3.489  10.844  0.3562 -0.2962 -0.0118
 7245TIP3    H145930   5.219   3.533  10.929  0.3044 -0.1233 -0.1079
 7245TIP3    H245931   5.234   3.560  10.780 -0.3008 -0.4184 -0.2230
 7246TIP3   OH245932   0.822   3.332  11.967 -1.0001 -0.0995 -0.4736
 7246TIP3    H145933   0.854   3.362  11.882  2.9020 -2.6455 -0.1620
 7246TIP3    H245934   0.825   3.237  11.962 -0.8159 -0.3370  2.4226
 7247TIP3   OH245935   7.290   2.690  12.107 -0.5640 -0.4154  0.8172
 7247TIP3    H145936   7.223   2.735  12.159 -1.1325  0.5479 -0.6831
 7247TIP3    H245937   7.373   2.715  12.149 -0.9930  0.4225  1.2034
 7248TIP3   OH245938   1.606   6.112  11.215 -0.1814  0.2611  0.1395
 7248TIP3    H145939   1.581   6.155  11.133  1.8506 -1.6512 -1.6187
 7248TIP3    H245940   1.654   6.179  11.263 -0.3552  1.0794 -0.7875
 7249TIP3   OH245941   7.123   4.775  10.510 -0.0042 -0.3507  0.2598
 7249TIP3    H145942   7.074   4.858  10.507 -0.3751 -0.5910 -0.5813
 7249TIP3    H245943   7.196   4.789  10.450 -0.7316 -1.0358 -0.8216
 7250TIP3   OH245944   1.837   1.937  10.693  0.2108  0.5255  0.1069
 7250TIP3    H145945   1.872   2.013  10.646  1.0803  0.5525  0.7654
 7250TIP3    H245946   1.855   1.955  10.785  0.4188 -0.4635  0.2771
 7251TIP3   OH245947   5.578   4.049  10.904  0.8165 -0.2065 -0.1409
 7251TIP3    H145948   5.576   4.013  10.815  0.9460  1.2668 -0.7587
 7251TIP3    H245949   5.488   4.039  10.935  0.9508 -1.4753 -0.1129
 7252TIP3   OH245950   0.964   2.382  11.274 -0.2520 -0.4669 -0.7227
 7252TIP3    H145951   0.977   2.473  11.299  0.0509 -0.6653 -0.1509
 7252TIP3    H245952   0.997   2.377  11.184  1.8364 -0.5121 -0.0001
 7253TIP3   OH245953   1.558   2.721  12.936 -0.2889 -0.0076  0.4408
 7253TIP3    H145954   1.510   2.651  12.890  0.4543  0.1206 -0.5620
 7253TIP3    H245955   1.636   2.677  12.970 -0.3933  0.0938  0.8122
 7254TIP3   OH245956   1.709   1.071  13.019  0.2391 -0.0495 -0.0883
 7254TIP3    H145957   1.789   1.084  12.967  0.0817  0.2137 -0.2710
 7254TIP3    H245958   1.721   1.127  13.096 -0.8040  1.9305 -1.2839
 7255TIP3   OH245959   2.142   3.673  11.842 -0.2580 -0.2039 -0.1124
 7255TIP3    H145960   2.122   3.643  11.931  1.6331 -0.1649  0.3728
 7255TIP3    H245961   2.165   3.594  11.794  1.6073  0.0505  0.2867
 7256TIP3   OH245962   5.246   4.394  10.914 -0.3233 -0.6900 -0.1192
 7256TIP3    H145963   5.161   4.429  10.941 -0.7956 -1.1577 -0.9644
 7256TIP3    H245964   5.226   4.307  10.879  0.6653 -1.3067  0.7828
 7257TIP3   OH245965   7.131   5.093  10.373 -0.0251  0.0464  0.4473
 7257TIP3    H145966   7.058   5.127  10.426 -1.5441 -1.2593 -0.6993
 7257TIP3    H245967   7.109   5.118  10.283  0.8626 -0.4844  0.0695
 7258TIP3   OH245968   4.379   2.633  10.066 -0.3179 -0.3574 -0.2101
 7258TIP3    H145969   4.408   2.720  10.040 -0.4821 -0.5972 -1.2313
 7258TIP3    H245970   4.309   2.650  10.129 -0.2797  0.2483 -0.3209
 7259TIP3   OH245971   6.338   2.534  10.206 -0.4505  0.3245  0.1209
 7259TIP3    H145972   6.419   2.524  10.255 -0.7367 -1.4233  0.3183
 7259TIP3    H245973   6.322   2.628  10.204  0.4210  0.5538  1.9752
 7260TIP3   OH245974   3.044   6.790   9.946 -0.0902  0.7365  0.1045
 7260TIP3    H145975   2.953   6.819   9.935  0.0044  0.8119 -0.5010
 7260TIP3    H245976   3.057   6.790  10.041 -0.9178  0.1129  0.2327
 7261TIP3   OH245977   3.914   7.245  11.302 -0.0032  0.6736  0.1425
 7261TIP3    H145978   3.971   7.222  11.229 -0.2001 -0.0839  0.2208
 7261TIP3    H245979   3.911   7.340  11.301  0.1777  0.6772 -0.7000
 7262TIP3   OH245980   7.641   4.858  12.037  0.2309 -0.6323 -0.3798
 7262TIP3    H145981   7.583   4.814  12.099 -0.0153 -1.9264 -1.4737
 7262TIP3    H245982   7.717   4.883  12.089 -0.5363 -0.4965  0.7128
 7263TIP3   OH245983   3.428   2.554  10.786  0.4593 -0.0299 -0.4424
 7263TIP3    H145984   3.367   2.492  10.824 -0.2769  0.5562 -0.6431
 7263TIP3    H245985   3.374   2.628  10.759  1.1500  0.1638 -1.3527
 7264TIP3   OH245986   0.879   6.658   9.931  0.6794  0.3743  0.1201
 7264TIP3    H145987   0.790   6.627   9.945  0.6898  0.0693 -0.4960
 7264TIP3    H245988   0.912   6.677  10.020 -0.0571  0.6755  0.3359
 7265TIP3   OH245989   2.268   7.573  16.868 -0.6694  0.2271  0.2282
 7265TIP3    H145990   2.297   7.644  16.810 -2.1785  0.2787 -0.5153
 7265TIP3    H245991   2.317   7.496  16.838 -0.6002  0.4985 -0.3707
 7266TIP3   OH245992   2.976   1.101   9.780 -0.2744  0.2785  0.3451
 7266TIP3    H145993   2.896   1.059   9.811  0.1614  0.4421  1.7747
 7266TIP3    H245994   3.043   1.033   9.786 -0.2927  0.1332 -0.8710
 7267TIP3   OH245995   3.548   5.758  12.490  0.1377 -0.0772  0.4306
 7267TIP3    H145996   3.589   5.780  12.574 -0.0849  0.9407  0.2839
 7267TIP3    H245997   3.481   5.825  12.477 -1.0691 -1.2754  0.2941
 7268TIP3   OH245998   4.886   7.525  12.522  0.1773 -0.1948  0.4399
 7268TIP3    H145999   4.867   7.453  12.582 -0.4189 -0.2784  0.1593
 7268TIP3    H246000   4.859   7.493  12.436  0.2772  0.2168  0.2498
 7269TIP3   OH246001   5.234   4.601  12.201  0.2717  0.1629 -0.4529
 7269TIP3    H146002   5.188   4.563  12.276 -0.5151  0.2248 -0.9003
 7269TIP3    H246003   5.293   4.666  12.240  2.0915 -1.8609  0.3896
 7270TIP3   OH246004   4.097   2.851  10.528  0.3131  0.7498  0.1132
 7270TIP3    H146005   4.102   2.860  10.624 -2.2051  0.3264  0.3310
 7270TIP3    H246006   4.145   2.927  10.495 -0.5663  2.0750  1.7441
 7271TIP3   OH246007   1.016   4.541   9.782  0.0276 -0.4625 -0.0608
 7271TIP3    H146008   1.016   4.532   9.687 -0.2098 -1.8489  0.0484
 7271TIP3    H246009   1.089   4.486   9.811 -0.5798 -0.9302  0.6131
 7272TIP3   OH246010   0.831   3.063  11.645  0.1643 -0.2886 -0.2322
 7272TIP3    H146011   0.920   3.029  11.654  1.2023  1.9065 -1.2766
 7272TIP3    H246012   0.782   3.023  11.717  2.0658 -1.3205  0.5524
 7273TIP3   OH246013   1.370   2.484  10.537  0.3759 -0.0471 -0.1268
 7273TIP3    H146014   1.421   2.412  10.501  1.2914 -0.5397  1.9719
 7273TIP3    H246015   1.287   2.481  10.490  1.2689 -0.9667 -1.7187
 7274TIP3   OH246016   5.831   0.987  11.012 -0.0125 -0.1509  0.3243
 7274TIP3    H146017   5.855   0.988  11.104 -1.6805 -0.2388  0.8090
 7274TIP3    H246018   5.828   1.079  10.987  0.0447 -0.1043  0.4856
 7275TIP3   OH246019   6.905   5.589  10.802 -0.3041 -0.1732  0.2711
 7275TIP3    H146020   6.974   5.522  10.797  0.2092  0.3115  0.6388
 7275TIP3    H246021   6.824   5.539  10.814  0.0619 -0.7340  0.4816
 7276TIP3   OH246022   4.716   3.625  10.271 -0.2071  0.7584 -0.6767
 7276TIP3    H146023   4.729   3.718  10.288 -1.0468  0.7331  0.1617
 7276TIP3    H246024   4.621   3.613  10.272 -0.0908 -0.2318 -0.0738
 7277TIP3   OH246025   3.239   1.365  11.708 -0.4241  0.2923 -0.2683
 7277TIP3    H146026   3.211   1.303  11.775 -1.3343  0.6800 -0.2764
 7277TIP3    H246027   3.305   1.419  11.751 -0.7240  0.2882  0.2002
 7278TIP3   OH246028   1.376   4.157  10.660  0.1677 -0.3328 -0.1984
 7278TIP3    H146029   1.363   4.151  10.755 -0.6596 -1.0570 -0.3449
 7278TIP3    H246030   1.464   4.193  10.650  0.7574 -1.4174  0.8462
 7279TIP3   OH246031   0.905   0.473  10.258 -0.2524  0.1736 -0.6962
 7279TIP3    H146032   0.839   0.541  10.252  0.2751  0.7663  0.0470
 7279TIP3    H246033   0.869   0.409  10.319 -0.7099 -0.1780 -1.3257
 7280TIP3   OH246034   7.225   0.753  11.839 -0.5554  0.4078 -0.1056
 7280TIP3    H146035   7.200   0.819  11.774  0.2794  2.0512  1.1735
 7280TIP3    H246036   7.309   0.720  11.809 -0.4449  0.7405 -0.1672
 7281TIP3   OH246037   4.870   6.234  10.811  0.1939 -0.2309  0.0855
 7281TIP3    H146038   4.847   6.277  10.894 -0.6092  1.6526 -1.0372
 7281TIP3    H246039   4.961   6.260  10.795  0.5746 -1.1516  0.6743
 7282TIP3   OH246040   6.734   5.944  11.491 -0.5093 -0.3789  0.3716
 7282TIP3    H146041   6.745   5.945  11.396 -1.2996  0.4866  0.2693
 7282TIP3    H246042   6.772   6.026  11.521 -1.3272 -0.0861  0.6539
 7283TIP3   OH246043   7.376   1.480  10.204  0.1611 -0.3564 -0.2287
 7283TIP3    H146044   7.396   1.565  10.242  2.8724 -0.1974 -1.7247
 7283TIP3    H246045   7.384   1.419  10.277  0.3038  0.4444  0.4427
 7284TIP3   OH246046   4.607   5.995  12.245 -0.0666  0.9130  0.1334
 7284TIP3    H146047   4.694   5.996  12.205  0.1766  0.1974  0.6242
 7284TIP3    H246048   4.576   6.085  12.238  0.2675  0.9542 -1.0056
 7285TIP3   OH246049   1.836   1.182  10.075  0.2253  0.4359  0.1330
 7285TIP3    H146050   1.931   1.169  10.083  0.5384  1.6676 -1.1680
 7285TIP3    H246051   1.822   1.271  10.107 -0.5320  0.1724  0.5386
 7286TIP3   OH246052   5.195   5.203  11.417  0.4929  0.5977  0.0089
 7286TIP3    H146053   5.187   5.273  11.353 -1.7590  0.9833  0.6391
 7286TIP3    H246054   5.187   5.246  11.502  0.2911 -0.2778  0.4471
 7287TIP3   OH246055   2.696   7.552  10.123  0.0485  0.2550  0.6979
 7287TIP3    H146056   2.775   7.547  10.069 -0.2665 -0.5767  0.2898
 7287TIP3    H246057   2.655   7.466  10.113 -0.8919  0.6641  0.9273
 7288TIP3   OH246058   0.676   7.195   9.996 -0.0711  0.0125  0.4950
 7288TIP3    H146059   0.727   7.115  10.010  0.4904  0.3110  0.2368
 7288TIP3    H246060   0.605   7.191  10.060 -0.6376 -1.1703 -0.1752
 7289TIP3   OH246061   4.207   0.897  12.092 -0.6474 -0.3576  0.0108
 7289TIP3    H146062   4.238   0.807  12.081  1.3854  0.1243  1.1313
 7289TIP3    H246063   4.282   0.943  12.131 -2.5305  1.1804  2.0622
 7290TIP3   OH246064   2.556   2.983  10.402 -0.0949 -0.4197  0.6009
 7290TIP3    H146065   2.514   2.900  10.378  1.4882 -1.5768  1.6493
 7290TIP3    H246066   2.528   3.000  10.492  0.5442 -0.4659  0.8148
 7291TIP3   OH246067   1.024   3.416  10.452 -0.7281 -0.0040 -0.2475
 7291TIP3    H146068   0.933   3.436  10.477 -0.7868  0.5571 -0.8582
 7291TIP3    H246069   1.016   3.373  10.367 -0.4451 -0.3365 -0.1059
 7292TIP3   OH246070   2.802   1.802  10.525 -0.3068  0.0125  0.0639
 7292TIP3    H146071   2.857   1.752  10.585  1.8402 -0.8761 -2.4348
 7292TIP3    H246072   2.792   1.746  10.448 -1.5072  1.7228 -1.1297
 7293TIP3   OH246073   1.686   5.655  10.265  0.1538 -0.5421 -0.6753
 7293TIP3    H146074   1.664   5.579  10.212 -2.1661 -0.5998  0.2380
 7293TIP3    H246075   1.615   5.718  10.249  1.3585  0.9483 -0.4654
 7294TIP3   OH246076   6.474   7.317  11.621 -0.5990  0.4815  0.2987
 7294TIP3    H146077   6.438   7.256  11.685 -1.5134  0.1676 -0.4838
 7294TIP3    H246078   6.544   7.267  11.578 -1.4588 -0.1191 -0.4582
 7295TIP3   OH246079   0.708   3.657  12.181 -0.2154 -0.2382  0.0937
 7295TIP3    H146080   0.779   3.632  12.240  1.0956  0.2228 -1.2475
 7295TIP3    H246081   0.675   3.740  12.218 -0.1571 -0.5193  0.7965
 7296TIP3   OH246082   0.409   5.684  12.520 -0.3570 -0.5882 -0.1922
 7296TIP3    H146083   0.458   5.694  12.438 -0.3659 -2.0728 -0.3937
 7296TIP3    H246084   0.459   5.737  12.584 -0.1341  0.2632 -1.0422
 7297TIP3   OH246085   6.592   0.950  12.891 -0.0678  0.3929 -0.3058
 7297TIP3    H146086   6.612   0.985  12.804 -1.8108  0.1063 -0.8671
 7297TIP3    H246087   6.677   0.935  12.931  0.8111 -0.1371 -2.2318
 7298TIP3   OH246088   6.007   1.159  10.471 -0.2551 -0.2692  0.1428
 7298TIP3    H146089   6.052   1.078  10.450  1.6597  1.2033 -1.9048
 7298TIP3    H246090   6.074   1.215  10.510 -0.9873  1.0652 -0.4445
 7299TIP3   OH246091   7.167   6.721  10.098  0.5707 -0.1543 -0.1052
 7299TIP3    H146092   7.129   6.765  10.023  0.9648  1.3214  0.5294
 7299TIP3    H246093   7.234   6.782  10.131  0.7485 -0.9795  1.1384
 7300TIP3   OH246094   6.793   7.400  11.763  0.2534 -0.0743  0.1662
 7300TIP3    H146095   6.813   7.492  11.745  0.4776 -0.1047  0.2583
 7300TIP3    H246096   6.827   7.352  11.687  0.9533 -0.1740  0.5388
 7301TIP3   OH246097   1.374   7.153  12.893 -0.1305  0.3279 -0.8867
 7301TIP3    H146098   1.344   7.233  12.851  0.5300  0.5472 -0.9594
 7301TIP3    H246099   1.444   7.121  12.836 -1.0202 -0.8319 -1.3826
 7302TIP3   OH246100   6.075   5.414  12.927 -0.1886  0.0638 -0.6333
 7302TIP3    H146101   6.168   5.431  12.938 -0.1959 -0.4063  0.3032
 7302TIP3    H246102   6.047   5.473  12.857  0.6921  0.6294 -0.5194
 7303TIP3   OH246103   2.669   0.881  10.997 -0.2538 -0.5627  0.5332
 7303TIP3    H146104   2.693   0.807  11.052  1.0621 -0.3709  0.2408
 7303TIP3    H246105   2.593   0.850  10.947  0.6997 -1.9844 -0.1032
 7304TIP3   OH246106   7.502   7.435  10.232 -0.5866  0.0777 -0.5262
 7304TIP3    H146107   7.447   7.361  10.206 -1.4923  0.8121 -0.7503
 7304TIP3    H246108   7.448   7.485  10.292 -0.2406  0.9183 -0.8960
 7305TIP3   OH246109   1.682   5.093  10.340 -0.2904 -0.0550 -0.1253
 7305TIP3    H146110   1.725   5.142  10.410 -0.7175  0.9589 -0.5418
 7305TIP3    H246111   1.736   5.015  10.328  1.5092  1.2177 -0.7173
 7306TIP3   OH246112   2.358   4.125  11.423 -0.2024  0.6545 -0.4623
 7306TIP3    H146113   2.453   4.124  11.410 -0.1688 -2.7802 -0.8492
 7306TIP3    H246114   2.322   4.093  11.341 -1.2720 -2.7591  1.1419
 7307TIP3   OH246115   4.880   6.752  10.428 -0.5389  0.2050 -0.6146
 7307TIP3    H146116   4.893   6.754  10.334 -2.1960 -1.0863 -0.9266
 7307TIP3    H246117   4.964   6.722  10.464  0.6026  2.1743 -1.5003
 7308TIP3   OH246118   6.608   3.097  10.165 -0.0481 -0.1797  0.0440
 7308TIP3    H146119   6.612   3.002  10.171 -0.5662 -0.3182 -1.4395
 7308TIP3    H246120   6.696   3.123  10.136 -0.5783 -0.4593 -1.9728
 7309TIP3   OH246121   3.347   3.465  12.762 -0.5339 -0.3946  0.4334
 7309TIP3    H146122   3.375   3.487  12.673  1.3471  1.2073  1.3511
 7309TIP3    H246123   3.313   3.547  12.798 -3.3508 -1.5104  0.5359
 7310TIP3   OH246124   3.979   6.836  10.830  0.4449 -0.1236  0.3248
 7310TIP3    H146125   3.948   6.917  10.789  0.6162  1.0283  2.3259
 7310TIP3    H246126   4.013   6.784  10.758 -2.0689  0.4336 -1.3772
 7311TIP3   OH246127   0.032   2.603  10.272  0.2400 -0.3029 -0.1669
 7311TIP3    H146128  -0.003   2.652  10.198 -1.5696  0.5477  1.1798
 7311TIP3    H246129  -0.035   2.611  10.340  2.0822 -0.5153  1.7898
 7312TIP3   OH246130   2.490   3.593  11.225 -0.7175 -0.4846 -0.0858
 7312TIP3    H146131   2.439   3.589  11.306  0.2536  1.4440  0.6912
 7312TIP3    H246132   2.434   3.642  11.164 -1.1088 -1.2143 -0.3204
 7313TIP3   OH246133   4.416   0.997  12.269  0.4574 -0.1140  0.0994
 7313TIP3    H146134   4.468   1.054  12.212  0.1310  1.0422  0.9252
 7313TIP3    H246135   4.474   0.922  12.285  0.6707 -0.3316 -1.4700
 7314TIP3   OH246136   1.967   7.274   9.802 -0.3086 -0.0133  0.4068
 7314TIP3    H146137   1.893   7.214   9.808 -2.3348  2.2918  0.3918
 7314TIP3    H246138   1.978   7.308   9.890 -0.2005  0.6751  0.1343
 7315TIP3   OH246139   0.741   0.407  11.903 -0.6658 -0.6153  0.7326
 7315TIP3    H146140   0.748   0.425  11.809 -1.3935 -0.9431  0.6036
 7315TIP3    H246141   0.780   0.320  11.913  0.5598 -0.0582  0.9490
 7316TIP3   OH246142   5.554   6.147  10.492  0.0372  0.4186 -0.0844
 7316TIP3    H146143   5.635   6.194  10.513  0.3223 -0.0286 -0.1710
 7316TIP3    H246144   5.566   6.116  10.403  0.1384 -0.3962  0.2026
 7317TIP3   OH246145   4.219   6.084  11.706  0.5503  0.2680  0.0772
 7317TIP3    H146146   4.274   6.005  11.706  0.4701  0.1768 -1.1731
 7317TIP3    H246147   4.278   6.154  11.678  0.5625  0.6126  0.9554
 7318TIP3   OH246148   2.649   6.326  11.922  0.1529 -0.2915 -0.3501
 7318TIP3    H146149   2.662   6.421  11.930 -1.2312 -0.0121 -1.0899
 7318TIP3    H246150   2.726   6.288  11.964 -0.1531  1.1313  1.6485
 7319TIP3   OH246151   5.869   2.625  10.818  0.3212 -0.0741 -0.4882
 7319TIP3    H146152   5.832   2.671  10.893  0.6382 -0.7275  0.0694
 7319TIP3    H246153   5.799   2.626  10.752  0.1007  0.6365 -0.2495
 7320TIP3   OH246154   3.186   1.395  11.104 -0.0348 -0.1060  0.4009
 7320TIP3    H146155   3.264   1.387  11.049  1.1849 -1.6767  2.2254
 7320TIP3    H246156   3.157   1.486  11.093  0.8206 -0.0535 -1.8798
 7321TIP3   OH246157   5.041   0.065  11.054 -0.1243 -0.4521  0.2903
 7321TIP3    H146158   5.097   0.078  10.978 -0.7201 -0.5478 -0.1737
 7321TIP3    H246159   5.056  -0.026  11.081 -0.8857 -0.8356 -0.5267
 7322TIP3   OH246160   1.085   7.316  11.075  0.6774  0.1562 -0.0217
 7322TIP3    H146161   1.173   7.280  11.079  0.6751  0.0516 -0.7468
 7322TIP3    H246162   1.089   7.383  11.006  0.1217 -0.0795 -0.2912
 7323TIP3   OH246163   4.497   3.318  11.408 -0.6560 -0.2111  0.0887
 7323TIP3    H146164   4.407   3.288  11.424 -0.8407  1.1514  2.0160
 7323TIP3    H246165   4.551   3.240  11.423 -1.4805 -1.0094 -0.9305
 7324TIP3   OH246166   0.436   6.543  11.088 -0.2800 -0.0421 -0.2160
 7324TIP3    H146167   0.436   6.450  11.068  0.0133  0.2682 -1.7673
 7324TIP3    H246168   0.346   6.571  11.076 -0.4000 -0.1381  0.4024
 7325TIP3   OH246169   0.790   1.947  10.557  0.0809 -0.2835 -0.1139
 7325TIP3    H146170   0.759   2.018  10.613  2.0757 -1.1961  2.2861
 7325TIP3    H246171   0.710   1.906  10.524 -1.1956  0.2151  2.1916
 7326TIP3   OH246172   1.458   5.139  11.669 -0.0774  0.4809 -0.3124
 7326TIP3    H146173   1.400   5.197  11.717  0.4453  1.7996 -1.2152
 7326TIP3    H246174   1.419   5.052  11.679 -0.7877  0.9401  1.2040
 7327TIP3   OH246175   4.561   2.382  11.245 -0.5411 -0.2246  0.3719
 7327TIP3    H146176   4.639   2.328  11.238 -0.3390 -0.0357  1.0994
 7327TIP3    H246177   4.504   2.350  11.175  0.3569 -0.0625 -0.4618
 7328TIP3   OH246178   6.316   5.580  10.917  0.5407 -0.4065 -0.1210
 7328TIP3    H146179   6.407   5.585  10.946  1.0611  1.8581 -1.8367
 7328TIP3    H246180   6.322   5.574  10.822 -1.1181 -1.3584 -0.1940
 7329TIP3   OH246181   6.273   5.830  10.721 -0.0016  0.2200  0.2854
 7329TIP3    H146182   6.248   5.923  10.723  0.1680  0.2545  0.8289
 7329TIP3    H246183   6.245   5.800  10.634  0.7034  0.9963 -0.2250
 7330TIP3   OH246184   4.609   3.233  11.956  0.3489 -0.8859  0.6588
 7330TIP3    H146185   4.637   3.232  11.864 -0.3942  2.8942  0.2132
 7330TIP3    H246186   4.690   3.219  12.005  1.5087  0.8634 -0.6207
 7331TIP3   OH246187   3.453   0.968  10.209 -0.2071 -0.3256  0.1897
 7331TIP3    H146188   3.505   0.923  10.143  0.0628 -0.9803  0.8409
 7331TIP3    H246189   3.450   0.908  10.283 -2.1173 -0.4366  0.0885
 7332TIP3   OH246190   5.509   1.171  10.457  0.7313  0.3831 -0.2263
 7332TIP3    H146191   5.604   1.168  10.454  0.8350  1.0622  1.3497
 7332TIP3    H246192   5.489   1.213  10.541 -0.9662 -1.3379  0.3060
 7333TIP3   OH246193   0.970   6.882  12.802 -0.4044  0.0242 -0.0389
 7333TIP3    H146194   0.953   6.945  12.873 -0.0697 -1.0135  0.9993
 7333TIP3    H246195   0.889   6.832  12.794  0.3891 -1.6653  1.5439
 7334TIP3   OH246196   2.666   2.549  10.780 -0.4961  0.0316 -0.4259
 7334TIP3    H146197   2.645   2.622  10.723  0.1405 -0.2325 -1.0138
 7334TIP3    H246198   2.598   2.484  10.764  0.1060 -0.3619 -1.4846
 7335TIP3   OH246199   7.035   1.090  11.800 -0.5503 -0.2118  0.1206
 7335TIP3    H146200   7.022   1.184  11.808  1.6125  0.0461  1.4781
 7335TIP3    H246201   6.949   1.052  11.815 -0.7929  1.3811  3.8329
 7336TIP3   OH246202   2.520   6.852  10.149 -0.4803  0.4029  0.0628
 7336TIP3    H146203   2.588   6.811  10.204  0.0892 -0.3270 -1.1494
 7336TIP3    H246204   2.515   6.942  10.182  0.8377  0.3751  0.4073
 7337TIP3   OH246205   4.835   4.936  10.144 -0.6007  0.3843  0.2448
 7337TIP3    H146206   4.776   4.872  10.106 -0.2845  0.0368  0.3329
 7337TIP3    H246207   4.827   4.924  10.238 -1.1013  0.9874  0.2801
 7338TIP3   OH246208   6.172   0.856  11.050  0.0706 -0.3345 -0.0434
 7338TIP3    H146209   6.126   0.786  11.004 -0.7478  1.1597 -1.6257
 7338TIP3    H246210   6.109   0.886  11.117  0.3494 -0.9617  0.5086
 7339TIP3   OH246211   0.970   4.230   9.891 -0.1138 -0.0633 -0.3871
 7339TIP3    H146212   0.933   4.316   9.909 -1.5132 -0.6621 -0.2881
 7339TIP3    H246213   1.065   4.244   9.891 -0.3143  1.4311 -0.2046
 7340TIP3   OH246214   3.235   2.782  10.698 -0.4406 -0.1769  0.1161
 7340TIP3    H146215   3.159   2.724  10.703 -1.4370  0.9868 -0.8176
 7340TIP3    H246216   3.247   2.798  10.604  1.5396 -1.0253  0.1640
 7341TIP3   OH246217   2.374   5.500  11.645  0.1573  0.5699 -0.0156
 7341TIP3    H146218   2.342   5.587  11.669  0.2088  0.8112 -0.8148
 7341TIP3    H246219   2.305   5.462  11.591  1.0144  0.9399 -1.4205
 7342TIP3   OH246220   5.714   1.037  11.740  0.4881  0.7692  0.1214
 7342TIP3    H146221   5.675   0.960  11.783  1.7395 -0.7977 -1.4163
 7342TIP3    H246222   5.678   1.035  11.651  0.6355  1.9149  0.0274
 7343TIP3   OH246223   1.370   3.851  10.617  0.1872  0.5364  0.3226
 7343TIP3    H146224   1.292   3.834  10.669 -0.2992  0.3954 -0.4308
 7343TIP3    H246225   1.350   3.932  10.570 -0.2334 -0.3972 -1.1878
 7344TIP3   OH246226   5.658   4.883  10.635 -0.4002  0.4425 -0.4200
 7344TIP3    H146227   5.690   4.946  10.698  0.7698  1.5410 -2.0267
 7344TIP3    H246228   5.715   4.807  10.645 -0.3915  0.5091  0.0225
 7345TIP3   OH246229   1.990   1.063  10.424  0.4749 -0.0864  0.4692
 7345TIP3    H146230   1.984   1.029  10.513  0.5152 -0.3599  0.3700
 7345TIP3    H246231   1.917   1.021  10.378  2.2692 -2.4410 -0.4265
 7346TIP3   OH246232   3.147   7.069  11.664 -0.0343 -0.1620 -0.1747
 7346TIP3    H146233   3.226   7.020  11.683  0.5702  0.7594 -0.2443
 7346TIP3    H246234   3.085   7.004  11.632  0.7783 -0.8572 -0.3640
 7347TIP3   OH246235   1.350   7.191  12.155  0.0400  0.3207 -0.5100
 7347TIP3    H146236   1.332   7.273  12.107  1.2577 -0.1670 -1.8588
 7347TIP3    H246237   1.441   7.171  12.136  0.0227 -0.9045  0.5373
 7348TIP3   OH246238   4.817   7.197  10.652  0.0951 -0.3374  0.1984
 7348TIP3    H146239   4.787   7.250  10.579  1.0882 -0.5413 -0.3791
 7348TIP3    H246240   4.775   7.112  10.639  1.4372 -0.8561 -1.0240
 7349TIP3   OH246241   0.450   5.668  11.378 -0.1763 -0.3229 -0.0487
 7349TIP3    H146242   0.441   5.750  11.427 -1.1769  0.0778 -0.8612
 7349TIP3    H246243   0.411   5.601  11.435  0.6198 -0.2395  0.6053
 7350TIP3   OH246244   2.214   6.274  12.824  0.1304  0.1780 -0.0425
 7350TIP3    H146245   2.140   6.318  12.782  0.7977  1.2808 -0.0976
 7350TIP3    H246246   2.202   6.182  12.801 -0.3492  0.5429 -1.4094
 7351TIP3   OH246247   6.788   2.884  12.316 -0.4153 -0.2351 -0.5478
 7351TIP3    H146248   6.748   2.896  12.401 -0.7815  0.0316 -0.7553
 7351TIP3    H246249   6.748   2.950  12.260  0.6234  0.3292 -0.6599
 7352TIP3   OH246250   2.107   7.399   9.603  0.0572 -0.3052  0.5317
 7352TIP3    H146251   2.052   7.364   9.673 -0.4325 -0.5437  0.0382
 7352TIP3    H246252   2.103   7.333   9.534  0.7681 -0.2047  0.3918
 7353TIP3   OH246253   6.103   6.191  10.366 -0.9154 -0.1332 -0.0394
 7353TIP3    H146254   6.164   6.263  10.383 -0.2349 -1.1384  2.2677
 7353TIP3    H246255   6.159   6.118  10.339 -1.1918 -0.7030  0.8691
 7354TIP3   OH246256   1.375   3.163  11.233  0.3550  0.6817 -0.0522
 7354TIP3    H146257   1.280   3.163  11.226  0.4002 -1.0439 -1.5071
 7354TIP3    H246258   1.403   3.243  11.188 -0.3808  1.0469  0.1290
 7355TIP3   OH246259   3.705   3.982  12.689 -0.3597  0.2332  0.2499
 7355TIP3    H146260   3.711   3.936  12.606  1.1954  0.3125  0.2764
 7355TIP3    H246261   3.614   3.970  12.717 -0.6437 -0.6565 -0.9551
 7356TIP3   OH246262   1.890   3.525  10.452  0.1893 -0.2220  0.1496
 7356TIP3    H146263   1.856   3.586  10.518 -0.0358  1.5929 -1.5519
 7356TIP3    H246264   1.980   3.556  10.436 -0.1135  0.0645 -1.1280
 7357TIP3   OH246265   0.889   0.983  10.121  0.2045  0.1541  0.0668
 7357TIP3    H146266   0.935   0.929  10.056 -0.6904 -0.0246 -0.4275
 7357TIP3    H246267   0.810   1.012  10.076  0.2118  1.1172  0.6429
 7358TIP3   OH246268   5.921   4.073  12.115  0.7692  0.7310 -0.3914
 7358TIP3    H146269   5.995   4.050  12.172 -0.7750  1.9836  2.2728
 7358TIP3    H246270   5.873   3.990  12.105  0.8598  0.5671  0.4502
 7359TIP3   OH246271   3.636   2.572  10.951  0.2160 -0.4650  0.2425
 7359TIP3    H146272   3.712   2.586  10.894  0.2887  0.1553  0.4871
 7359TIP3    H246273   3.563   2.562  10.890  0.5887 -1.8584 -0.0281
 7360TIP3   OH246274   6.994   5.723  10.515 -0.3745 -0.0983 -0.2534
 7360TIP3    H146275   6.919   5.720  10.575  1.0463  0.2592  1.6289
 7360TIP3    H246276   6.981   5.648  10.457 -2.0955 -0.1331  0.1228
 7361TIP3   OH246277   4.421   1.123  11.946 -0.3435 -0.6426  0.1633
 7361TIP3    H146278   4.437   1.032  11.919  0.4612 -0.3295 -0.4353
 7361TIP3    H246279   4.489   1.142  12.010 -0.8175 -0.6167  0.6673
 7362TIP3   OH246280   4.901   4.390  11.520  0.0325 -0.3628 -0.1608
 7362TIP3    H146281   4.911   4.297  11.540  1.2319 -0.4902 -1.2636
 7362TIP3    H246282   4.972   4.410  11.459 -0.9473  0.9861 -0.9230
 7363TIP3   OH246283   5.757   3.246  10.663 -0.4155 -0.9185  0.2871
 7363TIP3    H146284   5.785   3.195  10.739 -0.1814  0.3101  1.0595
 7363TIP3    H246285   5.662   3.246  10.667 -0.4159 -1.3231  0.2637
 7364TIP3   OH246286   7.360   4.210  10.693  0.3374 -0.0198  0.4104
 7364TIP3    H146287   7.321   4.140  10.641  0.8384  0.6682 -0.9444
 7364TIP3    H246288   7.356   4.287  10.636 -0.9047  1.2713  2.1532
 7365TIP3   OH246289   4.956   4.717  11.074 -0.2942  1.1232 -1.0365
 7365TIP3    H146290   4.941   4.735  11.167 -0.6878  0.0189 -0.8773
 7365TIP3    H246291   4.936   4.800  11.030  1.6297  2.2338  0.0022
 7366TIP3   OH246292   7.056   3.439  12.222  0.8408  0.3820  0.2478
 7366TIP3    H146293   6.981   3.469  12.274 -0.3360 -0.6478 -0.7824
 7366TIP3    H246294   7.105   3.384  12.282 -0.5751 -0.9073  0.2833
 7367TIP3   OH246295   5.225   4.567  10.594  0.2664  0.3415 -0.1263
 7367TIP3    H146296   5.152   4.577  10.533  1.5688  2.2734 -1.5304
 7367TIP3    H246297   5.201   4.621  10.670 -0.6312 -0.6994  0.3428
 7368TIP3   OH246298   1.755   3.647  10.814 -0.2588 -0.2177  0.2312
 7368TIP3    H146299   1.676   3.605  10.781 -1.6841  1.2467  1.6100
 7368TIP3    H246300   1.772   3.717  10.752 -0.8728  0.3150  0.6459
 7369TIP3   OH246301   0.801   1.407  10.594  0.0806 -1.0052 -0.0375
 7369TIP3    H146302   0.765   1.321  10.573 -0.5125 -0.8285  0.2240
 7369TIP3    H246303   0.878   1.388  10.648 -1.3193 -1.3375  1.9236
 7370TIP3   OH246304   6.397   4.543  11.652 -0.2429 -0.6591  0.3224
 7370TIP3    H146305   6.343   4.566  11.728 -1.1527 -0.8522 -0.2425
 7370TIP3    H246306   6.386   4.448  11.643  1.5977 -1.0052  1.2263
 7371TIP3   OH246307   5.025   0.472  11.450 -0.3074 -0.1274 -0.5336
 7371TIP3    H146308   4.934   0.444  11.450  0.1900 -1.8624 -0.7269
 7371TIP3    H246309   5.067   0.419  11.382  0.8294  0.7488 -0.5541
 7372TIP3   OH246310   5.854   1.945  11.955 -0.2727  0.6943  0.2626
 7372TIP3    H146311   5.815   1.932  11.869  0.9240 -0.5325 -0.1295
 7372TIP3    H246312   5.872   2.039  11.960 -1.8239  1.0492 -0.1452
 7373TIP3   OH246313   0.968   1.824  10.353 -0.0957  0.2696 -0.0718
 7373TIP3    H146314   0.934   1.841  10.440 -0.2765 -1.2452  0.1816
 7373TIP3    H246315   1.064   1.824  10.363 -0.1178  0.0309  0.1537
 7374TIP3   OH246316   1.967   6.336  10.658 -0.2110  0.3671  0.5604
 7374TIP3    H146317   1.874   6.325  10.680 -0.3807  0.8999  0.1423
 7374TIP3    H246318   1.967   6.356  10.564  0.2198  1.7033  0.8232
 7375TIP3   OH246319   0.316   2.520   9.869  0.2825  0.5285  0.0994
 7375TIP3    H146320   0.284   2.521   9.959  0.6810 -0.3992  0.2601
 7375TIP3    H246321   0.365   2.602   9.860 -0.3570  0.9559  0.4987
 7376TIP3   OH246322   6.807   5.843  10.822  0.2100  0.3761  0.1634
 7376TIP3    H146323   6.712   5.830  10.815  0.2164 -0.0731  0.7718
 7376TIP3    H246324   6.841   5.755  10.839  0.5783  0.7334  1.3812
 7377TIP3   OH246325   4.409   5.353  10.589 -0.2365 -0.1328  0.2284
 7377TIP3    H146326   4.382   5.434  10.545  3.6804  0.6757 -1.1215
 7377TIP3    H246327   4.433   5.381  10.677 -2.6067 -0.6708  1.1052
 7378TIP3   OH246328   0.963   6.349  10.630 -0.3610 -0.7794 -0.0995
 7378TIP3    H146329   0.999   6.431  10.597 -2.8034 -0.1252 -1.3457
 7378TIP3    H246330   0.965   6.358  10.725  2.2178 -0.6200 -0.0981
 7379TIP3   OH246331   4.202   3.903  11.758  0.2732 -0.2676  0.1201
 7379TIP3    H146332   4.118   3.938  11.788  0.3347  0.1556 -0.1880
 7379TIP3    H246333   4.203   3.813  11.788 -1.2820 -0.9719 -1.7621
 7380TIP3   OH246334   1.411   6.996  10.693 -1.1385 -0.1747  0.1004
 7380TIP3    H146335   1.497   7.012  10.654 -0.1185 -1.9590  1.4637
 7380TIP3    H246336   1.381   7.083  10.721  0.7307  0.3578  0.6180
 7381TIP3   OH246337   4.442   1.201  10.214 -0.8321 -0.1114  0.8287
 7381TIP3    H146338   4.468   1.289  10.187 -0.3223 -1.1687 -2.6898
 7381TIP3    H246339   4.347   1.205  10.223 -1.4630  0.0831 -3.5205
 7382TIP3   OH246340   0.628   3.153  10.531 -0.2142  0.1734 -0.1009
 7382TIP3    H146341   0.633   3.058  10.520  1.7587  0.4378 -2.2791
 7382TIP3    H246342   0.581   3.183  10.453  2.9969  1.2228 -1.7880
 7383TIP3   OH246343   4.732   6.502  11.314  0.0630 -0.3432 -0.0018
 7383TIP3    H146344   4.662   6.555  11.275 -0.1011 -1.2567 -0.9980
 7383TIP3    H246345   4.697   6.477  11.400 -0.7139 -0.5108 -0.3528
 7384TIP3   OH246346   6.458   1.258   9.901 -0.2031 -0.1250  0.2400
 7384TIP3    H146347   6.457   1.344   9.858 -0.1103 -0.5402 -0.6050
 7384TIP3    H246348   6.534   1.262   9.959  0.6407 -0.1247 -0.8385
 7385TIP3   OH246349   4.701   0.312  10.648 -0.4796  0.1780  0.2374
 7385TIP3    H146350   4.664   0.399  10.664  0.0362  0.2136  1.2896
 7385TIP3    H246351   4.681   0.262  10.727 -1.9545 -1.1035 -0.8754
 7386TIP3   OH246352   6.641   6.673  10.262 -0.3123 -0.0622  0.2416
 7386TIP3    H146353   6.607   6.720  10.338  0.9741  3.3984 -1.1309
 7386TIP3    H246354   6.576   6.686  10.194 -0.5168 -1.4451  0.1306
 7387TIP3   OH246355   0.984   2.815  10.208  0.0885  0.4746  0.4015
 7387TIP3    H146356   1.070   2.774  10.202 -0.3887 -0.3557 -1.3580
 7387TIP3    H246357   0.942   2.772  10.283  0.4122 -0.6803 -0.0590
 7388TIP3   OH246358   4.574   1.273  12.092 -0.4835  0.0964 -0.0797
 7388TIP3    H146359   4.619   1.343  12.044  1.6423 -0.7398  0.6068
 7388TIP3    H246360   4.634   1.250  12.162 -2.0635 -1.0343  0.9530
 7389TIP3   OH246361   4.193   1.826  11.523  0.2613  0.3489  0.4321
 7389TIP3    H146362   4.226   1.916  11.518 -0.2732  0.5362  0.1802
 7389TIP3    H246363   4.219   1.795  11.610  2.6671 -0.1377 -0.3693
 7390TIP3   OH246364   0.914   4.596  12.511 -0.1778  0.4201  0.0579
 7390TIP3    H146365   0.847   4.559  12.568 -0.7703  2.4645  0.7898
 7390TIP3    H246366   0.996   4.586  12.560 -0.3067 -0.0115  0.1871
 7391TIP3   OH246367   1.562   6.143  11.727  0.1041  0.7227  0.1386
 7391TIP3    H146368   1.546   6.102  11.642 -0.8698  0.2050  0.5609
 7391TIP3    H246369   1.554   6.237  11.710 -0.3236  0.6142 -0.2932
 7392TIP3   OH246370   7.553   2.954  10.117  0.0899 -0.2413 -0.2659
 7392TIP3    H146371   7.460   2.938  10.103 -0.1754  1.8614 -1.3658
 7392TIP3    H246372   7.565   2.944  10.212 -1.4945  0.4203  0.0445
 7393TIP3   OH246373   4.682   1.464  11.930 -0.4787 -0.1167 -0.0055
 7393TIP3    H146374   4.777   1.465  11.937 -0.5899  1.1863  2.1873
 7393TIP3    H246375   4.654   1.548  11.968 -2.4171  0.7500 -2.9864
 7394TIP3   OH246376   2.908   4.500  10.681  0.0297 -0.1409 -0.2127
 7394TIP3    H146377   2.894   4.583  10.727 -1.0190  0.1481 -1.0138
 7394TIP3    H246378   3.001   4.480  10.696  0.0335  0.5979  0.9166
 7395TIP3   OH246379   0.650   4.203  10.123  0.1912 -0.3539 -0.3957
 7395TIP3    H146380   0.595   4.171  10.195 -1.2857 -1.9807 -2.1308
 7395TIP3    H246381   0.729   4.148  10.127 -0.4695 -1.3660 -0.7832
 7396TIP3   OH246382   4.638   1.568  10.453 -0.9410  0.3925 -0.0195
 7396TIP3    H146383   4.632   1.473  10.442  0.2122  0.3641 -0.4969
 7396TIP3    H246384   4.729   1.589  10.431 -1.0954  1.5652  0.4087
 7397TIP3   OH246385   2.152   3.488  12.468 -0.2309  0.0752  0.0607
 7397TIP3    H146386   2.162   3.550  12.396 -0.4518 -0.2812 -0.2767
 7397TIP3    H246387   2.071   3.515  12.512 -0.0172  0.3848  0.2701
 7398TIP3   OH246388   6.741   1.012  10.493  0.1895 -0.1959 -0.0236
 7398TIP3    H146389   6.665   0.990  10.547  1.1053 -0.3659  1.2342
 7398TIP3    H246390   6.813   1.024  10.556  1.0366  0.7064 -1.1254
 7399TIP3   OH246391   3.957   2.777  11.658  0.5684 -0.3923  0.3067
 7399TIP3    H146392   3.955   2.865  11.620 -0.2312  0.4822  2.2790
 7399TIP3    H246393   4.044   2.770  11.697  0.8809 -0.7713 -0.4255
 7400TIP3   OH246394   6.875   6.497  11.984  0.2399 -1.0087  0.0629
 7400TIP3    H146395   6.860   6.491  11.890 -0.9421  1.0420  0.0579
 7400TIP3    H246396   6.805   6.445  12.023 -0.9560  0.3683 -0.1751
 7401TIP3   OH246397   7.598   5.435  11.107  0.0391  0.1203  0.4244
 7401TIP3    H146398   7.573   5.368  11.044 -0.1132  1.8538 -1.4772
 7401TIP3    H246399   7.686   5.409  11.136  0.1596 -0.6732 -0.5960
 7402TIP3   OH246400   1.338   6.715  11.094 -0.5103  0.2106  0.3387
 7402TIP3    H146401   1.369   6.780  11.158  0.0769  0.7610 -0.4678
 7402TIP3    H246402   1.246   6.738  11.079 -0.3599  0.7537  0.2023
 7403TIP3   OH246403   2.129   5.936  12.775 -0.0867  0.1451  0.5476
 7403TIP3    H146404   2.142   5.971  12.687 -3.2835 -0.4798 -0.3102
 7403TIP3    H246405   2.203   5.877  12.789 -0.4021 -1.1833 -2.5581
 7404TIP3   OH246406   4.499   3.765  11.410 -0.1089  0.0487  0.3340
 7404TIP3    H146407   4.417   3.814  11.413 -1.1526 -1.5106 -0.8012
 7404TIP3    H246408   4.533   3.768  11.499 -0.9817  1.3946  0.6439
 7405TIP3   OH246409   2.020   6.246  11.337  0.0383 -0.4691  0.1556
 7405TIP3    H146410   1.992   6.214  11.251  1.5236  2.6717 -1.6767
 7405TIP3    H246411   2.107   6.208  11.349 -0.1305 -0.8327  0.2405
 7406TIP3   OH246412   1.041   0.124  10.432  0.2732 -0.7454  0.5116
 7406TIP3    H146413   0.953   0.153  10.457  0.3885  0.3970 -0.3290
 7406TIP3    H246414   1.095   0.142  10.509  0.4096  1.7189 -0.0703
 7407TIP3   OH246415   1.682   3.223  10.927  0.5559  0.0891 -0.1348
 7407TIP3    H146416   1.684   3.193  10.836  1.5386 -3.7344  0.9778
 7407TIP3    H246417   1.589   3.238  10.945  0.4426  2.4256 -2.0701
 7408TIP3   OH246418   1.065   5.401  11.055 -0.0868 -0.2619  0.2395
 7408TIP3    H146419   1.002   5.352  11.107  0.6340 -1.1228  0.3291
 7408TIP3    H246420   1.012   5.445  10.988 -0.9832  0.5715  1.4474
 7409TIP3   OH246421   0.820   7.635  12.187 -0.2812 -0.1212  0.9470
 7409TIP3    H146422   0.822   7.541  12.203 -1.0336 -0.1022  1.1813
 7409TIP3    H246423   0.908   7.665  12.210  0.6469 -1.0622 -1.1183
 7410TIP3   OH246424   5.523   1.839  11.868  0.4580  0.4380  0.1029
 7410TIP3    H146425   5.538   1.748  11.891  1.4130  0.6570  0.3624
 7410TIP3    H246426   5.478   1.876  11.945 -1.1347 -0.1125 -0.5188
 7411TIP3   OH246427   2.532   1.040  11.179 -0.1707 -0.1180  0.4306
 7411TIP3    H146428   2.525   1.117  11.122 -2.5548 -0.9790 -0.5974
 7411TIP3    H246429   2.572   0.973  11.124  0.6520 -0.0159  0.8902
 7412TIP3   OH246430   5.389   0.652  12.071 -0.2342 -0.0431 -0.1837
 7412TIP3    H146431   5.379   0.559  12.050 -1.0521 -0.6374  2.3716
 7412TIP3    H246432   5.481   0.671  12.056 -0.1630 -1.1202 -1.2111
 7413TIP3   OH246433   3.643   6.081  11.297 -0.4668  0.2504  0.1498
 7413TIP3    H146434   3.658   5.997  11.340  1.1948 -0.4395 -1.5671
 7413TIP3    H246435   3.704   6.141  11.340  0.7375 -0.2845 -0.7242
 7414TIP3   OH246436   1.225   7.677  12.505 -0.3696  0.0716 -0.0196
 7414TIP3    H146437   1.245   7.770  12.502  0.9133 -0.0756  1.9760
 7414TIP3    H246438   1.302   7.635  12.466  0.4167 -0.2177  1.7230
 7415TIP3   OH246439   4.130   4.669  11.850  0.1097 -0.1226  0.1907
 7415TIP3    H146440   4.087   4.642  11.931 -0.3807  2.0419  0.7226
 7415TIP3    H246441   4.167   4.589  11.814 -2.0266 -1.6044  1.1299
 7416TIP3   OH246442   5.116   1.261  11.932 -0.1896  0.3121 -0.0484
 7416TIP3    H146443   5.178   1.237  12.001  0.8038  0.7596 -0.7616
 7416TIP3    H246444   5.059   1.184  11.923 -0.5096  0.3322  1.4200
 7417TIP3   OH246445   5.727   7.109  11.721 -0.6183  0.0944  0.3781
 7417TIP3    H146446   5.732   7.154  11.806  1.3855 -1.0584  0.9396
 7417TIP3    H246447   5.769   7.025  11.736 -1.5177 -0.7307 -1.4286
 7418TIP3   OH246448   7.237   2.365  10.449  0.1348 -0.3057 -0.2257
 7418TIP3    H146449   7.330   2.385  10.460  0.3033  0.1803 -2.1793
 7418TIP3    H246450   7.235   2.294  10.386 -0.8327  0.0075 -0.5607
 7419TIP3   OH246451   4.965   3.230  10.575  0.0503  0.3487  0.4593
 7419TIP3    H146452   5.023   3.298  10.544 -1.2678  1.2262 -0.1811
 7419TIP3    H246453   4.921   3.268  10.651 -0.6468  0.2125  0.1369
 7420TIP3   OH246454   0.222   5.050  11.809 -0.1621  0.3402 -0.1973
 7420TIP3    H146455   0.167   5.010  11.742 -0.2933  1.8348 -1.0259
 7420TIP3    H246456   0.303   5.072  11.763  0.8835 -1.1652  0.8326
 7421TIP3   OH246457   4.900   5.542  10.828  0.0811  0.3808 -0.1320
 7421TIP3    H146458   4.857   5.623  10.857 -0.8972  0.8592 -2.6509
 7421TIP3    H246459   4.880   5.537  10.734 -0.0352 -2.8951 -0.0304
 7422TIP3   OH246460   1.117   3.069  10.882  0.0388 -0.9246 -0.1220
 7422TIP3    H146461   1.055   3.112  10.823 -1.9156 -2.1470  0.9421
 7422TIP3    H246462   1.105   3.115  10.966  1.9061 -0.0072 -0.3073
 7423TIP3   OH246463   3.955   6.272   9.899  0.4255  0.0505  0.3143
 7423TIP3    H146464   3.987   6.349   9.947  0.0781  0.5703 -0.2617
 7423TIP3    H246465   3.911   6.309   9.822 -0.5791 -0.6806  0.5175
 7424TIP3   OH246466   1.462   5.838  10.264  0.1229 -0.0423  0.3478
 7424TIP3    H146467   1.453   5.897  10.189 -0.5312  2.0581  1.9823
 7424TIP3    H246468   1.372   5.822  10.293  0.4019  0.5878  1.6725
 7425TIP3   OH246469   3.298   2.518  11.570 -0.0009  0.3198  0.4387
 7425TIP3    H146470   3.251   2.539  11.651  0.1819  2.6582  0.0030
 7425TIP3    H246471   3.254   2.570  11.502  1.8683  0.9643 -0.3429
 7426TIP3   OH246472   0.730   2.038  11.064  0.6866  0.9229  0.1121
 7426TIP3    H146473   0.733   1.969  11.131 -1.9240  1.4400  0.8717
 7426TIP3    H246474   0.809   2.089  11.079  0.4968  0.6502  2.4507
 7427TIP3   OH246475   5.368   2.107  11.595 -0.3508  0.4394  0.5321
 7427TIP3    H146476   5.318   2.179  11.635  0.4640  0.7243  1.0639
 7427TIP3    H246477   5.408   2.147  11.518  0.2718  0.6252  0.9429
 7428TIP3   OH246478   0.032   1.262  11.284  0.1202  0.1389  0.3798
 7428TIP3    H146479   0.119   1.252  11.245 -0.3486  0.7301 -0.8722
 7428TIP3    H246480   0.044   1.325  11.355  0.4030  1.6910 -0.9854
 7429TIP3   OH246481   4.755   1.874  11.229 -0.6549 -0.3841 -0.2227
 7429TIP3    H146482   4.822   1.900  11.167 -1.0125 -1.5105 -1.1092
 7429TIP3    H246483   4.781   1.786  11.257 -2.3375 -1.3442 -1.4875
 7430TIP3   OH246484   1.085   0.711   9.751 -0.1251 -0.0145  0.2099
 7430TIP3    H146485   1.132   0.780   9.706  0.3517 -0.7406 -0.4313
 7430TIP3    H246486   1.142   0.634   9.743 -0.4269 -0.3657  1.3121
 7431TIP3   OH246487   1.956   1.446  10.939  0.7293  0.7420  0.3118
 7431TIP3    H146488   1.981   1.513  11.003  1.0882  0.5889  0.3340
 7431TIP3    H246489   1.924   1.373  10.992 -0.7006  1.3107  0.2492
 7432TIP3   OH246490   7.157   3.502  10.357  0.1765 -0.2398  0.2525
 7432TIP3    H146491   7.174   3.432  10.420  2.1052 -0.5789 -0.5679
 7432TIP3    H246492   7.145   3.457  10.273  1.2812  0.3780 -0.2564
 7433TIP3   OH246493   0.445   0.973  10.850  0.3006  0.2486 -0.1877
 7433TIP3    H146494   0.468   1.019  10.770 -0.0268  2.5601  0.9568
 7433TIP3    H246495   0.367   1.018  10.882  0.7396 -0.2478  1.7115
 7434TIP3   OH246496   5.494   6.932  10.703 -0.3171 -0.4255  0.0607
 7434TIP3    H146497   5.438   6.940  10.626 -0.4008 -0.1696  0.1474
 7434TIP3    H246498   5.573   6.888  10.672  0.1178  0.6590 -0.4076
 7435TIP3   OH246499   7.367   5.038  10.084 -0.5246  0.0187  0.0196
 7435TIP3    H146500   7.311   4.963  10.062  1.0285 -1.2955  0.3652
 7435TIP3    H246501   7.316   5.114  10.058 -3.0028 -1.0449  1.4091
 7436TIP3   OH246502   4.191   5.879  10.477  0.4216  0.1360 -0.5375
 7436TIP3    H146503   4.262   5.861  10.416  2.0648 -0.4379  1.4324
 7436TIP3    H246504   4.207   5.969  10.507  0.4358 -0.0471  0.0270
 7437TIP3   OH246505   6.737   2.008  11.119 -0.0638 -0.0627  0.6834
 7437TIP3    H146506   6.655   2.058  11.118  0.3755  0.6722  0.3222
 7437TIP3    H246507   6.749   1.981  11.027  0.5327  0.5659  0.5731
 7438TIP3   OH246508   7.070   4.537  12.025 -0.0067 -0.1334 -0.2120
 7438TIP3    H146509   7.092   4.607  12.085 -0.0091 -0.8966  0.6955
 7438TIP3    H246510   7.152   4.491  12.008 -0.3974 -1.4340  1.1918
 7439TIP3   OH246511   4.870   3.451  11.295 -0.0226 -0.0754  0.5788
 7439TIP3    H146512   4.938   3.470  11.359  0.5224  0.4334 -0.1461
 7439TIP3    H246513   4.813   3.528  11.296  0.0631 -0.0099  0.3479
 7440TIP3   OH246514   4.161   5.578  10.686  0.7836  0.1197 -0.0764
 7440TIP3    H146515   4.231   5.589  10.622  0.5975 -0.2732 -0.3445
 7440TIP3    H246516   4.105   5.510  10.650 -1.3009  2.2998 -1.2579
 7441TIP3   OH246517   7.308   3.887  10.285 -0.6656 -0.6058 -0.0879
 7441TIP3    H146518   7.324   3.793  10.299 -0.9875 -0.8401 -1.1552
 7441TIP3    H246519   7.217   3.891  10.256 -0.2616 -0.1238 -1.3756
 7442TIP3   OH246520   5.113   0.355  12.591  0.0231  0.0804 -0.3395
 7442TIP3    H146521   5.182   0.300  12.553  0.0379 -0.6995  0.7524
 7442TIP3    H246522   5.046   0.292  12.618 -0.7619  0.7687 -0.6601
 7443TIP3   OH246523   0.675   4.866  12.372  0.4844  0.0513 -0.3099
 7443TIP3    H146524   0.672   4.957  12.401  2.3313 -0.0863  0.4649
 7443TIP3    H246525   0.766   4.854  12.342  0.3585 -1.6159 -0.1007
 7444TIP3   OH246526   0.451   2.224  12.997 -0.4836 -0.6611  0.0206
 7444TIP3    H146527   0.533   2.233  13.045 -0.2731 -0.3689 -0.3850
 7444TIP3    H246528   0.459   2.286  12.924 -0.6895 -1.2711 -0.5325
 7445TIP3   OH246529   2.501   7.139  10.201 -0.0642  0.2384  0.2367
 7445TIP3    H146530   2.521   7.114  10.291 -1.3737  1.6628  0.9709
 7445TIP3    H246531   2.486   7.234  10.206 -0.4070  0.2990 -1.4471
 7446TIP3   OH246532   6.653   1.791  10.499 -1.0263 -0.7578 -0.1849
 7446TIP3    H146533   6.687   1.720  10.444  0.4541 -0.4567  0.2887
 7446TIP3    H246534   6.570   1.758  10.532 -0.1535 -2.4820  0.4145
 7447TIP3   OH246535   7.082   1.824   9.979 -0.1717 -0.6179  0.6170
 7447TIP3    H146536   7.158   1.772  10.003 -0.4293 -1.1164  0.3753
 7447TIP3    H246537   7.027   1.764   9.927  0.9382  0.7230 -2.3317
 7448TIP3   OH246538   1.718   3.584  11.089  0.1793  0.3919 -0.0990
 7448TIP3    H146539   1.741   3.491  11.086 -1.7675 -0.2816  2.2792
 7448TIP3    H246540   1.709   3.609  10.997 -0.1172 -2.0235 -0.8006
 7449TIP3   OH246541   4.104   7.061   9.915  0.0702  0.0873  0.2429
 7449TIP3    H146542   4.069   7.142   9.879 -2.8772 -1.8447 -1.6810
 7449TIP3    H246543   4.196   7.062   9.891 -0.0255  2.5499 -0.2621
 7450TIP3   OH246544   3.799   2.972  11.365  0.0754 -0.1976  0.3040
 7450TIP3    H146545   3.735   2.912  11.403 -1.1512  1.2613  0.6563
 7450TIP3    H246546   3.860   2.916  11.318 -1.0328 -1.7011  0.5911
 7451TIP3   OH246547   3.057   5.928  11.167  0.9368  0.3778 -0.4706
 7451TIP3    H146548   3.123   5.995  11.151  1.1800  0.0467 -0.8801
 7451TIP3    H246549   2.975   5.967  11.136  0.8256  1.0148  0.5765
 7452TIP3   OH246550   7.679   6.481  10.904  0.3607 -0.4009  0.1294
 7452TIP3    H146551   7.606   6.467  10.844 -1.6439 -2.3649  2.7594
 7452TIP3    H246552   7.669   6.571  10.934  0.5324  0.1272 -1.3175
 7453TIP3   OH246553   7.450   0.729  12.217  0.3197  0.4534 -0.3780
 7453TIP3    H146554   7.378   0.792  12.207  0.2137  0.7157  1.6301
 7453TIP3    H246555   7.515   0.775  12.271  0.7722 -0.7363  0.1235
 7454TIP3   OH246556   3.843   2.564  10.741 -0.3351 -0.0490 -0.7071
 7454TIP3    H146557   3.840   2.628  10.671  0.2891  0.1137 -0.5947
 7454TIP3    H246558   3.929   2.578  10.782 -1.4819  1.2924  1.4242
 7455TIP3   OH246559   7.292   6.500  12.026  0.4696  0.2088 -0.0039
 7455TIP3    H146560   7.373   6.504  11.975  0.6583  1.5411  0.3547
 7455TIP3    H246561   7.228   6.549  11.973  0.3903  0.7064  0.5402
 7456TIP3   OH246562   4.497   2.349  10.598 -1.0599 -0.8231  0.1614
 7456TIP3    H146563   4.572   2.371  10.654 -1.0156  0.0631 -0.2235
 7456TIP3    H246564   4.420   2.370  10.652 -1.0318 -1.5191  0.4750
 7457TIP3   OH246565   7.276   1.859  10.744 -0.3416 -0.3523 -0.3852
 7457TIP3    H146566   7.227   1.850  10.663  0.6982  0.4775 -1.1398
 7457TIP3    H246567   7.348   1.918  10.722  0.9540 -1.4487  0.6931
 7458TIP3   OH246568   6.754   6.378  11.112 -0.7928  0.4544  0.0481
 7458TIP3    H146569   6.712   6.338  11.036 -0.2001 -0.6016  0.2425
 7458TIP3    H246570   6.686   6.429  11.155 -1.6641 -0.5548 -0.0944
 7459TIP3   OH246571   0.239   5.994  10.699  0.1765  0.1564  0.1552
 7459TIP3    H146572   0.165   6.022  10.645  1.5920 -0.5774 -2.3395
 7459TIP3    H246573   0.286   6.074  10.720  0.4258  0.3525 -1.0601
 7460TIP3   OH246574   6.782   6.825  10.033  0.4265 -0.5549 -0.7924
 7460TIP3    H146575   6.691   6.855  10.033  1.4166  2.8544 -0.3957
 7460TIP3    H246576   6.785   6.759  10.102 -1.7318 -0.7900 -0.8446
 7461TIP3   OH246577   6.660   2.761  11.042 -0.6545  0.2585  0.1513
 7461TIP3    H146578   6.714   2.815  10.984 -0.7890  1.3097  0.9533
 7461TIP3    H246579   6.586   2.735  10.988  0.4549 -0.9318 -0.8703
 7462TIP3   OH246580   6.115   3.157  10.543  0.2065 -0.7061 -0.5662
 7462TIP3    H146581   6.056   3.127  10.612 -0.7661  0.9831 -0.6043
 7462TIP3    H246582   6.084   3.114  10.464 -0.4812 -0.4591 -0.4396
 7463TIP3   OH246583   3.956   6.217  10.545 -0.3901  0.1128  0.0426
 7463TIP3    H146584   3.915   6.207  10.459  0.6602 -0.7027 -0.3793
 7463TIP3    H246585   3.891   6.266  10.596 -1.6415 -0.6089 -0.7771
 7464TIP3   OH246586   1.474   5.343  12.088 -0.4459  0.5166 -0.1603
 7464TIP3    H146587   1.467   5.264  12.142 -0.4127  0.1557 -0.6710
 7464TIP3    H246588   1.455   5.415  12.147  0.1547  0.1688  0.4616
 7465TIP3   OH246589   0.438   6.932  10.704 -0.1645  0.2474 -0.2493
 7465TIP3    H146590   0.477   6.927  10.791  1.3008  2.1454 -0.7273
 7465TIP3    H246591   0.346   6.909  10.718  0.2476 -0.4401  1.6194
 7466TIP3   OH246592   1.107   3.597  12.153 -0.2258 -0.1776 -0.3585
 7466TIP3    H146593   1.070   3.559  12.233  0.9369 -0.8119 -0.1008
 7466TIP3    H246594   1.117   3.690  12.174 -0.0662 -0.3122  0.1844
 7467TIP3   OH246595   2.682   4.261  10.908 -0.5404  0.0544  0.1155
 7467TIP3    H146596   2.736   4.236  10.833  0.3722 -0.9276  1.0790
 7467TIP3    H246597   2.743   4.265  10.981 -1.9461 -2.5117  1.5520
 7468TIP3   OH246598   1.644   1.970  12.386  0.0074  0.2611 -0.0261
 7468TIP3    H146599   1.604   2.056  12.371  0.2427  1.1027  3.3194
 7468TIP3    H246600   1.570   1.909  12.390 -0.4371  0.8131  0.3704
 7469TIP3   OH246601   5.589   3.444  11.554  0.5823  0.4951 -0.0765
 7469TIP3    H146602   5.497   3.453  11.531  0.1808  2.0540  1.8598
 7469TIP3    H246603   5.629   3.527  11.525  1.5561 -0.4124 -1.4673
 7470TIP3   OH246604   5.822   2.739  11.054  0.1636  0.1790 -0.2037
 7470TIP3    H146605   5.772   2.697  11.123  0.0716 -0.3564 -0.5886
 7470TIP3    H246606   5.770   2.816  11.030  0.9139  1.2210  1.3199
 7471TIP3   OH246607   0.488   4.701  10.385  0.3632 -0.3664  0.0753
 7471TIP3    H146608   0.563   4.693  10.325 -0.8260 -1.0686 -1.3631
 7471TIP3    H246609   0.471   4.795  10.389 -0.3862 -0.3782 -1.8314
 7472TIP3   OH246610   6.920   4.400  10.986  0.2402  0.4188 -0.4380
 7472TIP3    H146611   6.990   4.459  10.959  0.7782  0.2850  0.6193
 7472TIP3    H246612   6.863   4.454  11.041  0.1979  0.1913 -0.2604
 7473TIP3   OH246613   1.042   6.429  10.251 -0.4041 -0.4701  0.9479
 7473TIP3    H146614   1.081   6.503  10.204  0.4286 -1.5570 -0.1332
 7473TIP3    H246615   1.014   6.368  10.183 -0.5909 -1.3990  1.8238
 7474TIP3   OH246616   4.209   7.111  10.908 -0.0174  0.5305  0.1703
 7474TIP3    H146617   4.146   7.095  10.978  1.3514  0.6900  1.4830
 7474TIP3    H246618   4.294   7.105  10.950  0.9186 -0.5092 -1.7165
 7475TIP3   OH246619   3.564   6.806  10.711 -0.1697  0.2051 -0.0184
 7475TIP3    H146620   3.576   6.894  10.676  0.5585 -0.0419 -0.4215
 7475TIP3    H246621   3.473   6.785  10.691  0.1985  0.0977 -1.7770
 7476TIP3   OH246622   1.512   4.320  10.104 -0.4568  0.0154  0.3116
 7476TIP3    H146623   1.530   4.336  10.197 -0.2943  0.7925  0.1501
 7476TIP3    H246624   1.583   4.263  10.075 -1.4188 -1.6283  1.0644
 7477TIP3   OH246625   3.908   0.458  10.906 -0.5045 -0.4688  0.2561
 7477TIP3    H146626   3.942   0.490  10.990 -0.5546  0.1030  0.0600
 7477TIP3    H246627   3.977   0.477  10.843 -1.8779  2.4989 -0.5208
 7478TIP3   OH246628   5.805   7.262  10.499 -0.1212  0.7510 -0.3606
 7478TIP3    H146629   5.874   7.195  10.494 -1.6163 -1.2456  2.4715
 7478TIP3    H246630   5.804   7.288  10.591 -2.8584  0.9759 -0.3794
 7479TIP3   OH246631   5.115   5.232  18.708  0.2567  0.1522  0.2745
 7479TIP3    H146632   5.137   5.324  18.725  0.3925  0.1740 -0.0127
 7479TIP3    H246633   5.189   5.199  18.658  0.8056 -0.4591  1.4342
 7480TIP3   OH246634   1.446   2.941  12.809  0.2623  0.0137 -0.1781
 7480TIP3    H146635   1.477   2.877  12.873 -1.4844 -0.4564  0.2573
 7480TIP3    H246636   1.401   2.888  12.742  0.5401  0.6347 -0.8687
 7481TIP3   OH246637   5.205   6.501  12.199 -0.5480  0.4377 -0.7067
 7481TIP3    H146638   5.189   6.424  12.144  1.0837 -0.6860  0.2979
 7481TIP3    H246639   5.199   6.468  12.289 -0.7786  1.7080 -0.2340
 7482TIP3   OH246640   7.270   5.094  12.932 -0.0112 -0.2170  0.0422
 7482TIP3    H146641   7.339   5.138  12.981  0.4925 -0.8468 -0.0950
 7482TIP3    H246642   7.198   5.084  12.995 -0.4559  1.5090 -0.1354
 7483TIP3   OH246643   7.375   5.444  10.190  0.0472  0.0990  0.7621
 7483TIP3    H146644   7.364   5.524  10.241 -1.9074  0.3370  0.0471
 7483TIP3    H246645   7.414   5.382  10.251  1.1414  1.4193  1.4712
 7484TIP3   OH246646   4.671   0.064  11.205  0.2473 -0.5780  0.4097
 7484TIP3    H146647   4.632   0.040  11.289 -1.0256 -0.5883 -0.1599
 7484TIP3    H246648   4.707  -0.018  11.170  1.6830 -0.3899  1.3713
 7485TIP3   OH246649   5.008   5.683   9.785  0.4547  0.5914  0.1921
 7485TIP3    H146650   5.028   5.711   9.874  0.6866 -0.4177  0.4620
 7485TIP3    H246651   5.012   5.764   9.733  1.5277  0.9906  0.8761
 7486TIP3   OH246652   5.827   5.381  10.266  0.4766 -0.2938 -0.1088
 7486TIP3    H146653   5.766   5.400  10.337  0.6279  0.6116 -0.2045
 7486TIP3    H246654   5.839   5.465  10.222  1.7703 -0.4530 -0.1062
 7487TIP3   OH246655   7.198   5.557  11.600  0.0845  0.1519 -0.2330
 7487TIP3    H146656   7.215   5.536  11.508  2.9921 -3.3247  0.8462
 7487TIP3    H246657   7.110   5.525  11.616 -0.1727  0.0909 -1.6376
 7488TIP3   OH246658   6.086   7.504  12.921  0.3986  0.3577  0.4982
 7488TIP3    H146659   6.174   7.467  12.921  0.7270  1.1169  0.9122
 7488TIP3    H246660   6.099   7.598  12.906 -0.3650  0.4253  0.1949
 7489TIP3   OH246661   1.052   6.541  11.746  0.0563 -1.0341 -0.1242
 7489TIP3    H146662   1.048   6.623  11.794  0.1682 -0.1492 -1.5757
 7489TIP3    H246663   1.138   6.541  11.704 -0.0613 -1.7389 -0.3846
 7490TIP3   OH246664   7.228   0.644  12.692 -0.0636  0.5337  0.0052
 7490TIP3    H146665   7.292   0.615  12.627  0.0594  2.3592 -0.7249
 7490TIP3    H246666   7.178   0.565  12.712  0.4088 -0.2461 -1.7116
 7491TIP3   OH246667   0.713   5.703  10.546 -0.5711  0.3921 -0.4395
 7491TIP3    H146668   0.685   5.727  10.634  2.1330  3.0529 -0.1147
 7491TIP3    H246669   0.773   5.630  10.558 -0.8766  0.1865 -0.1696
 7492TIP3   OH246670   2.510   3.272  10.412 -0.0599  0.2886  0.0321
 7492TIP3    H146671   2.430   3.260  10.463  0.1549 -0.3799  0.2219
 7492TIP3    H246672   2.555   3.187  10.417 -0.2288  0.0719 -1.6204
 7493TIP3   OH246673   4.631   1.748   9.906  0.3454 -0.2197  0.2408
 7493TIP3    H146674   4.701   1.702   9.953  0.1906 -1.2720 -0.5251
 7493TIP3    H246675   4.637   1.716   9.816  0.6476  1.7774 -0.5003
 7494TIP3   OH246676   7.178   5.234  11.492 -0.8690  0.1083 -1.0810
 7494TIP3    H146677   7.208   5.154  11.535 -1.6113  0.2694 -0.2436
 7494TIP3    H246678   7.227   5.236  11.409  0.5005 -0.2696 -0.3237
 7495TIP3   OH246679   4.936   0.415  10.499  0.0466 -0.0854  0.3023
 7495TIP3    H146680   4.953   0.338  10.444 -0.3581  1.5840 -2.3469
 7495TIP3    H246681   4.863   0.389  10.555  0.6628 -1.9686  0.3129
 7496TIP3   OH246682   6.081   7.574  11.606  0.2396 -0.6823 -0.0680
 7496TIP3    H146683   5.998   7.621  11.614  0.3491 -0.1520 -1.6756
 7496TIP3    H246684   6.079   7.509  11.677 -0.9792  0.1524  0.6948
 7497TIP3   OH246685   6.668   0.421  11.181  0.0212 -0.3415 -0.4283
 7497TIP3    H146686   6.644   0.449  11.092 -2.0333  0.4883  0.3186
 7497TIP3    H246687   6.741   0.361  11.168 -0.5000 -0.5924 -2.7214
 7498TIP3   OH246688   3.424   1.858  10.895 -0.0049  0.0314 -0.5285
 7498TIP3    H146689   3.508   1.892  10.928 -0.3121  0.0139  0.3002
 7498TIP3    H246690   3.358   1.915  10.935 -0.4134 -0.2563 -0.7870
 7499TIP3   OH246691   2.961   2.351  12.062 -0.0242 -0.1623 -0.0665
 7499TIP3    H146692   3.037   2.386  12.107 -1.1032  1.9851  0.2018
 7499TIP3    H246693   2.893   2.418  12.073 -1.2712 -0.9545 -2.2507
 7500TIP3   OH246694   1.072   2.076  10.594  0.7831 -0.3342  0.1396
 7500TIP3    H146695   1.111   2.065  10.508  2.0448 -0.0981  0.6638
 7500TIP3    H246696   1.059   1.987  10.627  0.6744 -0.4173 -0.1275
 7501TIP3   OH246697   1.047   6.214  12.333  0.2009 -0.2877  0.5456
 7501TIP3    H146698   0.955   6.222  12.360 -0.5144 -1.1577 -1.4335
 7501TIP3    H246699   1.086   6.298  12.358 -0.8554 -0.2664  2.3206
 7502TIP3   OH246700   6.201   1.723  12.332 -0.7149  0.4496 -0.6448
 7502TIP3    H146701   6.132   1.692  12.391 -0.9135  0.6271 -0.7824
 7502TIP3    H246702   6.274   1.746  12.389 -1.1244  1.1983 -0.4228
 7503TIP3   OH246703   2.683   7.561  11.501  0.2319 -0.0461  0.2317
 7503TIP3    H146704   2.719   7.479  11.533 -0.5181 -0.8829 -0.9888
 7503TIP3    H246705   2.605   7.576  11.554 -0.1632 -0.6385 -0.1665
 7504TIP3   OH246706   7.599   3.749  10.081  0.5298  0.6881 -0.3421
 7504TIP3    H146707   7.545   3.740  10.159 -0.1275  1.5391 -0.6818
 7504TIP3    H246708   7.550   3.702  10.013  1.5610 -0.8733 -0.0594
 7505TIP3   OH246709   5.859   7.497  10.381  0.6440 -0.1655  0.1106
 7505TIP3    H146710   5.832   7.414  10.421 -0.7622 -0.1695 -0.7677
 7505TIP3    H246711   5.777   7.543  10.364  1.3800  1.2041  0.1140
 7506TIP3   OH246712   0.897   1.893  10.834 -0.2724 -0.3603 -0.1470
 7506TIP3    H146713   0.934   1.805  10.839  0.0841 -0.1632  0.9875
 7506TIP3    H246714   0.904   1.917  10.742  0.3988 -1.1974 -0.3221
 7507TIP3   OH246715   6.671   7.513  10.567  0.2649  0.0057  0.0997
 7507TIP3    H146716   6.612   7.441  10.590 -0.5007  0.3018 -0.8703
 7507TIP3    H246717   6.715   7.535  10.649 -0.8421 -0.3528  0.8143
 7508TIP3   OH246718   3.488   3.215  11.113 -0.6409 -0.1799 -0.1627
 7508TIP3    H146719   3.416   3.169  11.156 -1.7654  1.1296 -0.5861
 7508TIP3    H246720   3.462   3.219  11.020 -0.3408  0.8642 -0.2111
 7509TIP3   OH246721   4.843   1.572  12.734  0.4770  0.2878  0.3077
 7509TIP3    H146722   4.927   1.528  12.748  1.5032  2.6357  2.1255
 7509TIP3    H246723   4.850   1.611  12.647  1.6040  1.0787  0.7375
 7510TIP3   OH246724   0.419   0.909   9.817  0.8247  0.3306 -0.2315
 7510TIP3    H146725   0.403   0.845   9.748 -3.6427 -0.9001  1.6338
 7510TIP3    H246726   0.465   0.860   9.885 -0.1679 -0.2000  0.0762
 7511TIP3   OH246727   5.641   6.251  11.632 -0.0794  0.4196  0.1705
 7511TIP3    H146728   5.685   6.170  11.657 -0.0883  0.2284 -0.4165
 7511TIP3    H246729   5.674   6.317  11.693  2.2567  0.6527 -1.2127
 7512TIP3   OH246730   4.312   1.178  10.508  0.6029 -0.1460  0.3131
 7512TIP3    H146731   4.366   1.177  10.587  1.2595 -0.3817 -0.1269
 7512TIP3    H246732   4.343   1.102  10.457 -0.5823 -0.6692  0.3392
 7513TIP3   OH246733   0.954   4.346  11.556 -0.1220  0.3182 -0.1260
 7513TIP3    H146734   0.889   4.309  11.498  1.2870 -0.6565 -1.1436
 7513TIP3    H246735   0.941   4.301  11.640  1.4896 -2.5626 -1.2918
 7514TIP3   OH246736   0.749   4.676  10.316  0.0549  0.2478  0.0766
 7514TIP3    H146737   0.781   4.587  10.331  2.2591  0.8809 -0.4844
 7514TIP3    H246738   0.813   4.732  10.361 -2.4156  1.5505  2.2817
 7515TIP3   OH246739   1.504   0.970  10.243 -0.1743  0.1526  0.6684
 7515TIP3    H146740   1.499   0.892  10.299  1.0211  0.4759  1.2679
 7515TIP3    H246741   1.444   0.952  10.171  1.0923 -1.9633  0.0396
 7516TIP3   OH246742   1.714   3.838  10.341  0.0818  0.7364  0.0492
 7516TIP3    H146743   1.691   3.746  10.341  2.2203  0.1174 -1.9327
 7516TIP3    H246744   1.771   3.848  10.417  0.7456  0.1470 -0.3617
 7517TIP3   OH246745   1.455   3.618  12.244 -0.2616 -0.0153  0.0450
 7517TIP3    H146746   1.411   3.702  12.231 -0.9782 -0.3378  0.3095
 7517TIP3    H246747   1.383   3.555  12.258  0.3157 -0.3215  1.9254
 7518TIP3   OH246748   0.130   7.492  11.588  0.3192  0.0990 -0.0566
 7518TIP3    H146749   0.176   7.576  11.591  0.9353 -0.1808 -1.0525
 7518TIP3    H246750   0.124   7.471  11.494 -2.7408  0.5690 -0.0368
 7519TIP3   OH246751   1.739   1.018  10.931 -0.2209 -0.2342  0.3280
 7519TIP3    H146752   1.831   1.009  10.954 -0.1074 -2.0674 -0.6526
 7519TIP3    H246753   1.739   1.034  10.836 -0.9008  0.1823  0.3888
 7520TIP3   OH246754   0.323   6.349  12.019 -0.7133  0.0171 -0.3670
 7520TIP3    H146755   0.345   6.419  11.958 -1.9807 -0.5974 -1.5688
 7520TIP3    H246756   0.245   6.381  12.065  1.5409  1.5213  2.7595
 7521TIP3   OH246757   1.864   0.413  10.203 -0.1629  0.5501 -0.0372
 7521TIP3    H146758   1.851   0.318  10.212  1.1345  0.3513 -0.1923
 7521TIP3    H246759   1.778   0.450  10.224 -0.2853 -0.5618  1.6401
 7522TIP3   OH246760   3.447   1.166  12.443  0.0531  0.3840  0.2856
 7522TIP3    H146761   3.426   1.194  12.532 -0.0312  1.1834  0.0243
 7522TIP3    H246762   3.542   1.157  12.442 -0.1294 -2.6568  1.3040
 7523TIP3   OH246763   5.126   2.193  10.259  0.6603  0.0330  0.0194
 7523TIP3    H146764   5.060   2.156  10.317  0.6213 -0.2915 -0.2273
 7523TIP3    H246765   5.208   2.152  10.286  0.7480  0.3625  0.2623
 7524TIP3   OH246766   1.086   3.095  10.120 -0.0435  0.4912  0.3540
 7524TIP3    H146767   1.173   3.058  10.108 -0.5758 -0.0982 -2.0998
 7524TIP3    H246768   1.030   3.021  10.142 -0.6289  0.1532 -2.0466
 7525TIP3   OH246769   5.408   3.746  11.622  0.6531  0.7834  0.1520
 7525TIP3    H146770   5.434   3.693  11.697 -0.6385 -0.8244 -0.4814
 7525TIP3    H246771   5.488   3.753  11.569  0.7898 -0.7975  0.1080
 7526TIP3   OH246772   4.106   3.261   9.767  0.0542 -0.6971  0.2452
 7526TIP3    H146773   4.065   3.217   9.842 -0.5411 -1.3489 -0.4428
 7526TIP3    H246774   4.135   3.345   9.802 -1.1076 -0.5730  0.9813
 7527TIP3   OH246775   5.533   5.545  12.055 -0.6530  0.1086  0.2880
 7527TIP3    H146776   5.509   5.626  12.012 -1.9885 -0.6092 -0.3776
 7527TIP3    H246777   5.609   5.513  12.006  1.1047  1.8425  1.7176
 7528TIP3   OH246778   7.154   1.460  11.255  0.1661  0.2676 -0.7229
 7528TIP3    H146779   7.066   1.430  11.279 -1.1063  1.2295 -3.6265
 7528TIP3    H246780   7.168   1.539  11.307  0.4084 -1.1632  1.5188
 7529TIP3   OH246781   1.333   1.616  11.830 -0.2466 -0.6937 -0.4050
 7529TIP3    H146782   1.245   1.594  11.800 -0.2930  0.5845 -1.2920
 7529TIP3    H246783   1.319   1.657  11.916 -0.5879  0.0586 -0.8107
 7530TIP3   OH246784   5.039   4.207  10.193  0.0561  0.0331  0.3973
 7530TIP3    H146785   4.986   4.146  10.143  0.7591 -0.0258 -0.3026
 7530TIP3    H246786   4.992   4.290  10.188  1.2172  0.6452 -2.4031
 7531TIP3   OH246787   5.003   0.991  12.224  0.8187  0.2035  0.1212
 7531TIP3    H146788   4.929   0.951  12.178  0.9039 -0.2560  0.3802
 7531TIP3    H246789   5.058   0.917  12.249  1.3259  0.5361  0.0018
 7532TIP3   OH246790   0.873   4.056  10.075  0.7229 -0.0502  0.1415
 7532TIP3    H146791   0.889   4.111   9.999 -4.2195  2.2553  0.3589
 7532TIP3    H246792   0.945   4.076  10.136  1.2438  3.2121 -1.3609
 7533TIP3   OH246793   1.092   0.449  10.521 -0.4415  0.0513 -0.2091
 7533TIP3    H146794   1.114   0.467  10.612 -2.9555 -1.2039  0.7458
 7533TIP3    H246795   1.175   0.425  10.480  0.4830 -1.3524  2.2668
 7534TIP3   OH246796   1.807   0.096   9.899  0.2555  0.1290  0.0903
 7534TIP3    H146797   1.878   0.147   9.940 -0.8232  0.5834  1.4816
 7534TIP3    H246798   1.727   0.143   9.923 -0.6499 -1.3463  0.0693
 7535TIP3   OH246799   6.013   1.606  12.512 -0.2338  0.2862  0.5824
 7535TIP3    H146800   5.969   1.691  12.518  2.9325  2.4337 -2.4415
 7535TIP3    H246801   5.966   1.558  12.444 -2.0690 -0.5265  2.3368
 7536TIP3   OH246802   5.997   0.708  10.580 -0.4324 -0.2173 -0.1380
 7536TIP3    H146803   5.944   0.731  10.657  0.4506 -1.0320  0.7425
 7536TIP3    H246804   6.066   0.773  10.578 -0.1870 -0.4694  0.0415
 7537TIP3   OH246805   6.696   5.311  11.951 -0.2443  0.1501  0.4388
 7537TIP3    H146806   6.748   5.230  11.943  0.4287  0.6425 -0.4157
 7537TIP3    H246807   6.648   5.316  11.868 -0.0170  0.8019  0.3456
 7538TIP3   OH246808   1.230   3.342  12.306 -0.1690  0.6400  0.6133
 7538TIP3    H146809   1.159   3.279  12.318 -0.0194  0.1340 -0.9489
 7538TIP3    H246810   1.188   3.421  12.274  0.0534 -0.1523 -1.8484
 7539TIP3   OH246811   6.749   1.331  10.159 -0.2062  0.4580  0.0975
 7539TIP3    H146812   6.826   1.352  10.107  0.5223 -0.3176  0.8220
 7539TIP3    H246813   6.732   1.238  10.141  1.5467 -0.5497  3.0027
 7540TIP3   OH246814   6.764   7.567  10.325 -0.1826 -0.3609 -0.0556
 7540TIP3    H146815   6.731   7.547  10.412  0.5918 -0.5121  0.2136
 7540TIP3    H246816   6.721   7.503  10.268 -1.9308  0.7514 -0.0617
 7541TIP3   OH246817   6.944   0.583   9.943 -0.0070  0.7429 -0.7981
 7541TIP3    H146818   6.852   0.581   9.919  0.0225 -0.7012 -0.8861
 7541TIP3    H246819   6.982   0.653   9.890 -1.2031  1.9219 -0.1363
 7542TIP3   OH246820   3.071   7.308  11.760  0.4695  0.6887  0.5266
 7542TIP3    H146821   3.100   7.220  11.738 -0.8841  0.4758 -0.5683
 7542TIP3    H246822   3.123   7.333  11.837  1.7594 -0.5561  0.0821
 7543TIP3   OH246823   0.767   7.243  11.035  0.0746 -0.0521 -0.5215
 7543TIP3    H146824   0.817   7.176  11.082  0.0968  0.0662 -0.3757
 7543TIP3    H246825   0.763   7.317  11.096 -0.2252 -0.0381 -0.5547
 7544TIP3   OH246826   6.163   5.114  12.865 -0.0832  0.1732 -0.5025
 7544TIP3    H146827   6.162   5.195  12.917  2.4805 -0.4336  0.6329
 7544TIP3    H246828   6.193   5.142  12.779  0.3445  0.5180 -0.2475
 7545TIP3   OH246829   7.201   3.226  10.937 -0.3714 -0.6420  0.1098
 7545TIP3    H146830   7.216   3.302  10.993  0.1153 -1.1131  0.6306
 7545TIP3    H246831   7.184   3.263  10.850 -0.1393  0.0557  0.3558
 7546TIP3   OH246832   3.427   2.601  12.231  0.3551  0.7105  0.2025
 7546TIP3    H146833   3.458   2.535  12.293 -1.2290  1.0286  1.4005
 7546TIP3    H246834   3.431   2.684  12.280 -0.3886  1.0581 -0.3106
 7547TIP3   OH246835   5.738   6.779  10.677 -0.2269  0.4232 -0.1445
 7547TIP3    H146836   5.751   6.748  10.766  4.0861  0.8335 -0.4440
 7547TIP3    H246837   5.746   6.700  10.623  1.4118  0.7181 -0.3643
 7548TIP3   OH246838   4.882   3.209  10.174 -0.0650 -0.1946  0.1884
 7548TIP3    H146839   4.905   3.117  10.184 -0.8913 -0.5161 -0.7641
 7548TIP3    H246840   4.962   3.250  10.138  0.4964 -0.4085  1.1683
 7549TIP3   OH246841   4.272   4.755  10.954 -0.3833 -0.3592  0.5128
 7549TIP3    H146842   4.364   4.767  10.930 -0.6076  1.6772  0.5210
 7549TIP3    H246843   4.275   4.712  11.039  0.7120  2.3082  1.9443
 7550TIP3   OH246844   3.907   3.320  10.539 -0.0238  0.0850 -0.0384
 7550TIP3    H146845   3.925   3.234  10.576  0.6110  0.5924  0.8860
 7550TIP3    H246846   3.930   3.312  10.446  1.3997 -0.3724  0.3226
 7551TIP3   OH246847   3.143   6.209  11.710  0.5383  0.2338 -0.2888
 7551TIP3    H146848   3.087   6.132  11.697  2.0680 -0.9343 -0.2891
 7551TIP3    H246849   3.227   6.184  11.672  1.5569  1.2979  1.1459
 7552TIP3   OH246850   7.534   6.591  12.359 -0.2665 -0.6016 -0.1431
 7552TIP3    H146851   7.618   6.546  12.365 -0.3968 -0.7849  0.3051
 7552TIP3    H246852   7.557   6.684  12.358 -0.0783 -0.6395  0.3524
 7553TIP3   OH246853   1.928   6.503  11.701  0.1667  0.4879  1.2675
 7553TIP3    H146854   1.974   6.538  11.777 -1.1033  2.2532  1.2904
 7553TIP3    H246855   1.998   6.481  11.639  1.1551  0.2496  2.4340
 7554TIP3   OH246856   1.380   3.444  10.829 -0.2341 -0.2571  0.7871
 7554TIP3    H146857   1.303   3.501  10.822  1.3117  1.8269 -0.3067
 7554TIP3    H246858   1.439   3.475  10.760  1.0133 -2.7653  0.6230
 7555TIP3   OH246859   0.704   7.200   9.728 -0.5480  0.1367  0.0915
 7555TIP3    H146860   0.618   7.242   9.732 -1.1713 -1.2028  2.3429
 7555TIP3    H246861   0.726   7.181   9.819  1.7679 -0.3236 -0.4986
 7556TIP3   OH246862   7.591   4.620  10.359  0.2483 -0.3922 -0.1957
 7556TIP3    H146863   7.684   4.643  10.356 -0.1796  1.4976 -2.3350
 7556TIP3    H246864   7.557   4.667  10.435  0.8260 -0.1158 -0.1034
 7557TIP3   OH246865   6.344   1.200  11.531  0.4897  0.1287 -0.3152
 7557TIP3    H146866   6.432   1.211  11.566  0.2529  0.4104  0.1971
 7557TIP3    H246867   6.320   1.287  11.498  0.7735 -0.1652 -1.3528
 7558TIP3   OH246868   5.743   1.291  11.423 -0.1014  0.0120 -0.1300
 7558TIP3    H146869   5.766   1.286  11.330  0.5309  3.2309 -0.2819
 7558TIP3    H246870   5.827   1.287  11.468 -0.5315 -4.4069  0.6856
 7559TIP3   OH246871   1.287   2.560  12.138 -0.0979  0.5092  0.1726
 7559TIP3    H146872   1.382   2.575  12.132 -0.1816  0.5599 -1.5988
 7559TIP3    H246873   1.252   2.601  12.059 -1.2291 -2.2686 -0.8890
 7560TIP3   OH246874   1.668   4.265  10.899  0.1732  0.0242  0.4269
 7560TIP3    H146875   1.698   4.330  10.963 -0.1580 -0.9219  1.5799
 7560TIP3    H246876   1.577   4.248  10.924 -0.2979  0.3842 -0.9418
 7561TIP3   OH246877   5.368   5.400  10.566 -0.2460  0.3234 -0.6712
 7561TIP3    H146878   5.348   5.328  10.507 -0.0295 -0.2263 -0.0851
 7561TIP3    H246879   5.311   5.472  10.537  0.4617  0.3438 -2.0599
 7562TIP3   OH246880   2.417   4.219  10.748  0.1205 -0.8174 -0.2297
 7562TIP3    H146881   2.408   4.155  10.818 -2.1613  0.2070  0.5327
 7562TIP3    H246882   2.453   4.297  10.790  0.3234 -0.7316 -0.5571
 7563TIP3   OH246883   4.526   1.584  11.637  0.5437  0.5546 -0.1427
 7563TIP3    H146884   4.458   1.532  11.678  0.1518  0.2947 -1.0946
 7563TIP3    H246885   4.549   1.650  11.703 -3.1393  2.9630 -0.9773
 7564TIP3   OH246886   0.459   3.732  10.604 -0.4193 -0.4617  0.1937
 7564TIP3    H146887   0.409   3.672  10.660  0.5795 -0.4750  1.1226
 7564TIP3    H246888   0.550   3.704  10.615 -0.0699  0.3872 -0.4122
 7565TIP3   OH246889   2.699   7.467  11.246  0.0423  0.0577 -0.6694
 7565TIP3    H146890   2.712   7.479  11.340 -1.1995  1.1023 -0.6049
 7565TIP3    H246891   2.629   7.528  11.224 -0.1222 -0.6417 -2.1604
 7566TIP3   OH246892   6.487   2.466  11.076 -0.2588  0.1431  0.1516
 7566TIP3    H146893   6.490   2.530  11.005  1.6251  1.1811  1.0912
 7566TIP3    H246894   6.572   2.424  11.076 -0.5945 -0.5912  1.1376
 7567TIP3   OH246895   1.296   1.723  12.091  0.4539  0.2559 -0.1463
 7567TIP3    H146896   1.219   1.779  12.106  1.3279  1.9756 -1.6524
 7567TIP3    H246897   1.371   1.781  12.106  1.4496 -1.0103 -0.0790
 7568TIP3   OH246898   4.067   1.958  11.881 -0.7071 -0.1520  0.1880
 7568TIP3    H146899   4.065   1.913  11.965  2.0408 -1.7917 -0.4952
 7568TIP3    H246900   3.999   1.916  11.828 -1.8763  0.3169  1.2774
 7569TIP3   OH246901   4.904   7.650  11.690 -0.1861 -0.4758  0.0403
 7569TIP3    H146902   4.867   7.702  11.618  0.0549 -1.5979 -0.9286
 7569TIP3    H246903   4.830   7.602  11.725 -0.1103 -0.7674 -0.1960
 7570TIP3   OH246904   2.736   1.889  11.300  0.1337  0.4750 -0.0650
 7570TIP3    H146905   2.734   1.984  11.291  2.8351  0.5670 -0.8599
 7570TIP3    H246906   2.769   1.859  11.215  1.5268 -0.9279  0.9081
 7571TIP3   OH246907   0.685   1.667  10.712 -0.2943  0.7692 -0.2425
 7571TIP3    H146908   0.688   1.589  10.768 -1.0845  0.3548 -0.7500
 7571TIP3    H246909   0.736   1.642  10.635 -0.4312  0.7987 -0.3435
 7572TIP3   OH246910   4.767   0.910  12.599 -1.1531 -0.5497  0.3860
 7572TIP3    H146911   4.692   0.886  12.653 -0.3483 -1.9589  0.9486
 7572TIP3    H246912   4.793   0.997  12.630 -1.1966 -0.9998  1.7355
 7573TIP3   OH246913   3.447   3.683  10.324  0.0583  0.1754  0.2839
 7573TIP3    H146914   3.412   3.748  10.263  0.4129 -0.0729 -0.1914
 7573TIP3    H246915   3.431   3.720  10.411 -0.1749  0.6734  0.0306
 7574TIP3   OH246916   1.712   0.717  12.864 -0.3344  0.7713  0.2000
 7574TIP3    H146917   1.758   0.659  12.925  0.3209  1.0484 -0.0269
 7574TIP3    H246918   1.771   0.791  12.852  0.3024 -0.0301 -2.0703
 7575TIP3   OH246919   6.857   1.157  11.571 -0.1078  0.1703 -0.2155
 7575TIP3    H146920   6.950   1.155  11.594  0.3563 -0.5827 -1.9995
 7575TIP3    H246921   6.820   1.079  11.613  0.5538 -0.7489 -1.2746
 7576TIP3   OH246922   4.129   6.428  12.641 -0.0977  0.6139 -0.0573
 7576TIP3    H146923   4.170   6.421  12.727  2.5951 -1.6270 -1.3671
 7576TIP3    H246924   4.059   6.363  12.643  0.0444  0.4667  0.3929
 7577TIP3   OH246925   5.045   6.187  11.128 -0.0454 -0.2784  0.7213
 7577TIP3    H146926   4.966   6.194  11.181 -0.1385  0.2287  0.5214
 7577TIP3    H246927   5.087   6.273  11.135  0.5217 -0.5600  0.8757
 7578TIP3   OH246928   5.928   6.901  11.648  1.0429  0.1478  0.2516
 7578TIP3    H146929   6.004   6.936  11.601  0.8798 -0.8628 -0.7841
 7578TIP3    H246930   5.915   6.814  11.612  0.0807 -0.1360  1.2367
 7579TIP3   OH246931   1.478   3.355  10.494 -0.1712  0.3936  0.3812
 7579TIP3    H146932   1.532   3.332  10.569  0.1364 -2.4541 -0.6143
 7579TIP3    H246933   1.541   3.376  10.425 -0.3932 -0.0277  0.0508
 7580TIP3   OH246934   4.363   3.126  12.043  0.5799  0.1659 -0.0102
 7580TIP3    H146935   4.455   3.149  12.032  1.2740 -1.3024  2.0856
 7580TIP3    H246936   4.330   3.189  12.107  0.4209  0.0425  0.0301
 7581TIP3   OH246937   4.461   6.581  10.021  0.1305  0.0642  0.2898
 7581TIP3    H146938   4.420   6.667  10.014 -0.6628 -0.3804 -0.8153
 7581TIP3    H246939   4.549   6.593   9.984 -0.0057  0.3729  0.0692
 7582TIP3   OH246940   5.519   6.417  10.830  0.1346 -0.4456  0.0352
 7582TIP3    H146941   5.605   6.375  10.829  0.6513  0.5797 -0.1160
 7582TIP3    H246942   5.487   6.405  10.919  0.8943  0.0626  0.3830
 7583TIP3   OH246943   3.724   4.533  11.339 -0.0584  0.2209  0.3514
 7583TIP3    H146944   3.760   4.611  11.297 -1.3667  0.2149 -0.8487
 7583TIP3    H246945   3.795   4.469  11.333  0.9094  1.1879  1.0401
 7584TIP3   OH246946   2.775   3.750  10.307 -0.1753  0.5809  0.2937
 7584TIP3    H146947   2.741   3.660  10.313 -0.6522  0.6226 -1.4129
 7584TIP3    H246948   2.870   3.739  10.301 -0.1819  0.2381  0.7351
 7585TIP3   OH246949   4.543   4.733  10.319 -0.7161  0.5499  0.1298
 7585TIP3    H146950   4.486   4.787  10.263  1.8248  1.3194 -1.9240
 7585TIP3    H246951   4.528   4.643  10.289  0.3662  0.9206 -1.7061
 7586TIP3   OH246952   1.975   4.886  12.514 -0.3568 -0.3789 -0.2062
 7586TIP3    H146953   2.063   4.852  12.494  0.7855  0.6598  2.5179
 7586TIP3    H246954   1.938   4.822  12.574 -0.1111  0.7201  1.1772
 7587TIP3   OH246955   4.924   3.072  10.908 -0.1572  0.1742 -0.0965
 7587TIP3    H146956   4.877   3.094  10.988  0.8320  1.0335  0.2739
 7587TIP3    H246957   4.997   3.134  10.906 -0.3248  0.3615 -1.8063
 7588TIP3   OH246958   2.066   5.358  10.139 -0.6652 -0.0076 -0.0561
 7588TIP3    H146959   1.976   5.328  10.130 -1.0755  0.6470  1.5522
 7588TIP3    H246960   2.096   5.320  10.221  0.0030  1.0170  0.1906
 7589TIP3   OH246961   1.007   3.609  10.171  0.4519 -0.3559  0.5310
 7589TIP3    H146962   1.058   3.673  10.221 -0.4201  1.1141 -0.3709
 7589TIP3    H246963   1.042   3.615  10.082  1.6955 -2.6203  0.8122
 7590TIP3   OH246964   2.027   0.287   9.935 -0.1890 -0.1345  0.7942
 7590TIP3    H146965   2.048   0.271   9.843 -1.5104 -2.8702  0.8564
 7590TIP3    H246966   2.096   0.346   9.966  3.1442 -2.9020 -0.7192
 7591TIP3   OH246967   1.074   1.487  11.400  0.3844  0.0069  0.1585
 7591TIP3    H146968   1.150   1.541  11.423  0.6561  0.1124 -0.8926
 7591TIP3    H246969   1.004   1.550  11.383  0.7227  0.0695 -1.1442
 7592TIP3   OH246970   4.378   7.642  11.338  0.2759 -0.4005  0.1643
 7592TIP3    H146971   4.361   7.735  11.349 -1.2692 -0.8819  2.3722
 7592TIP3    H246972   4.328   7.617  11.261  2.0981  0.8731 -1.5228
 7593TIP3   OH246973   3.127   5.471  11.394 -0.6687 -0.2266  0.0615
 7593TIP3    H146974   3.182   5.409  11.443 -1.6191  0.5115  2.1568
 7593TIP3    H246975   3.190   5.533  11.356  0.0204  0.5974  2.3949
 7594TIP3   OH246976   6.048   1.234  11.115  0.2030 -0.0805  0.0268
 7594TIP3    H146977   6.063   1.324  11.145 -0.4692  0.0390  0.0240
 7594TIP3    H246978   6.129   1.188  11.136  0.5199  0.5052  0.1133
 7595TIP3   OH246979   0.421   6.484  11.583 -0.3639 -0.3349  0.3438
 7595TIP3    H146980   0.515   6.471  11.565 -0.5214  0.0080 -0.8412
 7595TIP3    H246981   0.392   6.543  11.513 -1.7970 -1.6676 -0.2331
 7596TIP3   OH246982   4.416   5.919  11.028  0.0604  0.0299  0.2009
 7596TIP3    H146983   4.507   5.948  11.021  0.7649 -1.8478  0.8232
 7596TIP3    H246984   4.386   5.911  10.938  0.9418 -0.5584 -0.0507
 7597TIP3   OH246985   2.063   5.570  12.008  0.4450  0.6282  0.5111
 7597TIP3    H146986   2.011   5.612  12.077 -0.3462  1.1467 -0.3796
 7597TIP3    H246987   2.051   5.627  11.931  0.9342 -0.1910 -0.1838
 7598TIP3   OH246988   6.290   0.372  12.732 -0.1055 -0.6461 -0.2757
 7598TIP3    H146989   6.277   0.465  12.749  1.6957 -0.2117 -0.9882
 7598TIP3    H246990   6.349   0.342  12.802  1.4188 -0.5876 -1.4772
 7599TIP3   OH246991   7.318   5.578  11.039 -0.0942  1.2619 -0.3577
 7599TIP3    H146992   7.332   5.512  10.971 -1.1514 -0.8223  1.3280
 7599TIP3    H246993   7.400   5.581  11.087 -0.4588  0.1359  0.3713
 7600TIP3   OH246994   1.096   4.817   9.843  0.2650  0.5128  0.0667
 7600TIP3    H146995   1.049   4.734   9.833  3.1211 -1.2029 -0.1938
 7600TIP3    H246996   1.079   4.864   9.761  0.3321 -0.7680 -0.7005
 7601TIP3   OH246997   3.198   2.052  10.971 -0.1361  0.1069  1.0803
 7601TIP3    H146998   3.122   2.007  10.933  0.5737  0.2689 -0.6272
 7601TIP3    H246999   3.243   2.090  10.895  0.6936  1.4963  2.2374
 7602TIP3   OH247000   2.594   0.848  12.582 -0.2306  0.5391 -0.2957
 7602TIP3    H147001   2.670   0.832  12.638 -0.5440  2.0676  0.6224
 7602TIP3    H247002   2.585   0.943  12.580 -0.8909  0.4751 -2.1018
 7603TIP3   OH247003   1.663   5.170  11.257  0.4767 -0.5070  0.1049
 7603TIP3    H147004   1.585   5.226  11.266 -0.7238 -1.8134 -1.4909
 7603TIP3    H247005   1.721   5.221  11.200 -0.0343 -0.3173 -0.2616
 7604TIP3   OH247006   1.408   6.172  10.094 -0.3104  0.5171 -0.0945
 7604TIP3    H147007   1.399   6.238  10.025 -0.7063 -0.6682 -1.2205
 7604TIP3    H247008   1.329   6.118  10.086  0.8141 -1.1653 -0.4016
 7605TIP3   OH247009   0.584   5.910  11.807  0.1736  0.6906 -0.5016
 7605TIP3    H147010   0.593   6.002  11.834 -0.7679  0.9451 -0.9949
 7605TIP3    H247011   0.673   5.876  11.806  0.5060  1.5181 -0.0185
 7606TIP3   OH247012   2.780   7.138  10.800  0.1784  0.0638  0.0090
 7606TIP3    H147013   2.819   7.105  10.881  0.3812 -1.0207 -0.5086
 7606TIP3    H247014   2.855   7.164  10.747  0.1079 -0.2810 -0.2618
 7607TIP3   OH247015   6.897   2.055  12.078 -0.1417 -0.1177  0.7414
 7607TIP3    H147016   6.982   2.100  12.069  0.5331 -1.5468 -0.3729
 7607TIP3    H247017   6.836   2.110  12.028  0.2198  0.6347  1.1019
 7608TIP3   OH247018   7.382   7.369  11.804  0.1349  0.1229  0.1530
 7608TIP3    H147019   7.368   7.303  11.737  0.8326 -0.4057  0.5148
 7608TIP3    H247020   7.459   7.419  11.775  0.6999 -0.3768  0.7438
 7609TIP3   OH247021   2.789   4.657  10.864  0.5105  0.0745 -0.3810
 7609TIP3    H147022   2.756   4.693  10.946  1.1758  0.0593 -0.1055
 7609TIP3    H247023   2.714   4.610  10.827  0.3692 -0.4082  0.4941
 7610TIP3   OH247024   2.471   0.189  12.554  0.5838  0.0447 -0.4802
 7610TIP3    H147025   2.454   0.184  12.648  1.7219  0.5608 -0.2327
 7610TIP3    H247026   2.392   0.229  12.518  0.3069  0.2450  0.3231
 7611TIP3   OH247027   5.974   0.936  11.777  0.3606 -0.0765 -0.6072
 7611TIP3    H147028   5.890   0.983  11.772  0.0796 -0.2336  1.4870
 7611TIP3    H247029   6.040   1.005  11.771 -0.0336  0.5645  1.4288
 7612TIP3   OH247030   4.455   7.367  11.665  0.2174 -0.1465 -0.5376
 7612TIP3    H147031   4.544   7.392  11.640 -0.2710  0.6449 -1.5680
 7612TIP3    H247032   4.467   7.303  11.735  1.6010 -0.3709 -0.9477
 7613TIP3   OH247033   6.505   4.859  11.759  0.3758  0.3820  0.4870
 7613TIP3    H147034   6.576   4.852  11.695  0.3400  0.4481  0.4395
 7613TIP3    H247035   6.498   4.771  11.797  1.2959  0.6697  1.3570
 7614TIP3   OH247036   6.537   2.709  11.663 -0.1427 -0.4758  0.1146
 7614TIP3    H147037   6.460   2.684  11.611  0.6754 -2.6166 -0.1647
 7614TIP3    H247038   6.582   2.774  11.609 -0.2367 -1.3547 -1.0531
 7615TIP3   OH247039   0.737   1.453  12.039  0.5539  0.2585 -0.2389
 7615TIP3    H147040   0.733   1.380  11.977 -2.5461  1.1117 -1.2263
 7615TIP3    H247041   0.711   1.414  12.123 -1.0517  0.1413 -0.7509
 7616TIP3   OH247042   3.081   5.847  10.091 -0.2037 -0.2835  0.2206
 7616TIP3    H147043   3.078   5.752  10.099 -0.0767 -0.3544 -0.5328
 7616TIP3    H247044   3.163   5.873  10.133 -0.3278 -0.4798  0.5931
 7617TIP3   OH247045   7.158   2.452  11.898 -0.2281 -0.1747 -0.3468
 7617TIP3    H147046   7.137   2.477  11.808 -0.8829  3.4824  0.6558
 7617TIP3    H247047   7.180   2.535  11.941  0.2338 -1.8036  2.8378
 7618TIP3   OH247048   0.897   4.849  10.861 -0.2063  0.3057  0.0188
 7618TIP3    H147049   0.864   4.802  10.785 -0.1593  1.6580 -0.8879
 7618TIP3    H247050   0.991   4.830  10.863 -0.2655  0.0049 -0.0546
 7619TIP3   OH247051   0.692   6.916  10.119  0.4584 -0.2399 -0.0944
 7619TIP3    H147052   0.717   6.991  10.173 -0.4103 -0.3834  0.5298
 7619TIP3    H247053   0.605   6.892  10.150 -0.3072 -0.0037 -1.9192
 7620TIP3   OH247054   0.461   5.216  10.061  0.2425  0.2238 -0.1010
 7620TIP3    H147055   0.400   5.204   9.988 -0.2203  1.5096  0.0598
 7620TIP3    H247056   0.507   5.132  10.067 -2.2008 -1.1721  0.4349
 7621TIP3   OH247057   1.703   1.299  12.165 -0.0951 -0.1550 -0.0686
 7621TIP3    H147058   1.621   1.312  12.213  0.3250 -0.1648  0.6585
 7621TIP3    H247059   1.731   1.388  12.141  0.9792  0.0938  1.8927
 7622TIP3   OH247060   5.376   0.401  12.318  0.6001 -0.7427 -0.4207
 7622TIP3    H147061   5.468   0.416  12.297  0.3208  1.1055 -0.4563
 7622TIP3    H247062   5.378   0.331  12.384  1.9918 -1.0153 -0.7251
 7623TIP3   OH247063   1.179   2.057  12.903  0.0061 -0.7024  0.3550
 7623TIP3    H147064   1.154   1.972  12.941  0.4022 -0.0267  2.2286
 7623TIP3    H247065   1.270   2.044  12.875 -0.3515 -1.2665 -0.6026
 7624TIP3   OH247066   7.664   1.765  10.426  0.0520  0.4344 -0.3353
 7624TIP3    H147067   7.660   1.685  10.479 -0.8652  0.3612 -0.4963
 7624TIP3    H247068   7.752   1.799  10.441  0.8625 -1.1896 -1.1110
 7625TIP3   OH247069   6.653   3.990  10.376  0.2937 -0.0087  1.2647
 7625TIP3    H147070   6.699   3.912  10.344 -1.5244 -0.3092 -0.8521
 7625TIP3    H247071   6.603   3.959  10.451 -0.0589 -0.7916  0.7185
 7626TIP3   OH247072   4.702   0.625  10.649  0.0141  0.6118  0.5575
 7626TIP3    H147073   4.613   0.659  10.658 -1.0087 -1.9552  1.1046
 7626TIP3    H247074   4.756   0.684  10.701 -1.2976  2.3620  0.0260
 7627TIP3   OH247075   4.389   1.878  10.977 -0.4938  1.0328  0.3648
 7627TIP3    H147076   4.441   1.942  10.929 -0.8804  0.4592 -0.8600
 7627TIP3    H247077   4.332   1.839  10.911  0.5514 -1.4281  0.8326
 7628TIP3   OH247078   5.125   0.105  10.533  0.0388  0.5640 -0.0977
 7628TIP3    H147079   5.148   0.148  10.615  1.0288  0.2867 -0.2165
 7628TIP3    H247080   5.031   0.088  10.540  0.5420 -1.9639  2.1775
 7629TIP3   OH247081   0.794   4.756  11.100  0.0550  1.0207 -0.9575
 7629TIP3    H147082   0.826   4.785  11.014  0.2020  1.5255 -0.7332
 7629TIP3    H247083   0.802   4.661  11.097 -0.0715  1.0234 -1.5579
 7630TIP3   OH247084   7.503   1.771  10.072  0.5634  0.0691  0.7896
 7630TIP3    H147085   7.504   1.862  10.044  0.3060 -0.2477 -0.3224
 7630TIP3    H247086   7.449   1.769  10.151 -2.1374  0.4261 -0.9194
 7631TIP3   OH247087   6.813   5.474  12.131 -0.2079 -0.1385 -0.5367
 7631TIP3    H147088   6.808   5.427  12.047  0.9718 -0.7446 -0.2884
 7631TIP3    H247089   6.800   5.407  12.197  0.7994 -0.0206 -0.1935
 7632TIP3   OH247090   3.384   4.543  12.014  1.4335  0.4469  0.0914
 7632TIP3    H147091   3.443   4.521  12.086  2.1662  4.0147  0.7814
 7632TIP3    H247092   3.318   4.599  12.053  1.2337  1.6143 -1.8093
 7633TIP3   OH247093   2.995   6.590  11.355  0.5086  0.0443  0.1416
 7633TIP3    H147094   3.079   6.564  11.394  0.4060 -0.6716 -0.0964
 7633TIP3    H247095   2.936   6.601  11.429 -0.1323 -2.8694  0.2048
 7634TIP3   OH247096   4.281   0.399  12.316 -0.0742  0.1291  0.0876
 7634TIP3    H147097   4.362   0.439  12.346  0.6975 -0.2636 -1.3912
 7634TIP3    H247098   4.304   0.357  12.233 -1.3635 -1.5185  0.5134
 7635TIP3   OH247099   3.677   2.036  10.411  0.5046  0.3121  0.0754
 7635TIP3    H147100   3.751   2.081  10.451 -0.0563  0.7983  0.5825
 7635TIP3    H247101   3.668   1.956  10.462 -0.4144  1.0816  1.1777
 7636TIP3   OH247102   4.507   0.969  11.468  0.2997  0.6822  0.0581
 7636TIP3    H147103   4.501   1.062  11.446  1.4526  0.5222 -1.0842
 7636TIP3    H247104   4.558   0.967  11.549 -0.5180  1.0740  0.5972
 7637TIP3   OH247105   3.559   4.393  10.938  0.1777  0.4757  0.4511
 7637TIP3    H147106   3.543   4.396  11.032 -0.4975 -1.5675  0.4546
 7637TIP3    H247107   3.551   4.484  10.909  1.3961  1.2991  2.4952
 7638TIP3   OH247108   5.656   4.218  10.592  0.6386 -0.3728  0.1617
 7638TIP3    H147109   5.672   4.265  10.674  0.8077 -0.4080  0.1496
 7638TIP3    H247110   5.599   4.275  10.541 -1.3598 -1.3320  1.2283
 7639TIP3   OH247111   7.103   1.167  10.686  0.1277  0.0839 -0.4717
 7639TIP3    H147112   7.150   1.137  10.764 -1.8393  0.6536  1.0351
 7639TIP3    H247113   7.011   1.147  10.705 -0.9407  3.8368 -0.8088
 7640TIP3   OH247114   7.398   1.150  12.543  0.5862  0.0714  0.1733
 7640TIP3    H147115   7.317   1.193  12.571 -0.9257 -2.1850 -0.4937
 7640TIP3    H247116   7.421   1.195  12.461 -0.9749 -0.3177 -0.5348
 7641TIP3   OH247117   1.102   3.526  12.483 -0.1088 -0.2676  0.0905
 7641TIP3    H147118   1.152   3.606  12.494  0.7723 -1.0300  1.9376
 7641TIP3    H247119   1.148   3.460  12.535 -0.7754 -2.0097 -1.3941
 7642TIP3   OH247120   2.084   3.047  12.462 -0.3697 -0.1489  0.6909
 7642TIP3    H147121   2.085   3.034  12.368 -0.6946 -3.0538  0.9939
 7642TIP3    H247122   2.170   3.084  12.482 -0.0738 -0.0592 -0.6747
 7643TIP3   OH247123   0.823   3.601  11.115 -0.0435  0.2466 -0.2837
 7643TIP3    H147124   0.869   3.642  11.188 -1.0268 -1.0690  1.1326
 7643TIP3    H247125   0.862   3.640  11.037  0.7091  2.0425  0.9391
 7644TIP3   OH247126   1.061   4.845  11.467 -0.3319 -0.6049  0.3629
 7644TIP3    H147127   1.016   4.777  11.517 -2.0025  0.5809  0.5812
 7644TIP3    H247128   0.990   4.900  11.432  0.9366  1.0884  0.3055
 7645TIP3   OH247129   4.367   4.464  10.626 -0.6195 -0.1655  0.0477
 7645TIP3    H147130   4.307   4.454  10.552 -1.7766 -0.0160  0.9529
 7645TIP3    H247131   4.391   4.557  10.625  0.6827 -0.4808 -1.1157
 7646TIP3   OH247132   2.429   5.360  12.622 -0.2933 -0.1688 -0.1359
 7646TIP3    H147133   2.391   5.273  12.607 -1.0085  0.2728 -0.9973
 7646TIP3    H247134   2.374   5.418  12.570 -0.0342  0.8485  0.7063
 7647TIP3   OH247135   0.587   7.014  11.758 -0.1141  0.2112 -0.1012
 7647TIP3    H147136   0.683   7.021  11.758  0.0424 -1.2220  1.4632
 7647TIP3    H247137   0.560   7.058  11.839 -0.5198 -1.5467  0.7684
 7648TIP3   OH247138   0.043   0.012  12.086 -0.4194  0.1993  0.2444
 7648TIP3    H147139   0.047   0.104  12.109 -2.0421  0.3090  0.2397
 7648TIP3    H247140   0.027   0.011  11.992  1.3890 -0.1554 -0.1010
 7649TIP3   OH247141   2.994   0.499  12.828  0.0332 -0.2561 -0.8076
 7649TIP3    H147142   3.061   0.496  12.896  0.5108  1.3457 -1.1606
 7649TIP3    H247143   2.971   0.407  12.813 -0.5758 -0.6412  1.9567
 7650TIP3   OH247144   3.117   7.540  11.261  0.1635  0.5767 -0.2131
 7650TIP3    H147145   3.096   7.478  11.332  0.0682  1.9331  0.9994
 7650TIP3    H247146   3.070   7.620  11.286  1.7242  1.7040 -0.7843
 7651TIP3   OH247147   5.741   6.384  11.856  0.4259 -0.1327  0.5068
 7651TIP3    H147148   5.764   6.473  11.828 -0.1073  0.1594  0.9688
 7651TIP3    H247149   5.821   6.333  11.842  0.5222  0.2497 -0.4641
 7652TIP3   OH247150   2.276   2.302  12.043  0.2505  0.9105 -0.3300
 7652TIP3    H147151   2.202   2.305  11.983  0.2530 -0.7709 -0.4632
 7652TIP3    H247152   2.277   2.213  12.076  0.4049  1.7160  2.0107
 7653TIP3   OH247153   2.486   0.002  10.240 -0.0404 -0.5481 -0.3383
 7653TIP3    H147154   2.450   0.080  10.197 -0.1086 -0.4346 -0.0779
 7653TIP3    H247155   2.569  -0.015  10.194  0.0087 -0.2819 -0.3504
 7654TIP3   OH247156   3.178   7.105  10.754  0.1928  0.2340  0.6021
 7654TIP3    H147157   3.133   7.175  10.802  1.5916  1.5153  0.1177
 7654TIP3    H247158   3.193   7.142  10.667 -1.2091 -1.5981 -0.4780
 7655TIP3   OH247159   1.876   2.229  10.683 -0.4953 -0.0008  0.2973
 7655TIP3    H147160   1.939   2.269  10.624 -0.6704  1.3651  0.9818
 7655TIP3    H247161   1.797   2.284  10.675 -1.3163 -1.1723  0.0766
 7656TIP3   OH247162   0.307   1.411  11.367  0.6620 -0.0694  0.4014
 7656TIP3    H147163   0.373   1.465  11.411  0.7320 -0.8779  1.3191
 7656TIP3    H247164   0.358   1.356  11.307  0.3592  3.3668 -3.4825
 7657TIP3   OH247165   0.202   0.412  10.906  0.6055  0.0485  0.5577
 7657TIP3    H147166   0.116   0.418  10.950 -0.3525  0.2830 -1.2537
 7657TIP3    H247167   0.195   0.335  10.850  0.7386  1.3158 -1.2790
 7658TIP3   OH247168   0.294   6.333   9.962  0.1935 -0.0358 -0.1541
 7658TIP3    H147169   0.294   6.287  10.046 -1.1342 -0.5159 -0.3930
 7658TIP3    H247170   0.202   6.354   9.947  0.3099 -0.6093 -1.8244
 7659TIP3   OH247171   2.752   1.350  11.523  0.1209 -0.1283 -0.1425
 7659TIP3    H147172   2.692   1.367  11.595  1.3088 -0.4213  0.9461
 7659TIP3    H247173   2.833   1.392  11.549 -0.2205  2.4052 -2.6772
 7660TIP3   OH247174   3.287   4.121  10.686  0.4291 -0.6084  0.8222
 7660TIP3    H147175   3.204   4.074  10.677  0.7942 -1.3967  1.4705
 7660TIP3    H247176   3.347   4.057  10.724  1.1611  0.1538  0.9797
 7661TIP3   OH247177   6.370   1.007  12.479  0.2549 -0.2976  0.0620
 7661TIP3    H147178   6.341   0.932  12.428  0.4529 -1.2560  1.2983
 7661TIP3    H247179   6.313   1.008  12.556 -0.2266  1.2839 -0.2739
 7662TIP3   OH247180   7.288   2.283  10.796  0.4104 -0.5303  0.0336
 7662TIP3    H147181   7.214   2.264  10.738 -1.2126 -0.7306  2.0613
 7662TIP3    H247182   7.322   2.367  10.765 -1.3036  0.0558 -0.3362
 7663TIP3   OH247183   1.091   2.040  11.477 -0.8158 -0.0086  0.3643
 7663TIP3    H147184   1.173   2.052  11.430 -0.3794  2.6297  1.5834
 7663TIP3    H247185   1.102   1.957  11.524 -0.1659 -1.2614 -1.8660
 7664TIP3   OH247186   6.665   0.332   9.920 -0.2394  0.4309 -0.0740
 7664TIP3    H147187   6.585   0.329   9.972  0.1458  1.5937  0.6358
 7664TIP3    H247188   6.660   0.416   9.874  0.2165  0.1655 -0.6234
 7665TIP3   OH247189   2.448   6.568  10.585 -0.4123 -0.0445  0.1234
 7665TIP3    H147190   2.427   6.658  10.610  0.7148  0.5125 -0.8643
 7665TIP3    H247191   2.499   6.576  10.504 -0.6172 -1.5926 -0.1991
 7666TIP3   OH247192   3.387   5.757  11.927  0.1343  0.2907  0.0444
 7666TIP3    H147193   3.314   5.818  11.932 -1.1242 -1.2341  1.5587
 7666TIP3    H247194   3.432   5.766  12.012  0.9798  0.3410 -0.3968
 7667TIP3   OH247195   4.093   5.002  10.117  0.0943 -0.5177 -0.0204
 7667TIP3    H147196   4.012   4.959  10.144 -0.0386 -0.1635  0.1450
 7667TIP3    H247197   4.107   5.070  10.182  0.5812 -0.6446  0.0070
 7668TIP3   OH247198   2.713   5.229  11.036 -0.5598 -0.4052 -0.6995
 7668TIP3    H147199   2.743   5.138  11.039 -1.7261 -0.7763  1.1790
 7668TIP3    H247200   2.700   5.247  10.943  0.4875 -1.8704 -1.1662
 7669TIP3   OH247201   4.571   6.743  10.798 -0.1319 -0.1689  0.0951
 7669TIP3    H147202   4.610   6.666  10.756 -1.6629 -1.0470  0.2247
 7669TIP3    H247203   4.488   6.756  10.752  0.7585  2.3878 -0.9822
 7670TIP3   OH247204   1.869   2.808  12.099  0.0506 -0.5042 -0.3793
 7670TIP3    H147205   1.835   2.827  12.012 -0.8439  0.4272  0.1458
 7670TIP3    H247206   1.903   2.891  12.131 -0.0360 -0.7296  0.3206
 7671TIP3   OH247207   1.351   5.567  11.095 -0.2672  0.2538 -0.1729
 7671TIP3    H147208   1.275   5.524  11.054 -0.0062  0.3271 -0.7436
 7671TIP3    H247209   1.368   5.643  11.039  0.1522  0.3025  0.0223
 7672TIP3   OH247210   6.995   5.973  10.414  0.1510 -0.7048  0.2893
 7672TIP3    H147211   7.007   5.880  10.434  0.2865 -0.8180 -0.3008
 7672TIP3    H247212   6.994   5.977  10.319  0.8073 -0.0134  0.3062
 7673TIP3   OH247213   4.908   7.089  11.202  0.7178 -0.8108 -0.3613
 7673TIP3    H147214   4.944   7.093  11.113  0.0968  1.4669 -0.5807
 7673TIP3    H247215   4.815   7.107  11.190  0.5649 -0.8661  0.7169
 7674TIP3   OH247216   6.472   4.763  10.478  0.0695 -0.1105 -0.6852
 7674TIP3    H147217   6.394   4.752  10.533  0.2406  0.5974 -0.2905
 7674TIP3    H247218   6.512   4.676  10.475 -0.2170 -0.2669 -0.1052
 7675TIP3   OH247219   6.744   7.339  10.911 -0.2711 -0.2421  0.6600
 7675TIP3    H147220   6.736   7.382  10.996  2.2734 -0.7556  1.2588
 7675TIP3    H247221   6.793   7.402  10.857 -0.7147 -0.4601 -0.0121
 7676TIP3   OH247222   7.054   6.380  11.369 -0.0329 -0.3119 -0.3362
 7676TIP3    H147223   7.001   6.322  11.315  1.2939 -1.2762 -0.6330
 7676TIP3    H247224   7.091   6.443  11.307 -1.2539  0.7431 -0.0509
 7677TIP3   OH247225   4.045   4.190  10.707  0.0590 -0.4300  0.1251
 7677TIP3    H147226   3.950   4.202  10.714  0.0190 -1.1426  0.9911
 7677TIP3    H247227   4.066   4.216  10.617 -0.6549  1.6122  0.4936
 7678TIP3   OH247228   1.936   3.084  10.063  0.0029  0.1810  0.0100
 7678TIP3    H147229   1.990   3.005  10.062 -0.6644 -0.2888  0.8555
 7678TIP3    H247230   1.994   3.152  10.097  0.1861 -0.2237  0.5080
 7679TIP3   OH247231   0.223   5.105  10.882 -0.4335  0.2862 -0.3878
 7679TIP3    H147232   0.133   5.080  10.861 -0.7144  0.9109  0.0578
 7679TIP3    H247233   0.244   5.054  10.960 -0.5448  0.4327 -0.2598
 7680TIP3   OH247234   4.555   3.589   9.948  0.0739  0.2531 -0.4172
 7680TIP3    H147235   4.641   3.547   9.940  0.9743  1.5449  1.6234
 7680TIP3    H247236   4.492   3.516   9.944  1.4445 -1.0862  0.8299
 7681TIP3   OH247237   3.105   3.964  11.858  0.7535 -0.7441  0.5790
 7681TIP3    H147238   3.110   3.962  11.953  0.7780 -1.8795  0.5605
 7681TIP3    H247239   3.079   3.876  11.833 -0.8525 -0.0396 -0.3827
 7682TIP3   OH247240   6.881   6.736  10.860 -0.0689  0.1408  0.4000
 7682TIP3    H147241   6.857   6.740  10.768  0.2198  1.6726  0.3725
 7682TIP3    H247242   6.813   6.787  10.905  0.3337  0.2312  0.9197
 7683TIP3   OH247243   1.845   3.159  11.400  0.2695  0.0423  0.4414
 7683TIP3    H147244   1.937   3.163  11.425  0.7736 -0.0244 -1.2365
 7683TIP3    H247245   1.805   3.235  11.442  1.6572  1.5492 -0.8125
 7684TIP3   OH247246   2.657   0.453  11.326 -0.1187  0.0673  0.3640
 7684TIP3    H147247   2.623   0.363  11.328  2.0339 -0.7981  1.6648
 7684TIP3    H247248   2.627   0.492  11.408 -0.1414  0.1659  0.3088
 7685TIP3   OH247249   6.005   0.372  11.149  0.2796 -0.1345  0.2421
 7685TIP3    H147250   6.085   0.377  11.201 -0.4696 -0.7418  1.5003
 7685TIP3    H247251   5.976   0.281  11.160 -0.3123 -0.0577 -0.6241
 7686TIP3   OH247252   1.493   5.250   9.993  0.0093  0.5377  0.2287
 7686TIP3    H147253   1.398   5.255   9.987 -0.0673 -0.0368  0.9492
 7686TIP3    H247254   1.515   5.161   9.967  0.5664  1.2974 -2.2588
 7687TIP3   OH247255   7.194   6.900  11.530  0.2076 -0.0463  0.0150
 7687TIP3    H147256   7.177   6.912  11.436  0.8975 -0.1369 -0.1283
 7687TIP3    H247257   7.268   6.958  11.548 -0.8597  1.1023  0.8375
 7688TIP3   OH247258   1.019   5.021  10.252 -0.3286 -0.1119  0.2583
 7688TIP3    H147259   1.057   5.009  10.339 -1.0411 -1.1684  0.4409
 7688TIP3    H247260   0.928   5.043  10.269 -0.6685 -1.1128 -0.2322
 7689TIP3   OH247261   7.171   5.555  11.314  0.1408  0.0435  0.1418
 7689TIP3    H147262   7.189   5.554  11.220 -1.4693  0.1886 -0.1998
 7689TIP3    H247263   7.100   5.491  11.325  1.3464 -1.1453  1.5167
 7690TIP3   OH247264   0.169   6.440  10.485  0.3774 -0.5850  0.6267
 7690TIP3    H147265   0.108   6.419  10.414  0.4933 -3.0745  1.1449
 7690TIP3    H247266   0.256   6.417  10.450  0.7674  0.7935  0.6542
 7691TIP3   OH247267   1.957   1.165  12.027 -0.2615 -0.0678 -0.2845
 7691TIP3    H147268   1.924   1.120  12.105  0.2722  2.7114  1.7303
 7691TIP3    H247269   1.910   1.249  12.028  1.5981  1.0523 -1.4780
 7692TIP3   OH247270   5.445   1.381  11.840 -0.1077  0.9959 -0.7087
 7692TIP3    H147271   5.486   1.332  11.912 -1.3775  1.5126  0.4012
 7692TIP3    H247272   5.421   1.314  11.776  0.1408  0.4186 -0.2102
 7693TIP3   OH247273   2.809   2.510  17.419  0.0816 -0.5602  0.6156
 7693TIP3    H147274   2.872   2.461  17.471  0.2502 -1.1154 -0.0954
 7693TIP3    H247275   2.862   2.568  17.364 -0.0977  0.0858  1.1088
 7694TIP3   OH247276   3.216   1.024  12.663  0.6329 -0.5213  0.1970
 7694TIP3    H147277   3.163   0.963  12.715 -0.0917  0.5318  0.7331
 7694TIP3    H247278   3.197   1.110  12.701 -0.1862  0.3350 -2.0153
 7695TIP3   OH247279   2.819   5.213  11.585  0.2607 -0.5404  0.3356
 7695TIP3    H147280   2.750   5.234  11.522  0.9375 -0.3016 -0.3295
 7695TIP3    H247281   2.866   5.295  11.598  1.0377 -0.9320  0.0318
 7696TIP3   OH247282   3.508   7.454  10.731 -0.0874  0.4629 -0.0680
 7696TIP3    H147283   3.541   7.384  10.787 -0.4850 -0.1011 -0.5250
 7696TIP3    H247284   3.548   7.534  10.766  0.1231  0.0491  0.6545
 7697TIP3   OH247285   0.558   3.341  10.950  0.1734  0.4905  0.2728
 7697TIP3    H147286   0.614   3.337  10.872  2.1511  2.3943  1.4978
 7697TIP3    H247287   0.544   3.250  10.974 -1.9509 -0.3107 -3.1882
 7698TIP3   OH247288   4.202   5.522  10.174  0.0148  0.4639  0.2281
 7698TIP3    H147289   4.137   5.461  10.139  1.2841  0.1651 -1.8080
 7698TIP3    H247290   4.154   5.603  10.189 -1.1098 -0.1706  0.1510
 7699TIP3   OH247291   6.587   2.166  10.114 -0.0080 -0.2366  0.2809
 7699TIP3    H147292   6.510   2.213  10.081  0.1831 -1.1084 -1.5046
 7699TIP3    H247293   6.566   2.074  10.104  0.9365 -0.5036  0.5872
 7700TIP3   OH247294   3.500   4.082  11.344 -0.5159 -0.2812  0.1880
 7700TIP3    H147295   3.437   4.130  11.291  0.4834 -0.0037 -0.8040
 7700TIP3    H247296   3.447   4.032  11.406 -1.6961 -0.0616 -0.6161
 7701TIP3   OH247297   3.341   1.513  10.579  0.3070  0.1269  0.8042
 7701TIP3    H147298   3.260   1.479  10.617 -1.1683  1.5395 -0.8873
 7701TIP3    H247299   3.365   1.448  10.513 -0.1696  0.2880  0.4614
 7702TIP3   OH247300   3.974   5.976  11.738  0.7185  0.3115  0.0138
 7702TIP3    H147301   4.058   6.019  11.725  0.5382  0.3208 -1.1674
 7702TIP3    H247302   3.996   5.883  11.751  0.8974  0.2539 -0.6553
 7703TIP3   OH247303   4.245   2.371  10.332  0.4338  0.1359 -0.0201
 7703TIP3    H147304   4.228   2.450  10.383  0.0762  0.5173 -0.7106
 7703TIP3    H247305   4.315   2.396  10.272 -2.1777  1.1797 -2.8711
 7704TIP3   OH247306   4.513   7.088  10.796  0.2055  0.2393 -0.8697
 7704TIP3    H147307   4.444   7.035  10.756  0.9546 -0.9506 -0.6401
 7704TIP3    H247308   4.485   7.178  10.782 -0.0806 -0.1393 -3.1343
 7705TIP3   OH247309   6.727   0.438  12.148 -0.2407 -0.0473 -0.6408
 7705TIP3    H147310   6.762   0.457  12.235 -1.4197 -1.7746  0.2653
 7705TIP3    H247311   6.774   0.498  12.090  1.0914  0.6576  1.0686
 7706TIP3   OH247312   7.020   5.290  12.272  0.5905 -0.2065  0.1242
 7706TIP3    H147313   6.932   5.254  12.270  0.1395  0.8837 -0.4232
 7706TIP3    H247314   7.072   5.229  12.220 -0.6739  1.1273 -2.9849
 7707TIP3   OH247315   2.167   3.273  10.294  0.9590  0.5363  0.4267
 7707TIP3    H147316   2.156   3.256  10.388  1.5572  0.5925  0.5078
 7707TIP3    H247317   2.224   3.349  10.289  0.3168  0.9980  0.0197
 7708TIP3   OH247318   4.289   4.804  10.184  0.0245 -0.3302  0.1593
 7708TIP3    H147319   4.218   4.858  10.148 -1.2070 -1.4950  0.7450
 7708TIP3    H247320   4.285   4.820  10.278  0.2266 -0.7697  0.2450
 7709TIP3   OH247321   5.348   0.367  11.987  0.3122  0.1905  0.6031
 7709TIP3    H147322   5.353   0.311  12.065  0.7043  1.0616  1.2187
 7709TIP3    H247323   5.267   0.341  11.944 -0.5549  0.5402  1.9620
 7710TIP3   OH247324   5.902   2.541  11.677  0.3574  0.6648 -0.3632
 7710TIP3    H147325   5.908   2.575  11.766 -0.5469  2.2011 -0.8432
 7710TIP3    H247326   5.927   2.449  11.684 -2.3337 -0.0463  1.9834
 7711TIP3   OH247327   3.249   0.954  11.981  0.1005 -0.2785 -0.1020
 7711TIP3    H147328   3.238   1.047  11.959 -0.5170 -0.6689 -1.5759
 7711TIP3    H247329   3.161   0.924  12.003  0.2431 -0.6044  0.0191
 7712TIP3   OH247330   6.228   7.629  11.197  0.5100  0.1765  0.3694
 7712TIP3    H147331   6.228   7.638  11.292 -0.2900  0.5219  0.3461
 7712TIP3    H247332   6.224   7.535  11.181 -0.6811  0.1627  0.6922
 7713TIP3   OH247333   6.743   1.197  11.195  0.4648  0.2594 -0.4566
 7713TIP3    H147334   6.804   1.144  11.145  1.0354 -0.1878  0.6673
 7713TIP3    H247335   6.781   1.201  11.283 -0.6296  0.7892  0.0184
 7714TIP3   OH247336   1.710   0.735  11.386  0.2075 -0.0377  0.0951
 7714TIP3    H147337   1.679   0.647  11.362  1.5606 -0.7008  0.6566
 7714TIP3    H247338   1.692   0.788  11.308  2.1590 -1.5461 -1.5335
 7715TIP3   OH247339   0.648   7.107  12.293  0.3971 -0.5983 -0.1478
 7715TIP3    H147340   0.584   7.046  12.330  1.6024 -2.0193 -0.3176
 7715TIP3    H247341   0.646   7.089  12.199 -1.4222  1.8067 -0.6694
 7716TIP3   OH247342   0.543   3.438  10.208 -0.4841 -0.5025  0.6618
 7716TIP3    H147343   0.485   3.509  10.237  0.0016 -0.0617  0.5754
 7716TIP3    H247344   0.594   3.477  10.137 -2.0235 -1.7163 -1.2120
 7717TIP3   OH247345   5.465   4.669  11.745  0.2922  0.0917 -0.5421
 7717TIP3    H147346   5.434   4.658  11.835 -0.4695  1.6347 -0.5903
 7717TIP3    H247347   5.452   4.762  11.726 -0.6540 -0.4214 -2.6498
 7718TIP3   OH247348   2.501   2.729  13.052  0.1141 -0.3403  0.7386
 7718TIP3    H147349   2.594   2.742  13.030 -0.1871  0.1872 -0.2907
 7718TIP3    H247350   2.485   2.637  13.033 -0.2816  0.1994 -2.0717
 7719TIP3   OH247351   2.954   5.585  10.174  0.1388  0.7356  0.3605
 7719TIP3    H147352   2.994   5.529  10.108 -0.2684  1.1529 -0.2523
 7719TIP3    H247353   2.867   5.547  10.189  0.2869  0.5529  0.7733
 7720TIP3   OH247354   6.418   7.104  12.021  0.0318  0.1943  0.1931
 7720TIP3    H147355   6.420   7.058  12.105 -0.3992  0.3678  0.2998
 7720TIP3    H247356   6.425   7.034  11.956  0.3103  0.0536  0.3709
 7721TIP3   OH247357   3.187   0.474  11.977 -0.2068 -0.0664  0.2175
 7721TIP3    H147358   3.211   0.454  12.067 -0.2915  0.9132  0.4723
 7721TIP3    H247359   3.152   0.563  11.981  0.4397  0.2541 -0.8911
 7722TIP3   OH247360   0.284   3.650  12.436 -0.3818  0.5547 -0.0359
 7722TIP3    H147361   0.321   3.607  12.358  2.3571 -1.2654  2.0491
 7722TIP3    H247362   0.258   3.577  12.492 -2.2895  1.8271  0.8029
 7723TIP3   OH247363   3.937   6.894  11.278  0.1987  0.4982  0.0810
 7723TIP3    H147364   4.008   6.928  11.332  0.2147 -0.6235  0.7794
 7723TIP3    H247365   3.892   6.830  11.333 -1.3400  1.1423 -0.3620
 7724TIP3   OH247366   4.968   5.501  11.489 -0.5992 -0.3114 -0.1605
 7724TIP3    H147367   4.990   5.477  11.579  0.6572 -0.0394 -0.3704
 7724TIP3    H247368   4.901   5.437  11.463 -0.5718 -0.7392  0.7751
 7725TIP3   OH247369   4.131   7.377  10.971 -0.2138  0.0818 -0.4176
 7725TIP3    H147370   4.187   7.324  10.914 -0.9232  1.0273 -2.0600
 7725TIP3    H247371   4.098   7.316  11.036  1.0290 -0.9330 -0.7013
 7726TIP3   OH247372   2.573   0.608  11.522  0.5717  0.1538 -0.0276
 7726TIP3    H147373   2.633   0.629  11.594  0.6687  0.8572 -0.3017
 7726TIP3    H247374   2.490   0.588  11.566  1.0249 -0.9646  0.3628
 7727TIP3   OH247375   7.347   1.387  11.928  0.5858 -0.2905  0.2491
 7727TIP3    H147376   7.316   1.323  11.992 -1.9085  0.2244 -0.3595
 7727TIP3    H247377   7.354   1.338  11.846  0.8943 -0.2915  0.2756
 7728TIP3   OH247378   1.924   4.523  10.828 -0.0058  0.5690  0.0617
 7728TIP3    H147379   1.922   4.588  10.898 -2.3527  0.0010  0.6290
 7728TIP3    H247380   1.957   4.571  10.752 -0.6178  2.1462  0.7402
 7729TIP3   OH247381   1.800   1.779  11.507  1.1307 -0.0693 -0.3117
 7729TIP3    H147382   1.882   1.815  11.472  1.0266  0.5956  0.1043
 7729TIP3    H247383   1.810   1.684  11.499  1.6770  0.0294 -0.8526
 7730TIP3   OH247384   1.067   4.661  11.903  0.1740 -0.9559 -0.5750
 7730TIP3    H147385   1.110   4.744  11.924 -0.4115 -0.6719 -0.4619
 7730TIP3    H247386   0.974   4.678  11.920  0.1449 -1.9039  0.3215
 7731TIP3   OH247387   2.249   1.682  11.265 -0.1140 -0.1301 -0.1400
 7731TIP3    H147388   2.312   1.719  11.327  0.4588 -1.0120 -0.1739
 7731TIP3    H247389   2.302   1.630  11.205 -0.8148 -0.4250 -0.5143
 7732TIP3   OH247390   3.565   0.404  10.573 -0.2183 -0.2715 -0.4282
 7732TIP3    H147391   3.649   0.450  10.562 -0.6043  0.3294 -0.8611
 7732TIP3    H247392   3.502   0.473  10.591 -0.3923 -0.8244  1.3773
 7733TIP3   OH247393   7.278   3.462  12.052 -0.4009 -0.2243  0.2810
 7733TIP3    H147394   7.191   3.456  12.090 -0.7729  3.0782  0.2883
 7733TIP3    H247395   7.337   3.439  12.124 -1.1990 -1.5146  0.5592
 7734TIP3   OH247396   5.682   2.561  11.528 -0.6508 -0.2195 -0.7105
 7734TIP3    H147397   5.757   2.533  11.581 -1.0695 -1.8505 -0.9376
 7734TIP3    H247398   5.667   2.652  11.555  3.1171  1.2083 -2.5876
 7735TIP3   OH247399   3.145   3.085  10.816  0.4151  0.4824 -0.3783
 7735TIP3    H147400   3.163   3.088  10.722 -0.5110  1.1457 -0.5522
 7735TIP3    H247401   3.211   3.026  10.852  0.5400 -0.0783 -1.5029
 7736TIP3   OH247402   2.748   6.883   9.927  0.2459 -0.5835  0.1217
 7736TIP3    H147403   2.691   6.932   9.867  1.8470  3.1392  1.3585
 7736TIP3    H247404   2.693   6.868  10.004 -0.0426  0.0760  0.0536
 7737TIP3   OH247405   4.799   7.455  11.238 -0.1355  0.7035  0.0676
 7737TIP3    H147406   4.827   7.365  11.220 -0.4365  0.9667 -2.0058
 7737TIP3    H247407   4.705   7.448  11.254 -0.1057  0.6253  0.2162
 7738TIP3   OH247408   0.671   2.763  11.699  0.1457 -0.0091  0.2480
 7738TIP3    H147409   0.758   2.773  11.659 -0.3765  0.4242 -0.8070
 7738TIP3    H247410   0.648   2.672  11.683 -0.0231  0.1403 -0.3640
 7739TIP3   OH247411   7.166   4.751  12.190 -0.3238 -0.1826 -0.2271
 7739TIP3    H147412   7.260   4.762  12.201 -0.4374  0.6596 -0.0215
 7739TIP3    H247413   7.129   4.766  12.277 -0.7264  0.5324 -0.5108
 7740TIP3   OH247414   7.615   0.991  10.080  0.3752 -0.2705  0.0190
 7740TIP3    H147415   7.709   1.003  10.072  0.3515 -0.8662 -1.8441
 7740TIP3    H247416   7.577   1.069  10.040 -0.0037  0.8348  2.3650
 7741TIP3   OH247417   3.645   2.068  10.125  0.0078  0.3971 -0.3989
 7741TIP3    H147418   3.736   2.093  10.109  0.5471 -0.5573  0.9355
 7741TIP3    H247419   3.636   2.071  10.220 -1.1709 -0.1311 -0.4766
 7742TIP3   OH247420   5.186   4.867  10.506  0.1413 -0.4881 -0.2967
 7742TIP3    H147421   5.255   4.883  10.571  0.0621 -0.4080 -0.2319
 7742TIP3    H247422   5.169   4.773  10.512 -1.7898 -0.0860  1.7695
 7743TIP3   OH247423   2.240   5.355  12.094  0.0636 -0.3581 -0.2619
 7743TIP3    H147424   2.171   5.419  12.080  1.1170  0.9645  0.3963
 7743TIP3    H247425   2.310   5.380  12.033  0.3180 -1.1415 -0.3054
 7744TIP3   OH247426   7.117   3.068  12.349 -0.3843 -0.0010 -0.1650
 7744TIP3    H147427   7.159   3.046  12.266  0.4784 -0.0347  0.2689
 7744TIP3    H247428   7.138   3.161  12.363 -1.2490  0.2400 -0.3925
 7745TIP3   OH247429   2.923   7.492  12.865 -0.6424 -0.2523 -0.3565
 7745TIP3    H147430   2.961   7.468  12.949 -2.6860 -0.9353  0.4374
 7745TIP3    H247431   2.855   7.426  12.850 -0.2120 -0.2619 -2.6459
 7746TIP3   OH247432   4.882   2.514  10.235 -0.5073 -0.2798  0.3705
 7746TIP3    H147433   4.809   2.459  10.265  0.5289 -1.2861  1.1548
 7746TIP3    H247434   4.861   2.535  10.144 -2.9658  1.4959  1.2371
 7747TIP3   OH247435   2.764   0.312  12.667 -0.2352  0.2365 -0.2706
 7747TIP3    H147436   2.840   0.274  12.624 -1.0503 -1.2173 -0.5005
 7747TIP3    H247437   2.731   0.242  12.724 -0.5190  1.3496  0.9832
 7748TIP3   OH247438   2.171   6.337  10.089 -0.2610 -0.3173 -0.5330
 7748TIP3    H147439   2.173   6.422  10.134  0.4987 -0.1816 -0.7960
 7748TIP3    H247440   2.222   6.352  10.009 -1.5332 -0.5691 -1.4209
 7749TIP3   OH247441   7.148   0.504   9.701  0.6555 -0.0438  0.0303
 7749TIP3    H147442   7.202   0.528   9.776 -1.5349  0.8437  1.4182
 7749TIP3    H247443   7.133   0.410   9.711  1.5411 -0.2155 -0.1388
 7750TIP3   OH247444   0.787   1.745  11.160 -0.5738  0.2630  0.0072
 7750TIP3    H147445   0.693   1.731  11.166 -0.5649  0.5973  1.2292
 7750TIP3    H247446   0.809   1.723  11.070 -1.9114  0.7452 -0.4606
 7751TIP3   OH247447   1.176   0.228  10.193 -0.1935  0.3247 -0.0909
 7751TIP3    H147448   1.127   0.211  10.273 -2.3724 -1.0585 -1.6150
 7751TIP3    H247449   1.111   0.258  10.130  0.8612 -1.4778 -2.1891
 7752TIP3   OH247450   2.305   0.142  12.249  0.0525  0.7851  0.6517
 7752TIP3    H147451   2.210   0.139  12.246  0.0164 -0.4495  2.0178
 7752TIP3    H247452   2.328   0.102  12.333  1.7803  1.0807  0.3643
 7753TIP3   OH247453   0.392   5.551  11.121  0.0296  0.1101  0.3176
 7753TIP3    H147454   0.459   5.586  11.062 -0.1243  0.2199  0.2093
 7753TIP3    H247455   0.412   5.592  11.206  0.4391 -0.2882  0.4166
 7754TIP3   OH247456   1.573   3.057  10.419  0.2862  0.0654  0.4216
 7754TIP3    H147457   1.629   3.044  10.343  1.4103 -0.5071  1.3155
 7754TIP3    H247458   1.484   3.046  10.385  0.8031 -1.1632 -0.6361
 7755TIP3   OH247459   2.995   0.044  10.955 -0.0598 -0.2392  0.0084
 7755TIP3    H147460   2.999   0.101  11.031 -0.0664  1.5032 -1.2269
 7755TIP3    H247461   2.920   0.076  10.905  0.6178 -0.5770 -1.2796
 7756TIP3   OH247462   2.418   7.360  11.068  0.6067 -0.6940 -0.2652
 7756TIP3    H147463   2.432   7.446  11.108  0.9318 -0.2188 -1.3672
 7756TIP3    H247464   2.501   7.340  11.024  0.2632 -1.2092 -0.6930
 7757TIP3   OH247465   6.982   4.112  10.355  0.4386  0.2128  0.5857
 7757TIP3    H147466   6.950   4.099  10.444  1.6921 -0.9805  0.8916
 7757TIP3    H247467   7.067   4.069  10.353  1.6512  2.5184 -0.4630
 7758TIP3   OH247468   0.699   0.929  11.738  0.1343  0.7504 -0.7593
 7758TIP3    H147469   0.787   0.960  11.715 -0.4282  2.9005 -0.1804
 7758TIP3    H247470   0.706   0.903  11.830  0.2495  0.5434 -0.8253
 7759TIP3   OH247471   0.633   6.151  10.944  0.4095  0.3040 -0.0816
 7759TIP3    H147472   0.637   6.170  10.851  1.9718 -1.7104 -0.5043
 7759TIP3    H247473   0.593   6.064  10.949  1.0439  0.0553  1.0647
 7760TIP3   OH247474   7.650   5.067  10.016  0.4900 -0.2091  0.1906
 7760TIP3    H147475   7.584   5.002  10.040  0.5349 -1.1560 -1.9399
 7760TIP3    H247476   7.600   5.141   9.982  0.4773 -0.0067  0.6531
 7761TIP3   OH247477   5.455   6.293  11.074  0.5737  0.1830  0.6420
 7761TIP3    H147478   5.487   6.237  11.144 -0.0970 -1.0364  0.0185
 7761TIP3    H247479   5.402   6.234  11.019  0.9608  1.1175 -0.7947
 7762TIP3   OH247480   5.955   6.482  11.002 -0.0685 -0.1893  0.7654
 7762TIP3    H147481   6.039   6.452  10.967 -0.1871 -0.1391  0.4339
 7762TIP3    H247482   5.972   6.498  11.095  0.8774  2.0658  0.2482
 7763TIP3   OH247483   1.144   4.129  12.341  0.1098  0.7048 -0.4062
 7763TIP3    H147484   1.078   4.197  12.350 -1.2987 -0.6124 -0.3240
 7763TIP3    H247485   1.125   4.067  12.412  0.2461 -0.6383 -1.4934
 7764TIP3   OH247486   0.795   1.932  11.447 -0.2514  0.0856 -0.2464
 7764TIP3    H147487   0.801   2.024  11.421 -0.3035  0.1023 -0.1993
 7764TIP3    H247488   0.838   1.929  11.533 -0.3434  0.0856 -0.2002
 7765TIP3   OH247489   6.901   6.362  10.351 -0.2413  0.3816 -0.3248
 7765TIP3    H147490   6.987   6.321  10.337 -0.7008 -0.3031 -1.2461
 7765TIP3    H247491   6.885   6.411  10.270 -1.5070 -0.9866 -0.9562
 7766TIP3   OH247492   5.434   3.157  11.347  0.0098 -0.5166  0.0053
 7766TIP3    H147493   5.382   3.148  11.426  1.1177  2.4450  1.1875
 7766TIP3    H247494   5.511   3.101  11.362 -0.4850 -1.1125  0.3542
 7767TIP3   OH247495   4.288   5.363  11.800  0.4972 -0.1699 -0.0563
 7767TIP3    H147496   4.297   5.425  11.872  0.3040  0.3287 -0.4573
 7767TIP3    H247497   4.331   5.406  11.726 -1.4408  0.4216 -0.9006
 7768TIP3   OH247498   1.044   1.847  11.205 -0.0346 -0.1882 -0.3683
 7768TIP3    H147499   0.954   1.814  11.201  0.3102 -1.0473 -2.0003
 7768TIP3    H247500   1.086   1.793  11.272 -0.9017  0.7476  0.9785
 7769TIP3   OH247501   6.070   0.398  12.188 -0.3804 -0.2567 -0.0863
 7769TIP3    H147502   5.976   0.385  12.203 -1.6031  0.9964 -4.8779
 7769TIP3    H247503   6.097   0.321  12.138 -0.1762  1.4848 -2.8455
 7770TIP3   OH247504   5.945   6.098  12.518  0.5419  0.4222  0.2111
 7770TIP3    H147505   6.028   6.142  12.535 -0.1171  0.8091  3.0477
 7770TIP3    H247506   5.884   6.138  12.581 -1.5037 -0.6544 -0.9892
 7771TIP3   OH247507   0.575   6.606  10.553 -0.6706  0.3783 -0.1087
 7771TIP3    H147508   0.641   6.589  10.620 -0.7736  2.0314  0.4661
 7771TIP3    H247509   0.625   6.641  10.478 -0.7937  0.8349  0.0174
 7772TIP3   OH247510   3.637   2.181  10.827  0.0498 -0.0035  0.4582
 7772TIP3    H147511   3.669   2.101  10.870 -1.7545 -0.4571  1.0504
 7772TIP3    H247512   3.717   2.230  10.805  1.1180 -0.7887  2.3528
 7773TIP3   OH247513   2.426   6.374  12.133  0.5577 -0.2972 -0.4138
 7773TIP3    H147514   2.350   6.337  12.178 -0.6204  1.6428 -0.6826
 7773TIP3    H247515   2.390   6.408  12.051  1.9825 -0.5217 -1.1532
 7774TIP3   OH247516   1.171   5.956  12.201 -0.0686  0.1716  0.2368
 7774TIP3    H147517   1.251   5.941  12.253 -0.1184  0.6305  0.4513
 7774TIP3    H247518   1.153   5.871  12.160  0.8661  0.2103 -0.2880
 7775TIP3   OH247519   0.234   4.183  10.563  0.2391  0.6161 -0.4841
 7775TIP3    H147520   0.292   4.239  10.614  0.9212 -0.1412 -0.4041
 7775TIP3    H247521   0.242   4.097  10.604 -2.8523  0.9621  1.1206
 7776TIP3   OH247522   0.445   0.286  12.003  0.3438  0.1105  0.0021
 7776TIP3    H147523   0.402   0.352  11.949  2.1688  2.4913  1.2792
 7776TIP3    H247524   0.421   0.309  12.093  0.6764 -1.2439  0.4654
 7777TIP3   OH247525   6.287   5.898  10.982  0.0516  0.2612  0.4811
 7777TIP3    H147526   6.245   5.821  11.021 -0.2458 -0.1933 -0.6725
 7777TIP3    H247527   6.280   5.883  10.888  2.7800  0.1867  0.2240
 7778TIP3   OH247528   1.380   2.066  11.606  0.4419 -0.1728 -0.2491
 7778TIP3    H147529   1.372   2.111  11.522  2.0639 -0.8233 -0.8097
 7778TIP3    H247530   1.378   2.136  11.671  0.9297  0.5343 -0.9671
 7779TIP3   OH247531   4.295   1.538  10.807 -0.1786  0.0865 -0.4798
 7779TIP3    H147532   4.273   1.491  10.726 -2.4228  1.1496 -0.5634
 7779TIP3    H247533   4.317   1.627  10.778  0.7143  0.0166 -0.0454
 7780TIP3   OH247534   1.347   4.897  11.712 -0.0791 -0.4754  0.8659
 7780TIP3    H147535   1.308   4.846  11.641  1.8734 -1.8222  0.6873
 7780TIP3    H247536   1.297   4.872  11.790 -1.4211  0.0704  0.2222
 7781TIP3   OH247537   4.703   3.363  10.279 -0.3678 -0.2328  0.6111
 7781TIP3    H147538   4.772   3.301  10.255 -0.4623 -0.2445  0.3723
 7781TIP3    H247539   4.733   3.447  10.245 -0.8471 -0.3831 -0.2000
 7782TIP3   OH247540   6.912   7.040  11.409  0.1422  0.3274 -0.5569
 7782TIP3    H147541   6.845   6.971  11.413  1.9790 -1.5252  2.7438
 7782TIP3    H247542   6.917   7.074  11.499  2.4518  1.5785 -1.0947
 7783TIP3   OH247543   5.797   7.439  10.742 -0.5904 -0.0052  0.4578
 7783TIP3    H147544   5.820   7.502  10.674  0.9915 -0.6850  0.3116
 7783TIP3    H247545   5.721   7.477  10.785 -0.4502  1.3772 -0.4373
 7784TIP3   OH247546   7.008   6.685  10.381  1.0626  0.2376 -0.2556
 7784TIP3    H147547   7.021   6.644  10.296 -0.9655 -0.7040 -0.1517
 7784TIP3    H247548   7.040   6.621  10.444  1.5928  0.5030 -0.2468
 7785TIP3   OH247549   6.717   1.609  10.296  0.1228  0.2073 -0.0125
 7785TIP3    H147550   6.626   1.636  10.281 -0.1849 -1.1569 -0.7797
 7785TIP3    H247551   6.743   1.566  10.214  1.4077  0.4231  0.2596
 7786TIP3   OH247552   5.829   3.346  12.020  0.0130 -0.0721 -0.4868
 7786TIP3    H147553   5.889   3.301  12.080 -0.5399  0.8766  0.8406
 7786TIP3    H247554   5.744   3.307  12.037 -0.2550  0.6183 -0.1806
 7787TIP3   OH247555   6.547   4.467  12.220  0.2184  0.5440 -0.0442
 7787TIP3    H147556   6.496   4.500  12.294 -0.1029  0.2923 -0.1498
 7787TIP3    H247557   6.638   4.483  12.244  0.3674 -2.3878  1.8662
 7788TIP3   OH247558   6.550   1.503   9.818  0.2706 -0.3491 -0.4011
 7788TIP3    H147559   6.503   1.581   9.847  1.4189  0.6260 -1.0758
 7788TIP3    H247560   6.548   1.507   9.723  2.0652 -0.0229 -0.4679
 7789TIP3   OH247561   0.302   2.229   9.857  0.4693 -0.0741 -0.2255
 7789TIP3    H147562   0.260   2.252   9.940 -1.0866 -1.0605 -0.6857
 7789TIP3    H247563   0.248   2.272   9.790  2.0090  1.1405 -0.7326
 7790TIP3   OH247564   1.861   0.716   9.868 -0.2017  0.0936 -0.3270
 7790TIP3    H147565   1.827   0.781   9.929  0.6767 -0.7017  1.0727
 7790TIP3    H247566   1.955   0.712   9.887 -0.2918 -1.8689 -0.0655
 7791TIP3   OH247567   6.461   5.872   9.907  0.8489 -0.4391 -0.1211
 7791TIP3    H147568   6.370   5.878   9.935  0.9059 -1.2452  0.2530
 7791TIP3    H247569   6.466   5.927   9.829  0.0576 -0.3604 -0.1201
 7792TIP3   OH247570   7.461   3.807  11.432  0.6764 -0.8136  0.2550
 7792TIP3    H147571   7.520   3.743  11.472  1.1902 -0.4668  0.0698
 7792TIP3    H247572   7.464   3.882  11.490  2.0420 -0.0014 -0.8011
 7793TIP3   OH247573   4.172   6.734  10.399 -0.1513  0.4012 -0.1782
 7793TIP3    H147574   4.135   6.819  10.424  1.8170  1.9332 -2.1465
 7793TIP3    H247575   4.180   6.687  10.482  1.0882  3.1241  1.3787
 7794TIP3   OH247576   2.604   7.086  10.448 -0.5093 -0.0270 -0.6354
 7794TIP3    H147577   2.554   7.120  10.522  0.0311  0.3864 -0.4508
 7794TIP3    H247578   2.663   7.157  10.424  0.6195 -0.8036 -0.2701
 7795TIP3   OH247579   0.511   1.717  11.042  0.0224  0.4888  0.1003
 7795TIP3    H147580   0.533   1.793  10.987 -1.1365  1.4305  0.8860
 7795TIP3    H247581   0.425   1.737  11.078 -0.2549 -1.1686  0.4358
 7796TIP3   OH247582   2.891   3.375  12.010  0.4120  0.0034  0.0093
 7796TIP3    H147583   2.901   3.467  12.034  1.4615 -0.3371  0.9374
 7796TIP3    H247584   2.896   3.375  11.915  0.6374  0.8761  0.0068
 7797TIP3   OH247585   3.714   6.555  11.624 -0.4657  0.1506  0.2090
 7797TIP3    H147586   3.644   6.520  11.569  0.1376  0.0864 -0.5403
 7797TIP3    H247587   3.753   6.478  11.665  0.4104 -0.0354 -0.8988
 7798TIP3   OH247588   4.598   1.700  12.080  0.0840 -0.1536  0.6065
 7798TIP3    H147589   4.509   1.676  12.106  0.0190 -0.7841 -0.1397
 7798TIP3    H247590   4.649   1.695  12.161 -0.4825 -0.1587  0.9676
 7799TIP3   OH247591   7.051   7.155  10.806  0.7486 -0.0035 -0.2487
 7799TIP3    H147592   7.086   7.067  10.791  0.2393 -0.0899 -1.0166
 7799TIP3    H247593   7.015   7.181  10.721 -2.3746 -0.5192  0.7970
 7800TIP3   OH247594   0.075   6.093  12.007  0.4598 -0.5759 -0.3628
 7800TIP3    H147595   0.042   6.014  12.049  1.3090 -0.4461  0.5940
 7800TIP3    H247596   0.129   6.135  12.074 -2.3399  2.4171  0.3189
 7801TIP3   OH247597   0.007   6.765  11.361  0.0414 -0.4111  0.2790
 7801TIP3    H147598  -0.035   6.849  11.343  1.9638  0.0207 -3.1538
 7801TIP3    H247599   0.091   6.788  11.400  0.0217 -0.8540  0.5964
 7802TIP3   OH247600   1.968   6.058  10.279  0.0704  0.7445  0.1913
 7802TIP3    H147601   1.940   6.014  10.359 -1.1231  2.1915  0.6143
 7802TIP3    H247602   1.919   6.013  10.209  0.2104  0.2535  0.4078
 7803TIP3   OH247603   1.049   1.329  10.834 -0.4156  0.1674  0.0482
 7803TIP3    H147604   1.144   1.324  10.842 -0.2818  3.0069  1.8175
 7803TIP3    H247605   1.019   1.354  10.921 -2.7522 -0.1934 -0.5835
 7804TIP3   OH247606   1.301   2.628   9.915 -0.0182 -0.4484 -0.1819
 7804TIP3    H147607   1.292   2.687   9.840 -1.9486 -0.1664  0.2381
 7804TIP3    H247608   1.254   2.549   9.890  1.3766 -1.3311 -0.1745
 7805TIP3   OH247609   5.967   6.612  11.574 -0.4842 -0.3498  0.3528
 7805TIP3    H147610   6.005   6.524  11.583  0.3932  0.0535  0.7339
 7805TIP3    H247611   5.946   6.619  11.481 -0.7098 -1.0265  0.3498
 7806TIP3   OH247612   7.177   2.530  10.986 -0.1346  0.1454 -0.2571
 7806TIP3    H147613   7.092   2.571  10.973  0.7564  1.5853 -2.0753
 7806TIP3    H247614   7.224   2.546  10.904  2.4221  0.7678  1.2175
 7807TIP3   OH247615   5.207   3.913  11.680 -0.1445 -0.1079  0.4490
 7807TIP3    H147616   5.230   3.955  11.597  0.8765 -0.4803  0.5339
 7807TIP3    H247617   5.259   3.833  11.682  0.7371  0.4530  1.9624
 7808TIP3   OH247618   7.084   1.490  12.022 -0.0573 -0.0809 -0.3439
 7808TIP3    H147619   7.004   1.438  12.010 -0.9493  1.0719  0.3612
 7808TIP3    H247620   7.134   1.443  12.088 -1.4235  0.5235  1.1957
 7809TIP3   OH247621   7.632   4.434  10.959  0.2905 -0.5823 -0.0811
 7809TIP3    H147622   7.579   4.439  10.879  1.2331 -0.6089 -0.7246
 7809TIP3    H247623   7.586   4.371  11.014 -0.5394 -0.3351 -0.4784
 7810TIP3   OH247624   1.480   3.864  12.080 -0.5608  0.3856 -0.6371
 7810TIP3    H147625   1.403   3.860  12.023 -1.0131  0.0831 -0.0196
 7810TIP3    H247626   1.475   3.951  12.120 -0.6458  0.3221 -0.5093
 7811TIP3   OH247627   3.716   1.944  10.951 -1.3307  0.3347 -0.1967
 7811TIP3    H147628   3.747   1.853  10.956  0.5877  0.9655 -0.0465
 7811TIP3    H247629   3.696   1.968  11.041  0.5016  0.7966  0.1296
 7812TIP3   OH247630   4.837   3.740  11.585 -0.0753  0.4711  0.1156
 7812TIP3    H147631   4.852   3.829  11.615 -0.3021 -0.0812  2.0007
 7812TIP3    H247632   4.769   3.706  11.643 -1.6449 -0.2288 -1.9875
 7813TIP3   OH247633   4.135   0.150  10.820  0.2279  0.0137 -0.3617
 7813TIP3    H147634   4.213   0.132  10.873  0.0324  1.0350  0.3217
 7813TIP3    H247635   4.064   0.157  10.885 -0.0754  0.9773 -0.7870
 7814TIP3   OH247636   6.535   1.208  10.857 -0.7907 -0.0521  0.7210
 7814TIP3    H147637   6.451   1.243  10.825  0.1861  0.0131 -2.0245
 7814TIP3    H247638   6.601   1.267  10.821  0.5347 -1.0539  1.4184
 7815TIP3   OH247639   7.611   2.812  11.460 -0.2413 -0.4073 -0.2917
 7815TIP3    H147640   7.669   2.762  11.518  1.3458  0.4857 -1.0648
 7815TIP3    H247641   7.642   2.902  11.465 -1.0820 -0.0325 -1.3293
 7816TIP3   OH247642   4.734   5.789  10.434  0.1239  0.8365  0.3175
 7816TIP3    H147643   4.713   5.783  10.341  0.0113  1.0056  0.3318
 7816TIP3    H247644   4.649   5.792  10.478  0.1770  0.8160  0.4226
 7817TIP3   OH247645   4.890   0.179  10.253 -0.1366 -0.2277 -0.6860
 7817TIP3    H147646   4.812   0.157  10.202 -1.1299 -0.5543  0.9085
 7817TIP3    H247647   4.881   0.129  10.334  1.3667  0.3150 -0.1455
 7818TIP3   OH247648   1.762   7.519  10.053  0.6785 -0.4347 -0.0760
 7818TIP3    H147649   1.668   7.516  10.068  0.6437  1.5545  0.3376
 7818TIP3    H247650   1.774   7.589   9.988  1.8088 -1.2419 -0.7837
 7819TIP3   OH247651   3.127   7.124  11.331  0.1960  0.4423  0.5560
 7819TIP3    H147652   3.082   7.044  11.358  0.4083 -0.0637 -0.5610
 7819TIP3    H247653   3.072   7.194  11.364 -0.0629 -0.1558  1.4443
 7820TIP3   OH247654   0.824   3.053  11.042  0.2779 -0.2850 -0.4511
 7820TIP3    H147655   0.815   3.020  10.953 -0.3325 -0.0967 -0.4651
 7820TIP3    H247656   0.870   2.984  11.089  2.8292  0.5976 -1.4826
 7821TIP3   OH247657   7.437   5.727  11.258  0.0417 -0.5745 -0.2335
 7821TIP3    H147658   7.435   5.649  11.314  0.5628  0.4336  1.2465
 7821TIP3    H247659   7.389   5.794  11.307  2.0547  0.8775 -0.1233
 7822TIP3   OH247660   2.443   6.182  11.833 -0.0714  0.1254 -0.0533
 7822TIP3    H147661   2.480   6.121  11.768 -0.6934 -1.1336  0.7323
 7822TIP3    H247662   2.516   6.238  11.857  0.7220 -0.7808 -0.2742
 7823TIP3   OH247663   0.099   0.436  10.499 -0.7258 -0.2969  0.0758
 7823TIP3    H147664   0.058   0.494  10.435  0.7077 -0.4859 -1.0900
 7823TIP3    H247665   0.050   0.450  10.580 -1.8781  0.8035 -0.7699
 7824TIP3   OH247666   1.620   0.028  12.029 -0.1700  0.1837 -0.0936
 7824TIP3    H147667   1.660   0.094  11.972  1.0748 -2.0693 -2.0112
 7824TIP3    H247668   1.695  -0.016  12.070 -0.9261 -0.6408  0.4333
 7825TIP3   OH247669   1.757   4.584  11.662  0.0316 -0.0902  0.7644
 7825TIP3    H147670   1.829   4.532  11.627  1.1575  1.1058  1.2312
 7825TIP3    H247671   1.731   4.538  11.742  0.5865 -0.2720  0.8405
 7826TIP3   OH247672   3.257   7.340  12.278  0.6403  0.0396 -0.0922
 7826TIP3    H147673   3.242   7.297  12.363 -0.4424 -1.2782 -0.9147
 7826TIP3    H247674   3.280   7.431  12.301  0.1785 -0.2372  1.5959
 7827TIP3   OH247675   5.811   6.657  11.791  0.7517 -0.1827 -0.5343
 7827TIP3    H147676   5.898   6.646  11.752  0.8783 -0.4249 -0.1969
 7827TIP3    H247677   5.759   6.697  11.723  1.1583  0.0578 -0.7080
 7828TIP3   OH247678   3.564   4.927  11.252  0.5434  0.3487  0.0658
 7828TIP3    H147679   3.515   4.924  11.170 -0.3539 -1.8678  0.6034
 7828TIP3    H247680   3.516   4.988  11.307 -0.4422 -0.2243 -0.1396
 7829TIP3   OH247681   6.547   6.979   9.856 -0.2897  0.8309  0.1857
 7829TIP3    H147682   6.576   6.930   9.780 -0.7602 -0.3526  0.7479
 7829TIP3    H247683   6.485   7.043   9.822 -0.9919 -0.1201 -0.3581
 7830TIP3   OH247684   1.738   1.872  11.745 -0.2314 -0.0872 -0.3261
 7830TIP3    H147685   1.680   1.822  11.803  1.1749 -1.9955 -0.4888
 7830TIP3    H247686   1.757   1.812  11.673  2.1279  0.3806 -0.1623
 7831TIP3   OH247687   5.189   6.647  10.466 -0.0394  0.2176  0.0697
 7831TIP3    H147688   5.227   6.633  10.553 -1.0431 -0.3402  0.4437
 7831TIP3    H247689   5.210   6.568  10.417  0.2912  0.4147 -0.1063
 7832TIP3   OH247690   3.065   0.723  10.753  0.0661  0.6901  0.1596
 7832TIP3    H147691   3.017   0.735  10.671 -0.0384  1.3462  0.3182
 7832TIP3    H247692   3.033   0.639  10.786 -1.6891  1.5415  0.7410
 7833TIP3   OH247693   1.446   2.002  11.064 -0.3001  0.0951  0.1933
 7833TIP3    H147694   1.409   2.047  10.988  0.4504 -0.1915 -0.3515
 7833TIP3    H247695   1.410   1.914  11.059 -0.2593  0.0795  0.1786
 7834TIP3   OH247696   2.158   3.466  10.704  0.3564  0.0283  0.4842
 7834TIP3    H147697   2.186   3.555  10.682 -0.8133 -0.0338 -1.5068
 7834TIP3    H247698   2.097   3.477  10.777  1.7243  0.6306  1.5807
 7835TIP3   OH247699   6.900   1.613  10.797  0.0687  0.2379  0.3190
 7835TIP3    H147700   6.908   1.629  10.703  0.6437  1.7328  0.6051
 7835TIP3    H247701   6.973   1.660  10.836  0.9708 -1.8989  1.3956
 7836TIP3   OH247702   5.808   0.042  10.700 -0.3836  0.3425  0.6905
 7836TIP3    H147703   5.894   0.085  10.699 -0.1738  0.2088  3.4806
 7836TIP3    H247704   5.745   0.114  10.708 -0.3670  0.3565  0.6940
 7837TIP3   OH247705   6.346   1.107  10.207  0.4819 -0.6564  0.0523
 7837TIP3    H147706   6.341   1.177  10.273 -0.3921  0.6547 -1.3380
 7837TIP3    H247707   6.330   1.027  10.256  0.6306  0.1910  1.5609
 7838TIP3   OH247708   1.485   2.516  12.746  0.5208 -0.1277  0.2964
 7838TIP3    H147709   1.502   2.425  12.769 -1.8245 -1.1808 -1.6743
 7838TIP3    H247710   1.564   2.544  12.700  0.9275 -1.4711  0.1412
 7839TIP3   OH247711   4.440   0.711  11.422  0.1266  0.1364 -0.5733
 7839TIP3    H147712   4.414   0.718  11.330 -2.5927  1.0709  0.1710
 7839TIP3    H247713   4.462   0.801  11.447 -0.7444  0.1834  0.0712
 7840TIP3   OH247714   5.098   0.471  12.316  0.6560  0.1665 -0.3273
 7840TIP3    H147715   5.057   0.454  12.401 -0.1127 -0.6328 -0.8306
 7840TIP3    H247716   5.188   0.442  12.327  0.8138  0.9395  0.4867
 7841TIP3   OH247717   2.648   0.168  11.080 -0.8572  0.0012  0.4004
 7841TIP3    H147718   2.591   0.243  11.065  0.4795  1.1343  0.8009
 7841TIP3    H247719   2.603   0.115  11.145 -2.5252 -0.3636 -0.9675
 7842TIP3   OH247720   3.636   0.968  10.564  0.2921 -0.4957 -0.2003
 7842TIP3    H147721   3.686   0.922  10.631 -0.2551 -0.2240  0.4044
 7842TIP3    H247722   3.687   1.047  10.545  0.8249 -0.9438 -0.6542
 7843TIP3   OH247723   5.461   4.053  10.181  0.1674 -0.4617 -0.2602
 7843TIP3    H147724   5.417   4.110  10.245  1.5714  0.2282  0.1219
 7843TIP3    H247725   5.412   3.970  10.185 -0.0694 -0.2721  1.3558
 7844TIP3   OH247726   1.725   4.476  11.371  0.0203  0.0374 -0.0657
 7844TIP3    H147727   1.647   4.436  11.409  1.2412 -3.1513 -0.6404
 7844TIP3    H247728   1.781   4.496  11.447 -1.1195  1.9780  0.3176
 7845TIP3   OH247729   3.660   4.233  12.347 -0.2121 -0.1586 -0.0089
 7845TIP3    H147730   3.646   4.142  12.321 -3.1449  0.6584 -1.7643
 7845TIP3    H247731   3.751   4.236  12.377  0.6074 -3.2269 -1.7659
 7846TIP3   OH247732   3.581   5.989  10.147  0.3920 -0.2871 -0.0147
 7846TIP3    H147733   3.539   5.904  10.133  0.3134 -0.0882 -1.0608
 7846TIP3    H247734   3.649   5.993  10.079 -0.8468  1.2753 -1.2381
 7847TIP3   OH247735   4.801   4.039  11.323 -0.0349  0.6470 -0.4516
 7847TIP3    H147736   4.712   4.062  11.297  0.4339  0.9912 -1.8439
 7847TIP3    H247737   4.856   4.070  11.251  1.0719 -0.9612 -0.3628
 7848TIP3   OH247738   5.209   5.433  12.030 -0.1611 -0.0057 -0.1241
 7848TIP3    H147739   5.235   5.438  12.122  1.5319  0.4383 -0.5908
 7848TIP3    H247740   5.172   5.345  12.021  1.6523 -0.8976  0.5284
 7849TIP3   OH247741   5.497   1.828  11.255  0.5429  0.2297  0.3364
 7849TIP3    H147742   5.489   1.821  11.350 -0.4862  1.4728  0.3607
 7849TIP3    H247743   5.585   1.861  11.241  0.5440  0.4694  0.8766
 7850TIP3   OH247744   3.790   0.356  12.568  0.0144 -0.2297 -0.0966
 7850TIP3    H147745   3.782   0.451  12.576  1.0248 -0.2360  1.4370
 7850TIP3    H247746   3.711   0.329  12.521  0.0535  1.4227 -1.1961
 7851TIP3   OH247747   6.977   7.379  10.135  0.0020 -0.2838 -0.3000
 7851TIP3    H147748   6.975   7.474  10.120 -3.1429 -0.3838 -1.2810
 7851TIP3    H247749   7.005   7.342  10.051  1.7691 -0.2762  0.2428
 7852TIP3   OH247750   2.693   4.629  10.108  0.3306  0.0451  0.0625
 7852TIP3    H147751   2.616   4.572  10.112  0.3538  0.0692  1.1479
 7852TIP3    H247752   2.727   4.618  10.020  0.2289 -1.4791  0.1967
 7853TIP3   OH247753   7.233   2.879  11.086 -0.5755 -0.2643  0.2160
 7853TIP3    H147754   7.275   2.806  11.131 -1.8551  0.5510  2.9493
 7853TIP3    H247755   7.270   2.957  11.128 -1.8679  0.5551 -0.1105
 7854TIP3   OH247756   6.618   7.180  11.225  0.2308 -0.6714  0.0190
 7854TIP3    H147757   6.547   7.209  11.168 -0.1864 -0.2300  0.7582
 7854TIP3    H247758   6.694   7.175  11.167 -0.2780 -0.6530 -0.6693
 7855TIP3   OH247759   1.581   0.681  12.624  0.0983 -0.2935  0.1783
 7855TIP3    H147760   1.650   0.623  12.592 -0.4841 -0.4523 -0.8286
 7855TIP3    H247761   1.609   0.706  12.712  0.1097 -2.5739  0.8961
 7856TIP3   OH247762   5.648   6.571  11.396 -0.0103 -0.8356  0.2295
 7856TIP3    H147763   5.674   6.487  11.357  2.7434 -0.3850  0.9531
 7856TIP3    H247764   5.662   6.635  11.326 -0.6452 -0.7542  0.1688
 7857TIP3   OH247765   6.254   3.538  11.757  0.2172  0.9601 -0.1674
 7857TIP3    H147766   6.214   3.564  11.675 -0.6142 -0.7096 -0.3259
 7857TIP3    H247767   6.344   3.572  11.752  0.4526  0.2027 -2.1421
 7858TIP3   OH247768   5.299   6.176  10.876  0.5234  0.5748  0.0079
 7858TIP3    H147769   5.212   6.203  10.847 -0.4036 -1.1504  1.0451
 7858TIP3    H247770   5.295   6.081  10.879  1.8076  0.5308  1.9507
 7859TIP3   OH247771   6.736   2.312  11.577  0.3981 -0.7334 -0.1586
 7859TIP3    H147772   6.750   2.238  11.519 -2.7837 -1.6805  0.1148
 7859TIP3    H247773   6.701   2.381  11.521 -1.6742 -1.2994  0.3380
 7860TIP3   OH247774   3.180   6.171  11.011 -0.0639  0.3662 -0.0903
 7860TIP3    H147775   3.200   6.222  11.089 -0.6912 -0.6426  0.7580
 7860TIP3    H247776   3.086   6.156  11.015 -0.0688  0.1174 -0.9266
 7861TIP3   OH247777   3.679   7.291  11.687  0.2573  0.3642  0.5373
 7861TIP3    H147778   3.689   7.238  11.608  0.7665  1.6185 -0.2774
 7861TIP3    H247779   3.601   7.256  11.730 -0.3442 -0.0156 -0.8029
 7862TIP3   OH247780   5.847   3.494  10.673 -0.3232 -0.2522  0.0550
 7862TIP3    H147781   5.926   3.495  10.619 -0.2623 -0.5094  0.1376
 7862TIP3    H247782   5.814   3.405  10.665  0.5226 -0.7565  1.6483
 7863TIP3   OH247783   7.296   6.799  10.522  0.1374 -0.4022 -0.0546
 7863TIP3    H147784   7.293   6.817  10.428 -0.9499  0.3187  0.0920
 7863TIP3    H247785   7.308   6.704  10.528  0.8646 -0.3751 -0.9089
 7864TIP3   OH247786   0.069   7.454  10.090 -0.7157  0.5013 -0.4647
 7864TIP3    H147787   0.103   7.524  10.035 -1.7994 -1.2774 -3.6409
 7864TIP3    H247788   0.013   7.498  10.154  1.0162  2.7146 -0.3453
 7865TIP3   OH247789   6.559   5.756  10.716  0.4512 -0.2133 -0.2627
 7865TIP3    H147790   6.561   5.729  10.624  0.0646  1.9616 -0.9713
 7865TIP3    H247791   6.466   5.753  10.739  0.1935  1.7660 -0.8240
 7866TIP3   OH247792   3.148   1.995  11.424 -0.1308  0.2318  0.1485
 7866TIP3    H147793   3.162   1.988  11.519 -1.6040 -1.6642  0.2960
 7866TIP3    H247794   3.122   2.086  11.410  1.5367  0.9489  1.3185
 7867TIP3   OH247795   3.712   5.704  11.696 -0.1501  0.0961 -0.2369
 7867TIP3    H147796   3.793   5.698  11.746 -0.0828  0.7617 -0.2572
 7867TIP3    H247797   3.671   5.618  11.706  2.2637 -1.6026 -3.1972
 7868TIP3   OH247798   2.286   6.902  11.978 -0.4413 -0.4704 -0.4218
 7868TIP3    H147799   2.357   6.965  11.990 -1.0960  0.2525 -0.2973
 7868TIP3    H247800   2.268   6.869  12.066  0.2691 -1.2546 -0.5574
 7869TIP3   OH247801   4.614   4.414  10.022  0.4609 -0.7221 -0.1204
 7869TIP3    H147802   4.612   4.320  10.002  1.9331 -0.5733 -1.1368
 7869TIP3    H247803   4.558   4.454   9.956  0.2850 -0.8305 -0.0380
 7870TIP3   OH247804   1.812   2.908  11.851  0.2785 -0.5137 -0.2225
 7870TIP3    H147805   1.747   2.942  11.790  1.4654  2.4308 -0.0111
 7870TIP3    H247806   1.897   2.935  11.814  1.1155 -0.2017  1.7592
 7871TIP3   OH247807   2.792   1.487  13.011 -0.0100 -0.2613  0.1804
 7871TIP3    H147808   2.786   1.582  13.004  0.6529 -0.3490 -2.6085
 7871TIP3    H247809   2.874   1.465  12.966 -0.9649 -2.2812 -0.6741
 7872TIP3   OH247810   4.656   2.424  10.818  0.5950 -0.1701  0.2085
 7872TIP3    H147811   4.687   2.508  10.786  1.8018 -0.3874  0.7556
 7872TIP3    H247812   4.640   2.438  10.912 -0.5846 -0.1803  0.0289
 7873TIP3   OH247813   7.573   5.141  12.992 -0.0527 -0.6273  0.0213
 7873TIP3    H147814   7.617   5.056  12.997  1.1013 -0.0571 -0.1168
 7873TIP3    H247815   7.601   5.186  13.072 -1.2477 -0.6291  0.4661
 7874TIP3   OH247816   3.719   3.496  10.092 -0.7028 -1.3695  0.0340
 7874TIP3    H147817   3.631   3.476  10.124  0.0423 -4.5252  0.3760
 7874TIP3    H247818   3.767   3.414  10.099  2.0059 -0.0191 -1.1532
 7875TIP3   OH247819   2.674   3.367  11.397  0.3366 -0.1816  0.0367
 7875TIP3    H147820   2.603   3.358  11.333  0.9669  0.8637 -0.8414
 7875TIP3    H247821   2.632   3.400  11.476 -0.2923 -0.4967 -0.1610
 7876TIP3   OH247822   5.884   7.648  12.305  0.2775  0.2377  0.3985
 7876TIP3    H147823   5.801   7.601  12.318  1.7619 -2.1924  1.7347
 7876TIP3    H247824   5.883   7.717  12.371 -0.0320 -0.7835  1.4964
 7877TIP3   OH247825   1.300   7.234  10.781  0.0728  0.5244  0.1689
 7877TIP3    H147826   1.357   7.258  10.854  0.9871  1.1327 -0.7265
 7877TIP3    H247827   1.264   7.317  10.749  1.6677  0.5873 -1.6541
 7878TIP3   OH247828   5.953   7.044  11.182  0.1310  0.2400  0.2520
 7878TIP3    H147829   5.962   7.023  11.089  1.3510 -0.3029  0.4724
 7878TIP3    H247830   5.859   7.040  11.198 -0.0006 -1.0820 -0.6418
 7879TIP3   OH247831   6.173   1.457  11.500  0.0559 -0.0812 -0.6552
 7879TIP3    H147832   6.212   1.527  11.552  1.7607 -1.8718  0.6436
 7879TIP3    H247833   6.094   1.433  11.547 -0.0815  0.3996 -0.6397
 7880TIP3   OH247834   0.027   3.079  11.621  0.5514  0.2468  0.0116
 7880TIP3    H147835   0.120   3.060  11.609  0.3715 -1.3818  0.9404
 7880TIP3    H247836  -0.007   3.091  11.533  1.3252 -0.8359 -0.4513
 7881TIP3   OH247837   5.597   7.254  11.433 -0.3835 -0.0650  0.0552
 7881TIP3    H147838   5.606   7.160  11.449  1.0269  0.1488  0.7752
 7881TIP3    H247839   5.671   7.292  11.480 -1.3862  1.4869  0.4363
 7882TIP3   OH247840   3.823   6.371  12.487 -0.7537  0.4140  0.3154
 7882TIP3    H147841   3.740   6.329  12.464  0.2368 -0.5429 -1.7947
 7882TIP3    H247842   3.890   6.313  12.451  0.7937  1.8350  0.7843
 7883TIP3   OH247843   6.431   2.686  11.286  0.5953  0.4832  0.1700
 7883TIP3    H147844   6.458   2.777  11.275 -0.4853  0.7581 -0.3011
 7883TIP3    H247845   6.419   2.653  11.197  0.6724 -0.0345  0.3445
 7884TIP3   OH247846   3.970   0.782  11.292 -0.3048  0.3387 -0.4120
 7884TIP3    H147847   3.969   0.698  11.246  0.2526  0.2511 -0.2662
 7884TIP3    H247848   4.046   0.827  11.258 -1.9482  1.8423 -2.3408
 7885TIP3   OH247849   2.729   6.388  12.321  0.3980  0.2061  0.9177
 7885TIP3    H147850   2.682   6.316  12.364 -0.5672  1.4379  1.9940
 7885TIP3    H247851   2.716   6.463  12.379 -2.2756  2.3891 -2.2104
 7886TIP3   OH247852   6.323   3.213  11.407 -0.4650  0.0934 -0.3078
 7886TIP3    H147853   6.326   3.215  11.502  0.0195 -0.8189 -0.2858
 7886TIP3    H247854   6.263   3.142  11.386  0.4145 -0.5685 -0.6612
 7887TIP3   OH247855   5.839   5.843  10.389 -0.4404 -0.3619  0.0124
 7887TIP3    H147856   5.755   5.805  10.415 -0.2004  0.4412  2.1292
 7887TIP3    H247857   5.865   5.897  10.463  0.1078  2.5183 -2.1087
 7888TIP3   OH247858   5.240   2.456  11.157 -0.7961 -0.4457  0.2639
 7888TIP3    H147859   5.276   2.515  11.091 -0.9679 -0.7080 -0.0686
 7888TIP3    H247860   5.197   2.387  11.106  2.2505 -2.7299  0.5477
 7889TIP3   OH247861   4.239   6.193  10.918 -0.4765  0.6192  0.6791
 7889TIP3    H147862   4.261   6.113  10.870 -0.8389  0.4517  0.7837
 7889TIP3    H247863   4.273   6.178  11.007 -0.0865  0.7965  0.5588
 7890TIP3   OH247864   4.582   0.874  10.742  0.2747 -0.6582 -0.3438
 7890TIP3    H147865   4.668   0.876  10.698 -0.5014 -0.4026 -1.9213
 7890TIP3    H247866   4.519   0.878  10.671 -1.0838  1.8878  0.8979
 7891TIP3   OH247867   7.097   2.243  12.098  0.0500  0.7946  0.0732
 7891TIP3    H147868   7.139   2.275  12.178  1.7147  0.6657 -0.7154
 7891TIP3    H247869   7.129   2.300  12.029  0.9631 -0.8733 -0.9404
 7892TIP3   OH247870   7.301   3.184  11.839 -0.6088 -0.6733  0.0931
 7892TIP3    H147871   7.382   3.231  11.854 -0.6208 -0.3591 -0.7705
 7892TIP3    H247872   7.324   3.091  11.847 -0.0660 -0.6006 -0.6178
 7893TIP3   OH247873   0.500   2.112  12.188  0.3309  0.3959 -0.0841
 7893TIP3    H147874   0.593   2.107  12.211  0.7190  1.2422 -1.3555
 7893TIP3    H247875   0.457   2.141  12.268  1.4033  1.7143  0.0526
 7894TIP3   OH247876   6.129   1.735  10.654 -0.0332 -0.1517  0.2888
 7894TIP3    H147877   6.192   1.675  10.613 -1.2197 -1.4578  0.2914
 7894TIP3    H247878   6.092   1.785  10.582  0.1857 -0.1770  0.1582
 7895TIP3   OH247879   7.603   6.855  12.359  0.0476  0.3375 -0.9974
 7895TIP3    H147880   7.553   6.898  12.428  0.0816 -0.0389 -0.7314
 7895TIP3    H247881   7.684   6.906  12.351 -0.0299  0.4776 -0.8725
 7896TIP3   OH247882   6.402   4.236  11.588 -0.2198  0.1372  0.6168
 7896TIP3    H147883   6.334   4.171  11.606  1.0710 -1.1458  1.0287
 7896TIP3    H247884   6.402   4.245  11.493 -0.7250 -0.1071  0.5900
 7897TIP3   OH247885   1.823   2.795  10.445 -0.0025 -0.5219  0.3329
 7897TIP3    H147886   1.851   2.881  10.475 -0.3895 -0.7037  1.2394
 7897TIP3    H247887   1.805   2.807  10.351 -0.1676  0.4050  0.4778
 7898TIP3   OH247888   6.810   5.844  11.805 -0.1524  0.2055 -0.4645
 7898TIP3    H147889   6.772   5.763  11.772 -0.7060  0.3442 -0.1671
 7898TIP3    H247890   6.868   5.873  11.734  0.5983 -0.8067 -0.3002
 7899TIP3   OH247891   0.749   4.246  11.741  0.2597  0.8817 -0.5796
 7899TIP3    H147892   0.697   4.310  11.791 -0.0882  0.5989 -0.5757
 7899TIP3    H247893   0.807   4.207  11.807 -0.5112  0.1843 -0.2795
 7900TIP3   OH247894   6.432   0.116  10.921 -0.4593 -0.5897  0.1309
 7900TIP3    H147895   6.507   0.166  10.889 -0.5606 -1.4051 -1.4941
 7900TIP3    H247896   6.400   0.166  10.996 -0.2039  1.4879 -1.0646
 7901TIP3   OH247897   3.160   1.768  10.828 -0.5184 -0.1000  0.4554
 7901TIP3    H147898   3.151   1.841  10.766 -0.8437 -0.0016  0.6180
 7901TIP3    H247899   3.255   1.753  10.834 -0.4662  0.1207  0.2038
 7902TIP3   OH247900   0.065   3.591  11.913  0.2233  0.7731  0.4291
 7902TIP3    H147901   0.031   3.576  12.001 -0.1421 -0.9589  0.0186
 7902TIP3    H247902   0.134   3.526  11.902 -1.2263 -0.5893 -1.3338
 7903TIP3   OH247903   1.369   4.808  11.148  0.7091 -0.3279 -0.4942
 7903TIP3    H147904   1.409   4.872  11.206  1.9196 -1.5320  0.0489
 7903TIP3    H247905   1.275   4.825  11.156  0.8036 -0.5847  2.0126
 7904TIP3   OH247906   3.542   1.545  12.388  0.6272 -0.0569 -0.0172
 7904TIP3    H147907   3.586   1.492  12.455  0.4775  0.1235  0.2292
 7904TIP3    H247908   3.450   1.547  12.416  0.3964 -0.7159 -0.7140
 7905TIP3   OH247909   3.830   6.048  10.328 -0.3924 -0.5566 -0.3606
 7905TIP3    H147910   3.873   5.963  10.323 -0.2167 -0.4971  0.0546
 7905TIP3    H247911   3.738   6.031  10.305 -0.2714 -0.7827 -0.6799
 7906TIP3   OH247912   0.228   3.164  10.407 -0.3687  0.4159  0.9428
 7906TIP3    H147913   0.180   3.228  10.355  2.4156  3.4693  1.7997
 7906TIP3    H247914   0.216   3.193  10.498 -0.2678 -1.2535  1.5403
 7907TIP3   OH247915   2.987   0.592  17.632  0.2435 -0.1980  0.5743
 7907TIP3    H147916   3.060   0.602  17.694 -0.6326  1.0903  1.4312
 7907TIP3    H247917   2.967   0.681  17.604  0.0252 -0.6831 -0.9039
 7908TIP3   OH247918   6.882   2.836  11.754  0.2874 -0.2793 -0.1184
 7908TIP3    H147919   6.834   2.804  11.678  0.7636 -0.2159 -0.4540
 7908TIP3    H247920   6.824   2.820  11.828  0.3879 -1.6515 -0.3108
 7909TIP3   OH247921   0.689   4.291  11.483 -0.0094  0.1924  0.6486
 7909TIP3    H147922   0.722   4.282  11.572 -1.6202 -0.0802  1.2404
 7909TIP3    H247923   0.621   4.224  11.475 -0.6775  0.9657 -0.4165
 7910TIP3   OH247924   2.342   3.153  11.871 -0.0049 -0.5136  0.1535
 7910TIP3    H147925   2.337   3.125  11.962 -2.0723  1.6969  0.8194
 7910TIP3    H247926   2.421   3.207  11.866 -0.8495  0.8656  1.1570
 7911TIP3   OH247927   1.655   2.058  12.007  0.2566 -0.0168 -0.1233
 7911TIP3    H147928   1.695   2.095  12.085 -0.6271 -0.0356  0.3402
 7911TIP3    H247929   1.684   2.115  11.936  0.2322  0.5925  0.3523
 7912TIP3   OH247930   7.291   7.595  10.366 -0.6766  0.4886 -0.5925
 7912TIP3    H147931   7.197   7.613  10.371 -0.7998 -0.3843  0.7080
 7912TIP3    H247932   7.322   7.607  10.456  0.5427  1.1535 -1.0815
 7913TIP3   OH247933   1.316   0.520  10.337 -0.3480 -0.4787 -0.0540
 7913TIP3    H147934   1.377   0.593  10.344  0.0723 -0.7648 -0.6096
 7913TIP3    H247935   1.371   0.446  10.309 -0.5260 -1.3459  1.7619
 7914TIP3   OH247936   2.530   2.496  10.243 -1.4465  0.0998 -0.4758
 7914TIP3    H147937   2.614   2.541  10.251  0.5734 -2.7268 -3.3399
 7914TIP3    H247938   2.480   2.551  10.183  0.0412 -0.1921 -2.0544
 7915TIP3   OH247939   2.682   1.733  10.277 -1.0944  0.2838  0.2623
 7915TIP3    H147940   2.659   1.814  10.232 -2.2164 -0.4682 -0.6021
 7915TIP3    H247941   2.738   1.687  10.214 -1.9547 -0.3866 -0.0446
 7916TIP3   OH247942   3.322   2.433  10.323 -0.3229  0.0067 -0.1933
 7916TIP3    H147943   3.371   2.414  10.243  1.4009 -0.4323  0.8882
 7916TIP3    H247944   3.231   2.439  10.295  0.4047  1.7939 -2.4890
 7917TIP3   OH247945   5.785   6.008  11.683  0.2126 -0.4611  0.2700
 7917TIP3    H147946   5.732   5.956  11.623 -0.8442 -0.0403  0.8185
 7917TIP3    H247947   5.747   5.991  11.770  0.8730 -0.0190  0.6556
 7918TIP3   OH247948   3.072   6.517  12.608  0.1109  0.9547 -0.5758
 7918TIP3    H147949   3.048   6.602  12.572  2.7337  1.8495 -0.4794
 7918TIP3    H247950   3.164   6.528  12.635 -0.0390 -1.3511  1.1855
 7919TIP3   OH247951   1.724   2.615  11.788  0.2899 -0.2011 -0.1868
 7919TIP3    H147952   1.715   2.688  11.726 -1.4824 -2.2223 -2.5198
 7919TIP3    H247953   1.634   2.588  11.805  0.8914 -1.5101  1.0854
 7920TIP3   OH247954   4.471   4.008  12.234 -0.1087 -0.1398  0.2807
 7920TIP3    H147955   4.450   3.939  12.296 -2.1153 -0.0243 -0.1951
 7920TIP3    H247956   4.485   4.086  12.288  2.5063 -0.8876  0.8441
 7921TIP3   OH247957   1.832   6.765  12.254  0.0711  0.3969 -0.1550
 7921TIP3    H147958   1.774   6.690  12.272  1.8462 -1.1900 -0.6774
 7921TIP3    H247959   1.854   6.800  12.341  1.5189 -1.5918  0.3623
 7922TIP3   OH247960   6.224   7.420  10.056 -0.1984 -0.2279  0.0528
 7922TIP3    H147961   6.184   7.402  10.142  1.0171 -2.3941  0.2486
 7922TIP3    H247962   6.152   7.411   9.994 -0.5053 -1.9220  0.5884
 7923TIP3   OH247963   2.802   2.155  11.295 -0.0727  0.0099  0.2042
 7923TIP3    H147964   2.802   2.202  11.379 -1.7697  0.7034 -0.1483
 7923TIP3    H247965   2.849   2.213  11.235 -1.2667  0.8343  0.0252
 7924TIP3   OH247966   5.867   2.221  11.948 -0.5055  0.1983 -0.4458
 7924TIP3    H147967   5.828   2.262  12.025  3.4994  0.1608  1.8625
 7924TIP3    H247968   5.897   2.294  11.894  0.5590  0.2994  0.2612
 7925TIP3   OH247969   3.113   0.860  12.879  0.7200 -0.4651 -0.1198
 7925TIP3    H147970   3.197   0.824  12.852  0.2217 -3.0615  1.5116
 7925TIP3    H247971   3.083   0.803  12.950 -1.9484  0.9894  0.0633
 7926TIP3   OH247972   4.634   6.416  11.871  0.1118 -0.4509  0.1855
 7926TIP3    H147973   4.558   6.389  11.923  0.0359  0.0820  0.3479
 7926TIP3    H247974   4.698   6.446  11.935  0.8510 -1.8236  0.1288
 7927TIP3   OH247975   7.310   1.134  10.197  0.0560 -0.3050 -0.2780
 7927TIP3    H147976   7.304   1.206  10.134 -1.3627 -1.4510 -1.4958
 7927TIP3    H247977   7.243   1.153  10.262  2.0913  1.3440  1.4920
 7928TIP3   OH247978   6.724   2.809  11.999 -0.2012 -0.0696  0.0340
 7928TIP3    H147979   6.648   2.851  12.039 -0.3262 -0.5370  0.2962
 7928TIP3    H247980   6.690   2.726  11.965  0.0972 -0.0772 -0.2497
 7929TIP3   OH247981   1.093   6.573  10.525  0.3569  0.1536  0.0626
 7929TIP3    H147982   1.120   6.664  10.535  0.7931  0.1298 -0.7845
 7929TIP3    H247983   1.104   6.555  10.431  0.4759 -0.8269  0.2518
 7930TIP3   OH247984   0.954   1.377  12.339  0.0220 -0.3210 -0.5228
 7930TIP3    H147985   0.940   1.461  12.385  1.8610 -0.5405  0.5221
 7930TIP3    H247986   0.888   1.319  12.377 -1.6117  0.7395 -1.6165
 7931TIP3   OH247987   4.867   1.355  10.195 -0.1194  0.4376  0.1512
 7931TIP3    H147988   4.805   1.337  10.266 -2.6477 -2.0212 -2.4414
 7931TIP3    H247989   4.924   1.278  10.194  1.1499  1.3384  0.6343
 7932TIP3   OH247990   3.588   5.260   9.977 -0.7152  0.3205  0.1550
 7932TIP3    H147991   3.593   5.205   9.898  0.2963  0.1539  0.3292
 7932TIP3    H247992   3.676   5.294   9.988 -1.0379  0.9651  0.7860
 7933TIP3   OH247993   2.898   0.068  11.694 -0.3184 -0.4327 -0.4225
 7933TIP3    H147994   2.822   0.114  11.660 -0.4644 -1.1492 -1.0976
 7933TIP3    H247995   2.871  -0.023  11.700  1.3405 -1.2530 -3.4499
 7934TIP3   OH247996   1.015   5.847  10.985 -0.6764  0.5698 -0.4168
 7934TIP3    H147997   1.012   5.789  10.908  0.3346 -0.4690  0.2812
 7934TIP3    H247998   1.037   5.933  10.950  2.7880 -0.4568 -1.0850
 7935TIP3   OH247999   3.794   2.114  12.614  0.2223 -0.2138 -0.1758
 7935TIP3    H148000   3.723   2.151  12.561 -2.0163  0.4838  2.9984
 7935TIP3    H248001   3.835   2.190  12.655  0.9836 -0.7907  0.1432
 7936TIP3   OH248002   1.948   1.066  11.782  0.5127  0.2115 -0.6876
 7936TIP3    H148003   1.959   1.106  11.868 -1.3071  0.5178 -0.5704
 7936TIP3    H248004   1.873   1.008  11.791  1.0809 -0.7306 -1.7487
 7937TIP3   OH248005   7.411   7.203  10.878  0.1250 -0.2082  0.3073
 7937TIP3    H148006   7.452   7.290  10.872 -0.6001  0.4270  3.0190
 7937TIP3    H248007   7.319   7.218  10.858 -0.3691  0.0860  2.5307
 7938TIP3   OH248008   1.132   5.918  11.327  0.2259 -0.1429  0.3634
 7938TIP3    H148009   1.155   5.996  11.277 -0.6826  0.7296  1.2806
 7938TIP3    H248010   1.042   5.932  11.354  0.3893 -1.0305  1.4328
 7939TIP3   OH248011   6.799   2.024  12.324  0.3433  0.2046 -0.1196
 7939TIP3    H148012   6.713   1.988  12.344  0.6009 -1.2006 -1.3420
 7939TIP3    H248013   6.810   2.008  12.230  2.0190  0.1685  0.0584
 7940TIP3   OH248014   4.005   5.973  11.273  0.6353  0.7171 -0.4050
 7940TIP3    H148015   4.050   5.933  11.198  0.1453 -0.8791  0.1071
 7940TIP3    H248016   3.999   5.902  11.337  1.2426  2.1069  1.2624
 7941TIP3   OH248017   1.206   4.984  10.776  0.1295  0.0898 -0.0644
 7941TIP3    H148018   1.206   5.074  10.808 -0.7773  0.3027 -0.5971
 7941TIP3    H248019   1.289   4.948  10.804  1.2844  1.6301 -1.2961
 7942TIP3   OH248020   7.562   2.894  11.026 -0.3007 -0.7854  0.3241
 7942TIP3    H148021   7.624   2.916  11.096 -0.7907  0.4322  0.4130
 7942TIP3    H248022   7.497   2.838  11.067 -0.5137 -0.1812  0.8183
 7943TIP3   OH248023   3.115   5.519  10.972  0.0591 -0.4698 -0.4347
 7943TIP3    H148024   3.161   5.546  11.052  0.3074  1.7229 -1.2426
 7943TIP3    H248025   3.184   5.495  10.911 -0.1376 -2.3647  0.0078
 7944TIP3   OH248026   5.723   5.674  11.762 -0.2784 -0.4269 -0.5545
 7944TIP3    H148027   5.717   5.710  11.674  1.0013  0.5757 -0.2623
 7944TIP3    H248028   5.655   5.720  11.812 -1.0292 -1.0245 -1.0098
 7945TIP3   OH248029   6.423   0.414  11.009 -0.2454 -0.7796 -0.1986
 7945TIP3    H148030   6.407   0.349  11.077  0.1674 -0.2599  0.4082
 7945TIP3    H248031   6.336   0.437  10.976 -0.5048 -0.4979  0.6688
 7946TIP3   OH248032   3.099   5.944  10.575 -0.2927 -0.3185 -0.1074
 7946TIP3    H148033   3.138   5.866  10.537 -2.0992 -1.7412  0.8059
 7946TIP3    H248034   3.165   5.977  10.636  0.4564 -1.1776 -0.4356
 7947TIP3   OH248035   3.300   0.278  12.684  0.6384  0.1285  0.3777
 7947TIP3    H148036   3.359   0.211  12.650 -1.2703 -1.0695 -0.8060
 7947TIP3    H248037   3.283   0.336  12.609 -1.5456 -0.9866 -0.0671
 7948TIP3   OH248038   4.562   7.157  11.840 -0.1022 -0.5546  0.0540
 7948TIP3    H148039   4.639   7.186  11.888 -0.0131 -0.5889 -0.0666
 7948TIP3    H248040   4.502   7.124  11.907  0.9745 -2.8502 -0.0004
 7949TIP3   OH248041   3.813   5.403   9.959  0.4411  0.2615  0.2683
 7949TIP3    H148042   3.837   5.484   9.914  0.2849 -1.1016 -2.5092
 7949TIP3    H248043   3.894   5.370   9.997  0.5688  1.5119  1.1137
 7950TIP3   OH248044   0.272   7.273  10.308 -0.3071  0.0177  0.0469
 7950TIP3    H148045   0.300   7.221  10.384  0.0254  1.7276  1.1503
 7950TIP3    H248046   0.353   7.310  10.273 -0.7080  1.7536  0.8169
 7951TIP3   OH248047   0.438   5.854  11.590 -0.8579  0.1590 -0.1083
 7951TIP3    H148048   0.479   5.873  11.674 -0.1716 -0.0545 -0.3821
 7951TIP3    H248049   0.415   5.939  11.554  0.8838  0.4289 -0.6849
 7952TIP3   OH248050   2.773   3.099  12.877 -0.4238  0.0490 -0.0864
 7952TIP3    H148051   2.785   3.005  12.887 -0.2889  0.0929  0.1560
 7952TIP3    H248052   2.682   3.115  12.904 -0.4138  0.0045 -0.0268
 7953TIP3   OH248053   7.621   6.546  11.494  0.2185  0.5165 -0.1481
 7953TIP3    H148054   7.698   6.528  11.546 -0.6051  1.5324  1.5296
 7953TIP3    H248055   7.627   6.640  11.473 -0.8673  0.7807  0.6086
 7954TIP3   OH248056   6.405   5.088  11.967  0.0719  0.2239  0.0690
 7954TIP3    H148057   6.462   5.091  11.890 -0.4933  1.9859 -0.3367
 7954TIP3    H248058   6.332   5.033  11.940  1.3897 -1.8338  0.5029
 7955TIP3   OH248059   1.493   1.484  12.945 -0.2913 -0.3442 -0.1503
 7955TIP3    H148060   1.578   1.477  12.989 -0.4122 -0.8477  0.0150
 7955TIP3    H248061   1.482   1.577  12.927 -0.4141 -0.0793  1.2302
 7956TIP3   OH248062   0.773   1.149  10.485 -0.0106  0.7029 -0.1825
 7956TIP3    H148063   0.839   1.084  10.463 -0.6616 -0.4065  0.9924
 7956TIP3    H248064   0.757   1.197  10.404 -0.2418 -1.2635 -1.3511
 7957TIP3   OH248065   0.741   0.759  11.224 -0.1407  0.0300  0.1795
 7957TIP3    H148066   0.715   0.846  11.254 -1.3057 -0.3222  0.2544
 7957TIP3    H248067   0.687   0.743  11.146  2.3541  0.6665 -1.8450
 7958TIP3   OH248068   1.388   4.217  10.940  0.7476  0.1236 -0.2325
 7958TIP3    H148069   1.365   4.307  10.960 -0.6770 -0.0214 -1.0784
 7958TIP3    H248070   1.356   4.166  11.015 -2.1681 -0.1064 -1.4791
 7959TIP3   OH248071   3.471   6.510  11.821 -0.2555 -0.1728 -0.3748
 7959TIP3    H148072   3.401   6.557  11.776 -2.7996 -2.2877  1.0400
 7959TIP3    H248073   3.503   6.571  11.887  2.2084  2.2667 -3.4968
 7960TIP3   OH248074   0.935   0.582  10.966  0.2180  0.5307  0.1734
 7960TIP3    H148075   0.942   0.677  10.969 -1.2542  0.7774 -1.8700
 7960TIP3    H248076   0.849   0.566  10.928  0.1347 -1.6508  1.1389
 7961TIP3   OH248077   0.426   5.003  13.137 -0.0610 -0.2126  0.4747
 7961TIP3    H148078   0.417   4.911  13.111  1.5506 -0.7091  1.4971
 7961TIP3    H248079   0.422   5.052  13.055  2.0369 -1.4782 -0.4785
 7962TIP3   OH248080   5.547   1.516  12.257  0.1611 -0.2620 -0.1850
 7962TIP3    H148081   5.625   1.460  12.259 -1.2821 -2.4183 -0.6871
 7962TIP3    H248082   5.475   1.457  12.280 -1.5128  1.3252 -1.1084
 7963TIP3   OH248083   4.930   3.008  11.229 -0.0954 -0.5198  0.0091
 7963TIP3    H148084   4.923   3.028  11.322  0.5799  1.0932 -0.2471
 7963TIP3    H248085   4.919   3.093  11.185  2.0933 -0.7752 -1.2324
 7964TIP3   OH248086   6.547   7.075  11.762 -0.1173 -0.1505 -0.0444
 7964TIP3    H148087   6.598   7.104  11.686  1.8389  0.9018  1.5760
 7964TIP3    H248088   6.565   6.981  11.767 -0.5429 -0.3015 -1.0522
 7965TIP3   OH248089   1.586   1.778   9.848  0.2986 -0.4328 -0.4880
 7965TIP3    H148090   1.499   1.788   9.885  1.0993  2.4390  0.9108
 7965TIP3    H248091   1.607   1.685   9.860 -1.6144 -0.6921  1.3592
 7966TIP3   OH248092   7.272   0.852  10.604  0.1756  0.1063  0.0625
 7966TIP3    H148093   7.190   0.867  10.556  0.0422 -0.0518  0.2440
 7966TIP3    H248094   7.247   0.856  10.696  0.3257 -0.2078  0.1170
 7967TIP3   OH248095   3.633   1.833  11.373 -0.3228 -0.3898  0.8454
 7967TIP3    H148096   3.718   1.805  11.406  0.3439 -0.5223 -0.8858
 7967TIP3    H248097   3.650   1.914  11.326 -0.7891 -1.3280 -1.0443
 7968TIP3   OH248098   2.569   1.636  12.727  0.2817 -0.1019 -0.8718
 7968TIP3    H148099   2.591   1.545  12.706  1.1207 -0.2230  0.3892
 7968TIP3    H248100   2.636   1.687  12.682  1.4836 -0.3011  0.5991
 7969TIP3   OH248101   2.084   0.217  11.361  0.1609 -0.0970 -0.5218
 7969TIP3    H148102   2.133   0.245  11.439 -0.1043 -2.1594  0.4759
 7969TIP3    H248103   2.008   0.275  11.358 -0.2849 -0.5054  1.3177
 7970TIP3   OH248104   1.544   1.812   9.568 -0.4996 -0.2467 -0.0822
 7970TIP3    H148105   1.550   1.861   9.650 -1.3644  0.6342 -0.5231
 7970TIP3    H248106   1.635   1.793   9.544 -0.1725  0.6862  0.3827
 7971TIP3   OH248107   6.777   0.409  13.089 -0.5083 -0.0279  0.2671
 7971TIP3    H148108   6.753   0.502  13.090  1.2303  0.5044 -1.2452
 7971TIP3    H248109   6.868   0.409  13.060 -0.5896 -2.2436 -0.1282
 7972TIP3   OH248110   2.549   0.955  10.620 -0.2836  0.0399 -0.0653
 7972TIP3    H148111   2.610   0.978  10.550  1.4102 -0.8664  1.0588
 7972TIP3    H248112   2.555   0.859  10.627 -0.1344  0.1448  1.5617
 7973TIP3   OH248113   0.932   7.329  11.600 -0.1032 -0.2637  0.0666
 7973TIP3    H148114   0.989   7.370  11.536 -1.5085  1.1478 -0.3635
 7973TIP3    H248115   0.949   7.376  11.682 -1.4870  1.0650 -0.3537
 7974TIP3   OH248116   6.866   5.227  10.402  0.0469  1.1490 -0.1845
 7974TIP3    H148117   6.860   5.186  10.316 -1.9313  0.6938  0.1311
 7974TIP3    H248118   6.840   5.158  10.464  2.4072  1.1465  0.9295
 7975TIP3   OH248119   6.355   6.693  11.631 -0.3193  0.0087 -1.2646
 7975TIP3    H148120   6.349   6.710  11.725  0.0943  1.0114 -1.4108
 7975TIP3    H248121   6.376   6.599  11.626 -0.3480 -0.0630 -0.3619
 7976TIP3   OH248122   3.270   2.233  11.769 -0.5414 -0.3383  0.3404
 7976TIP3    H148123   3.182   2.259  11.743  0.3462  0.1290 -2.4859
 7976TIP3    H248124   3.263   2.139  11.788 -1.2587 -0.8539 -2.1395
 7977TIP3   OH248125   7.676   1.256  10.263 -0.5179  0.2258 -0.0280
 7977TIP3    H148126   7.762   1.228  10.230 -0.6261  0.2969 -0.3714
 7977TIP3    H248127   7.622   1.265  10.185 -1.2574 -1.2137  0.2689
 7978TIP3   OH248128   7.551   0.730  11.600  0.0924 -0.1196 -0.5228
 7978TIP3    H148129   7.561   0.704  11.508 -0.8824 -0.2973 -0.5939
 7978TIP3    H248130   7.480   0.674  11.633  0.2390  0.1403  0.2583
 7979TIP3   OH248131   1.061   4.616  11.607  0.9276 -0.2132  0.0244
 7979TIP3    H148132   1.105   4.612  11.692  0.8380 -1.1855  0.0322
 7979TIP3    H248133   1.021   4.530  11.596 -0.7122  0.5398 -0.1319
 7980TIP3   OH248134   4.286   6.645  10.931 -0.0118 -0.2628  0.4483
 7980TIP3    H148135   4.219   6.580  10.950  0.5705 -0.6778  1.1122
 7980TIP3    H248136   4.364   6.594  10.910  0.6498  0.2054  1.7037
 7981TIP3   OH248137   4.193   0.729  10.429 -0.0654  0.1974 -0.3618
 7981TIP3    H148138   4.109   0.692  10.403  1.0339 -2.6780 -0.1372
 7981TIP3    H248139   4.232   0.760  10.348 -0.5399 -0.2543 -0.7688
 7982TIP3   OH248140   7.487   6.290  11.424  0.1072 -0.1948 -0.1440
 7982TIP3    H148141   7.424   6.304  11.354  1.6328 -1.2349 -1.8164
 7982TIP3    H248142   7.522   6.376  11.443 -0.9354  0.2184 -0.0325
 7983TIP3   OH248143   5.573   0.071  11.186  0.4056 -0.1978  0.0535
 7983TIP3    H148144   5.648   0.113  11.145  0.0215  0.7628  0.2887
 7983TIP3    H248145   5.594  -0.022  11.186  1.1359 -0.0510 -0.8084
 7984TIP3   OH248146   0.594   1.694  12.092  0.7675  0.2900 -0.2014
 7984TIP3    H148147   0.623   1.603  12.090 -1.9691 -0.6775  0.4672
 7984TIP3    H248148   0.617   1.724  12.180  1.1565  0.0593 -0.2224
 7985TIP3   OH248149   3.476   5.746  10.103  0.2536  0.0011 -0.4426
 7985TIP3    H148150   3.495   5.667  10.052  0.7723 -0.5558  0.5844
 7985TIP3    H248151   3.388   5.731  10.139  0.7142 -0.5439  0.5038
 7986TIP3   OH248152   5.187   7.100  11.666 -0.0329  0.3922  0.2047
 7986TIP3    H148153   5.266   7.143  11.697  0.7086 -1.1074  0.5147
 7986TIP3    H248154   5.217   7.013  11.637 -1.7831 -0.9316  2.0567
 7987TIP3   OH248155   6.986   6.609  12.278 -0.2362 -0.0866 -0.6210
 7987TIP3    H148156   7.074   6.585  12.307 -0.4875  0.2455  0.4423
 7987TIP3    H248157   6.976   6.564  12.194  0.3763 -1.3560 -0.0337
 7988TIP3   OH248158   2.652   2.012  11.807  1.0232  0.1871  0.1307
 7988TIP3    H148159   2.737   1.996  11.848  0.4504  0.2933  1.4177
 7988TIP3    H248160   2.670   2.080  11.742  1.7597  0.9081  1.0502
 7989TIP3   OH248161   2.266   6.398  10.471  0.0976  0.2278  0.3928
 7989TIP3    H148162   2.325   6.456  10.519  0.8628  0.5853 -0.9139
 7989TIP3    H248163   2.188   6.451  10.455 -0.9203 -0.4421  2.6642
 7990TIP3   OH248164   5.853   1.497  11.002 -0.1020 -0.3457  0.2435
 7990TIP3    H148165   5.867   1.578  10.952  2.1933  0.4095  1.9361
 7990TIP3    H248166   5.802   1.525  11.078 -0.5451 -0.7878  0.1093
 7991TIP3   OH248167   1.381   3.956  12.396 -0.6680  0.3634 -0.0148
 7991TIP3    H148168   1.356   3.995  12.312 -2.0728  0.6234  0.4938
 7991TIP3    H248169   1.415   4.029  12.447 -2.6105  0.8508  0.6742
 7992TIP3   OH248170   7.029   0.102  10.579 -0.5112 -0.2356 -0.8000
 7992TIP3    H148171   7.009   0.056  10.497 -0.9482 -0.2814 -0.6682
 7992TIP3    H248172   6.944   0.129  10.613 -0.2823  0.3523 -0.6856
 7993TIP3   OH248173   1.237   7.559  11.018 -0.0162  0.3280 -0.2349
 7993TIP3    H148174   1.193   7.561  10.934  0.0821 -0.8878 -0.3417
 7993TIP3    H248175   1.329   7.542  10.997 -0.0701 -0.4889  0.1127
 7994TIP3   OH248176   3.895   1.752  11.717  0.5861 -0.5847  0.5301
 7994TIP3    H148177   3.869   1.662  11.735 -1.0230 -0.1108  0.7886
 7994TIP3    H248178   3.878   1.763  11.623  0.0978 -0.3539  0.6423
 7995TIP3   OH248179   2.869   6.155  12.000 -0.5083  0.0938  0.0566
 7995TIP3    H148180   2.846   6.073  11.956  0.3785 -0.3675  0.4170
 7995TIP3    H248181   2.938   6.130  12.062  0.2181  1.2271 -0.2722
 7996TIP3   OH248182   4.503   4.460  10.282  0.3425  0.3355  0.3177
 7996TIP3    H148183   4.413   4.470  10.253  0.7014  0.0068 -0.9561
 7996TIP3    H248184   4.554   4.455  10.201  1.4727  0.2503  1.0167
 7997TIP3   OH248185   1.563   2.330  11.105  0.2539  0.3019 -0.0199
 7997TIP3    H148186   1.477   2.370  11.120  0.4265  0.8529 -0.4601
 7997TIP3    H248187   1.596   2.312  11.193  0.2400  1.2953  0.2025
 7998TIP3   OH248188   4.716   5.540  11.684  0.2549 -0.5961  0.1627
 7998TIP3    H148189   4.669   5.481  11.743  2.1914 -1.9520  0.4395
 7998TIP3    H248190   4.808   5.532  11.710  0.7456  1.5767 -0.6752
 7999TIP3   OH248191   5.800   2.063  10.093 -0.0031 -0.2281 -0.2578
 7999TIP3    H148192   5.742   1.993  10.122 -1.4085 -1.5283 -5.2540
 7999TIP3    H248193   5.874   2.018  10.053 -0.4791  1.0294 -2.7429
 8000TIP3   OH248194   2.490   0.293  12.074  0.6829  0.1909  0.0741
 8000TIP3    H148195   2.580   0.279  12.101  0.1710 -4.8337  0.1098
 8000TIP3    H248196   2.440   0.225  12.121 -3.0764  2.3766 -0.3678
 8001TIP3   OH248197   4.892   5.866  12.000 -0.6990 -0.0071 -0.1401
 8001TIP3    H148198   4.873   5.930  12.069 -1.9036 -0.3982 -0.0798
 8001TIP3    H248199   4.813   5.812  11.995 -0.3972 -0.3692 -1.4090
 8002TIP3   OH248200   5.720   3.030  10.344  0.8430 -0.4356  0.3628
 8002TIP3    H148201   5.677   3.100  10.295 -0.3758 -2.8647 -2.3112
 8002TIP3    H248202   5.656   3.003  10.410  0.8400  0.1389  0.5985
 8003TIP3   OH248203   6.797   4.609  11.118  0.4031 -0.5480 -0.3032
 8003TIP3    H148204   6.757   4.639  11.036  3.3103  0.2490 -1.5291
 8003TIP3    H248205   6.791   4.685  11.176  0.6322 -0.2429 -0.6735
 8004TIP3   OH248206   0.212   6.804  10.781  0.2574  0.6465 -0.0520
 8004TIP3    H148207   0.124   6.800  10.820  0.6584  0.5064  0.8454
 8004TIP3    H248208   0.228   6.716  10.748  0.3516  0.4834  0.4284
 8005TIP3   OH248209   0.971   0.339  10.031 -0.0359  0.4021  0.4626
 8005TIP3    H148210   0.936   0.391  10.104  1.1959  1.1131  0.5699
 8005TIP3    H248211   0.895   0.291   9.998 -0.8724  1.0146  1.4197
 8006TIP3   OH248212   5.190   6.422  11.132 -1.0126  0.1690  0.3504
 8006TIP3    H148213   5.225   6.477  11.201 -1.8159 -0.5525  1.3699
 8006TIP3    H248214   5.265   6.371  11.101 -0.6014  0.6680  0.5115
 8007TIP3   OH248215   1.683   2.852  10.824  0.5656 -0.1718 -0.1376
 8007TIP3    H148216   1.679   2.772  10.876 -0.6691  0.2722  0.4812
 8007TIP3    H248217   1.605   2.848  10.768  2.1402 -0.9189 -2.4357
 8008TIP3   OH248218   7.131   1.664  11.470 -1.0696  0.0275 -0.0638
 8008TIP3    H148219   7.133   1.755  11.499 -0.6149  0.0249 -0.0823
 8008TIP3    H248220   7.070   1.663  11.396 -0.1606  0.5428 -0.8369
 8009TIP3   OH248221   3.785   4.764  11.212  0.3080 -0.6496 -0.1334
 8009TIP3    H148222   3.823   4.820  11.144 -0.0477 -1.1796 -0.7886
 8009TIP3    H248223   3.698   4.800  11.227  0.8494  0.2296  0.9649
 8010TIP3   OH248224   5.120   2.821   9.786  0.4883  0.3777  0.4469
 8010TIP3    H148225   5.124   2.728   9.764 -0.0216  0.1604  1.2282
 8010TIP3    H248226   5.027   2.838   9.798  0.5308  1.1268 -0.2311
 8011TIP3   OH248227   1.777   0.998  11.252 -0.6001 -0.4925  0.3098
 8011TIP3    H148228   1.746   1.044  11.330 -0.9030 -1.4980  0.8076
 8011TIP3    H248229   1.870   0.985  11.267 -0.0643  1.7210 -0.7682
 8012TIP3   OH248230   5.216   5.430  11.258 -0.0945 -0.7364 -0.1949
 8012TIP3    H148231   5.310   5.444  11.268  0.1275 -2.7180  1.2165
 8012TIP3    H248232   5.195   5.463  11.171  2.0423 -0.8888 -0.8162
 8013TIP3   OH248233   1.808   7.061   9.898 -0.4952 -0.2336  0.1786
 8013TIP3    H148234   1.850   6.977   9.914  0.3180 -0.1665 -1.4059
 8013TIP3    H248235   1.733   7.063   9.959 -0.1135 -1.7724  0.7298
 8014TIP3   OH248236   0.873   6.342  11.852  0.3975  0.8557 -0.0281
 8014TIP3    H148237   0.833   6.280  11.790 -0.7089  2.0666 -0.5733
 8014TIP3    H248238   0.924   6.402  11.797  0.9475  0.8206  0.4304
 8015TIP3   OH248239   7.408   2.619  11.715 -0.2998 -0.2373  0.3397
 8015TIP3    H148240   7.434   2.687  11.777  1.5964 -0.4939 -0.1104
 8015TIP3    H248241   7.339   2.659  11.662  0.1490  1.0109  0.6813
 8016TIP3   OH248242   1.019   5.128  11.917 -0.6063  1.0587 -0.0978
 8016TIP3    H148243   1.013   5.173  11.832 -1.9683  0.5260 -0.3099
 8016TIP3    H248244   1.045   5.196  11.979  0.7631  1.3864 -0.9808
 8017TIP3   OH248245   5.889   5.674  10.148 -0.6314  0.3265 -0.0099
 8017TIP3    H148246   5.960   5.730  10.118 -0.6145 -0.4302 -1.4145
 8017TIP3    H248247   5.833   5.733  10.199  0.4726  1.1405  0.3030
 8018TIP3   OH248248   5.916   2.533  10.204  0.7847  0.1749  0.0876
 8018TIP3    H148249   5.874   2.505  10.122  0.5843 -0.6287  0.4496
 8018TIP3    H248250   5.843   2.549  10.264  0.9258  0.9101  0.0685
 8019TIP3   OH248251   6.339   5.447  12.990  0.3792  0.3248  0.4385
 8019TIP3    H148252   6.331   5.472  12.897 -1.3586  0.2070  0.5145
 8019TIP3    H248253   6.413   5.387  12.992  1.3743  1.4571 -0.6219
 8020TIP3   OH248254   6.151   6.061  10.734  0.3224  0.3555  0.5882
 8020TIP3    H148255   6.097   6.134  10.764 -2.8167  0.4403 -4.3012
 8020TIP3    H248256   6.216   6.101  10.677  1.2027 -0.3854  1.0410
 8021TIP3   OH248257   0.415   3.655  11.798 -0.4049  0.5153 -0.0099
 8021TIP3    H148258   0.420   3.585  11.733 -1.1866  0.6665 -0.2479
 8021TIP3    H248259   0.391   3.612  11.880 -1.7518  0.5861 -0.3428
 8022TIP3   OH248260   6.305   2.700  11.987 -0.2803 -0.0526 -0.7996
 8022TIP3    H148261   6.332   2.632  12.048 -2.9713 -0.1735  0.3669
 8022TIP3    H248262   6.359   2.776  12.010 -0.7916 -0.2859  1.3368
 8023TIP3   OH248263   6.915   3.847  11.797 -0.5311  0.2937  0.1076
 8023TIP3    H148264   6.959   3.840  11.882 -1.8545  1.4825  0.9413
 8023TIP3    H248265   6.961   3.919  11.753  1.5355 -1.6488 -1.1350
 8024TIP3   OH248266   0.107   5.595  11.432 -0.2926  0.9469  0.0921
 8024TIP3    H148267   0.158   5.675  11.440 -1.8468  2.0852 -0.7466
 8024TIP3    H248268   0.020   5.618  11.465 -1.3360  0.2195 -1.9534
 8025TIP3   OH248269   3.577   0.263  12.441  0.3425 -0.0304  0.1509
 8025TIP3    H148270   3.559   0.315  12.362  0.0643  1.5667  1.2241
 8025TIP3    H248271   3.495   0.215  12.456  0.8395 -1.4044 -1.2542
 8026TIP3   OH248272   1.154   7.217  13.038 -0.6631 -0.2736  0.4130
 8026TIP3    H148273   1.178   7.290  12.981 -1.1883  0.3378  0.9523
 8026TIP3    H248274   1.234   7.164  13.045 -0.0249  0.6966  0.6756
 8027TIP3   OH248275   1.847   4.064  12.280  0.3994  0.1157  0.3078
 8027TIP3    H148276   1.847   4.059  12.376 -1.1787 -0.8627  0.2883
 8027TIP3    H248277   1.793   4.140  12.260  1.7631  1.0778  0.1902
 8028TIP3   OH248278   0.996   4.303  10.521  0.2459 -0.2096 -0.5140
 8028TIP3    H148279   0.990   4.267  10.609  1.3726 -0.7550 -0.6478
 8028TIP3    H248280   1.090   4.320  10.508  0.2535 -1.2084 -2.0259
 8029TIP3   OH248281   4.202   0.094  10.428  0.5237  0.1716 -0.2825
 8029TIP3    H148282   4.227   0.007  10.395  0.1782 -0.5024  1.1489
 8029TIP3    H248283   4.278   0.149  10.408  0.0779 -0.0080 -2.7406
 8030TIP3   OH248284   5.549   3.514  10.822 -0.2639 -0.1058 -0.3833
 8030TIP3    H148285   5.544   3.505  10.917  3.3158  0.1268 -0.0382
 8030TIP3    H248286   5.602   3.592  10.807 -1.2115  0.2157 -2.6484
 8031TIP3   OH248287   7.497   5.047  12.712  0.7827  0.2962  0.2747
 8031TIP3    H148288   7.582   5.032  12.671  0.7926  1.8890 -0.3706
 8031TIP3    H248289   7.511   5.031  12.805  1.4917 -0.5836  0.0203
 8032TIP3   OH248290   3.445   6.638  11.062 -0.4930  0.2736  0.1157
 8032TIP3    H148291   3.478   6.722  11.030 -0.0097 -0.5743 -1.7552
 8032TIP3    H248292   3.521   6.596  11.103  0.6587 -1.1710 -3.1369
 8033TIP3   OH248293   1.734   0.203  11.792  0.0455 -0.8147 -0.4682
 8033TIP3    H148294   1.762   0.256  11.718 -0.1784  1.0881  0.7478
 8033TIP3    H248295   1.726   0.114  11.757  0.6966 -0.1063 -2.5060
 8034TIP3   OH248296   3.754   0.661  10.225  0.2985  0.0996  0.0254
 8034TIP3    H148297   3.770   0.729  10.291  0.0683  2.5905 -2.2987
 8034TIP3    H248298   3.683   0.696  10.171 -0.2246 -2.2966 -0.9559
 8035TIP3   OH248299   5.156   0.220  10.801  0.2176  0.1466 -0.0692
 8035TIP3    H148300   5.241   0.233  10.844 -0.8070  1.0607  1.7893
 8035TIP3    H248301   5.121   0.308  10.790 -1.9129 -0.2780  2.3290
 8036TIP3   OH248302   3.553   1.591  11.261  0.5133  0.5409 -0.0332
 8036TIP3    H148303   3.478   1.617  11.208  0.4588  0.2268 -0.1101
 8036TIP3    H248304   3.563   1.662  11.324 -0.9921 -0.2755  1.1716
 8037TIP3   OH248305   1.638   6.865  12.531 -0.2897 -0.4117 -0.0169
 8037TIP3    H148306   1.607   6.776  12.516  0.1423 -0.4856 -0.5087
 8037TIP3    H248307   1.729   6.864  12.501  0.2580 -0.2381  1.5495
 8038TIP3   OH248308   3.708   4.700  10.447 -0.1795 -0.4939 -0.4050
 8038TIP3    H148309   3.684   4.691  10.539  1.0877 -0.3832 -0.0375
 8038TIP3    H248310   3.640   4.653  10.399 -0.2399 -1.5449  0.6744
 8039TIP3   OH248311   7.496   6.022  10.687  0.0002  0.3507  0.0865
 8039TIP3    H148312   7.416   5.975  10.665 -0.5469  1.5975 -0.7238
 8039TIP3    H248313   7.501   6.017  10.783 -1.7226  1.2432  0.2758
 8040TIP3   OH248314   5.573   2.764  10.853  0.1197  0.2821  0.3935
 8040TIP3    H148315   5.520   2.842  10.839 -1.0295 -0.6129 -0.4826
 8040TIP3    H248316   5.550   2.734  10.941  0.6392  0.9765  0.7690
 8041TIP3   OH248317   0.392   5.468  11.539  0.3385 -0.2325  0.5897
 8041TIP3    H148318   0.468   5.410  11.544  0.1428 -0.6813 -0.9945
 8041TIP3    H248319   0.317   5.410  11.541  0.0410  0.1588  1.3732
 8042TIP3   OH248320   6.324   0.533  11.836 -0.2510  0.0545 -0.2320
 8042TIP3    H148321   6.256   0.467  11.847  0.2287 -0.3073  0.7150
 8042TIP3    H248322   6.389   0.511  11.903 -0.1899  1.6136  0.2673
 8043TIP3   OH248323   7.393   3.785  11.022 -0.0079  0.0890 -0.1707
 8043TIP3    H148324   7.428   3.848  11.084  0.2013 -1.7478  1.6651
 8043TIP3    H248325   7.410   3.824  10.936 -0.8012  2.9660  0.8655
 8044TIP3   OH248326   5.041   3.590  11.519  0.0588 -0.2355 -0.0988
 8044TIP3    H148327   4.981   3.658  11.550 -0.6763 -0.8343 -0.1584
 8044TIP3    H248328   5.104   3.636  11.464  0.2614  0.5590  0.7795
 8045TIP3   OH248329   4.033   0.895  10.929  0.1606 -0.3394  0.1507
 8045TIP3    H148330   4.029   0.919  11.021  0.4101  1.1335 -0.1979
 8045TIP3    H248331   3.942   0.901  10.899  0.3769  1.8527 -0.2897
 8046TIP3   OH248332   6.492   4.650  11.953  0.3291  0.0819  0.2652
 8046TIP3    H148333   6.502   4.601  12.035  0.0013 -1.0476 -0.3338
 8046TIP3    H248334   6.398   4.650  11.937  0.5481 -2.9618 -1.9261
 8047TIP3   OH248335   4.046   3.564  10.346  0.0120 -0.2649  0.3137
 8047TIP3    H148336   4.014   3.621  10.276  3.1370  1.7030  0.2783
 8047TIP3    H248337   4.046   3.620  10.424  2.1179 -0.4435  0.5147
 8048TIP3   OH248338   2.057   2.365  11.099 -0.3923  0.5054  0.2170
 8048TIP3    H148339   2.111   2.347  11.022  1.0094 -0.8417  1.4462
 8048TIP3    H248340   1.967   2.359  11.067  0.1414  1.7089 -1.6646
 8049TIP3   OH248341   3.131   2.915  11.639  0.1625 -0.3159  0.8359
 8049TIP3    H148342   3.205   2.926  11.699 -0.5487 -0.4680  1.7786
 8049TIP3    H248343   3.167   2.931  11.552  1.1387  0.3609  1.3436
 8050TIP3   OH248344   7.575   4.245  11.184 -0.2179 -0.2186 -0.2941
 8050TIP3    H148345   7.520   4.275  11.256  0.7170 -0.3070  0.4859
 8050TIP3    H248346   7.521   4.183  11.136 -0.4868 -1.0252  1.0045
 8051TIP3   OH248347   1.227   1.505   9.799 -0.1138 -0.5504 -0.2499
 8051TIP3    H148348   1.233   1.596   9.770 -0.4834 -0.8737 -1.4227
 8051TIP3    H248349   1.133   1.488   9.802 -0.0664 -1.5231 -2.2608
 8052TIP3   OH248350   6.971   7.221  11.622 -0.3690 -0.1888  0.9858
 8052TIP3    H148351   7.037   7.290  11.627  0.5531 -0.9708  0.0003
 8052TIP3    H248352   7.011   7.147  11.667 -0.3145 -0.8436 -0.1063
 8053TIP3   OH248353   3.436   1.263  12.805 -0.4155 -0.1036  0.4307
 8053TIP3    H148354   3.342   1.277  12.818 -0.3131  1.5570 -0.3590
 8053TIP3    H248355   3.472   1.352  12.798  1.1977 -0.7188  0.5996
 8054TIP3   OH248356   7.554   6.729  11.922 -0.3281  0.4896 -0.2763
 8054TIP3    H148357   7.649   6.738  11.912  0.1737 -0.7699  2.3725
 8054TIP3    H248358   7.518   6.754  11.837  2.3480  1.2597 -1.2772
 8055TIP3   OH248359   1.735   4.221  10.231  0.1894  0.1144  0.5822
 8055TIP3    H148360   1.719   4.295  10.290  2.7042  1.3636 -0.1887
 8055TIP3    H248361   1.830   4.216  10.224  0.1371 -3.4363  0.8018
 8056TIP3   OH248362   0.907   7.090  11.776 -0.3036 -0.1410  0.4442
 8056TIP3    H148363   0.914   7.118  11.685 -2.7751 -0.0475  0.2290
 8056TIP3    H248364   0.996   7.061  11.799  0.5478  0.5464 -1.7197
 8057TIP3   OH248365   4.538   4.194  11.291  0.0034 -0.1483  0.7069
 8057TIP3    H148366   4.466   4.199  11.353  0.2386 -1.4281  1.1258
 8057TIP3    H248367   4.521   4.114  11.241 -0.3034  0.9695 -1.0581
 8058TIP3   OH248368   6.746   0.178  11.484 -0.3971 -0.7399 -0.2950
 8058TIP3    H148369   6.693   0.140  11.554  0.2038 -0.2395  0.4401
 8058TIP3    H248370   6.712   0.137  11.404 -0.5664 -1.9014  0.3483
 8059TIP3   OH248371   5.566   5.875  10.703  0.0911  0.2785  0.4267
 8059TIP3    H148372   5.485   5.900  10.748 -0.1182  0.8680 -0.2548
 8059TIP3    H248373   5.604   5.958  10.674 -0.3276 -0.1316 -1.3903
 8060TIP3   OH248374   5.318   1.702  12.177  0.0825  0.4163  0.4096
 8060TIP3    H148375   5.413   1.694  12.189  0.1944  1.9684  0.7055
 8060TIP3    H248376   5.307   1.784  12.130 -1.0187 -0.6924 -1.3601
 8061TIP3   OH248377   5.501   5.161  11.599 -0.1083  0.0031 -0.9339
 8061TIP3    H148378   5.466   5.235  11.647  0.1558 -0.2926 -0.2800
 8061TIP3    H248379   5.567   5.199  11.541 -0.1808  0.3143 -0.8134
 8062TIP3   OH248380   4.032   3.871  10.146 -0.4597  0.6899  0.7828
 8062TIP3    H148381   4.124   3.875  10.119  0.2847 -2.3091  2.4486
 8062TIP3    H248382   3.992   3.808  10.085 -0.4885 -0.7101  2.1949
 8063TIP3   OH248383   1.185   5.492  11.585  0.4981  0.2690 -0.1076
 8063TIP3    H148384   1.257   5.521  11.529  1.4511 -0.8075  0.5353
 8063TIP3    H248385   1.156   5.410  11.546  1.5177 -0.7691  1.2402
 8064TIP3   OH248386   1.329   1.075   9.820 -0.3899 -0.6046  0.1181
 8064TIP3    H148387   1.424   1.082   9.825 -0.4345  0.0074  0.1731
 8064TIP3    H248388   1.299   1.164   9.798 -0.8283 -1.1277 -1.6004
 8065TIP3   OH248389   2.924   4.418  11.101 -0.6764  0.4085 -0.8385
 8065TIP3    H148390   2.960   4.493  11.053 -1.1049 -0.1536 -2.0674
 8065TIP3    H248391   2.845   4.453  11.143  0.5659  1.3245  0.8598
 8066TIP3   OH248392   1.075   1.793  11.576  0.1499  0.0541  0.2691
 8066TIP3    H148393   0.994   1.757  11.540 -0.3218 -0.5242  1.8084
 8066TIP3    H248394   1.144   1.738  11.539 -0.2356 -0.0707 -0.2895
 8067TIP3   OH248395   4.296   3.036  11.575  0.0255 -0.2999 -0.0384
 8067TIP3    H148396   4.270   3.095  11.646 -0.3449  2.2183 -2.0819
 8067TIP3    H248397   4.369   2.986  11.610 -1.2012 -0.3831  2.6180
 8068TIP3   OH248398   0.318   6.151  10.183  0.4225  0.1427 -0.6283
 8068TIP3    H148399   0.344   6.116  10.097 -0.5644  1.0848 -1.3267
 8068TIP3    H248400   0.234   6.109  10.201  1.0850 -0.7999  0.3520
 8069TIP3   OH248401   5.404   4.934  11.703 -0.2594 -0.5025 -0.0956
 8069TIP3    H148402   5.441   5.008  11.654 -0.8802  0.0045  0.1840
 8069TIP3    H248403   5.316   4.962  11.726  0.0987 -0.6036  1.5489
 8070TIP3   OH248404   1.907   0.378  11.930 -0.2055 -0.3626 -0.1813
 8070TIP3    H148405   1.845   0.306  11.918  2.1281 -2.5206 -0.4253
 8070TIP3    H248406   1.957   0.353  12.008  0.0846  1.5044  0.2749
 8071TIP3   OH248407   2.566   0.500  12.671 -0.2601 -0.3928  0.2024
 8071TIP3    H148408   2.555   0.516  12.765 -0.2335  1.0180 -0.0128
 8071TIP3    H248409   2.639   0.438  12.665  0.5366  0.4287  1.0724
 8072TIP3   OH248410   1.629   5.521  11.007  0.1213  0.0904 -0.4783
 8072TIP3    H148411   1.562   5.586  10.988 -1.1106 -0.2752  2.2094
 8072TIP3    H248412   1.661   5.544  11.094  0.5695 -2.1148  0.0049
 8073TIP3   OH248413   0.929   4.827  10.467 -0.1417  0.2735  0.0224
 8073TIP3    H148414   1.022   4.830  10.489 -0.2027 -1.3037  0.6011
 8073TIP3    H248415   0.889   4.777  10.538 -1.4888  1.1494 -0.0897
 8074TIP3   OH248416   3.837   6.365  12.149  0.2819 -0.1082  0.1568
 8074TIP3    H148417   3.883   6.321  12.221 -1.6260 -0.6973  1.0753
 8074TIP3    H248418   3.782   6.430  12.193  1.1811  1.5185 -1.0177
 8075TIP3   OH248419   4.456   2.378  10.126 -0.1296  0.0024 -0.3306
 8075TIP3    H148420   4.413   2.322  10.062 -0.1258 -0.3193 -0.0564
 8075TIP3    H248421   4.437   2.467  10.097 -0.9100 -0.1329 -0.2594
 8076TIP3   OH248422   6.293   3.420  11.260 -0.4085  0.1227 -0.5763
 8076TIP3    H148423   6.209   3.449  11.298 -0.7399  1.3138 -2.1126
 8076TIP3    H248424   6.310   3.336  11.301 -2.0100  0.1854  0.2998
 8077TIP3   OH248425   4.234   1.693  12.774  0.1063  0.0908 -0.8002
 8077TIP3    H148426   4.322   1.730  12.762  0.2299  0.0345 -0.0946
 8077TIP3    H248427   4.179   1.742  12.713  0.7017 -0.1546 -1.5502
 8078TIP3   OH248428   0.662   6.084  11.418  0.4486  0.7692  0.5170
 8078TIP3    H148429   0.716   6.005  11.430  0.5626  0.8441  0.4949
 8078TIP3    H248430   0.688   6.117  11.332 -1.0188 -0.2773 -0.3801
 8079TIP3   OH248431   1.499   4.274  11.388 -0.5149 -0.6256 -0.2290
 8079TIP3    H148432   1.422   4.221  11.365 -1.2685  0.7326 -0.9730
 8079TIP3    H248433   1.480   4.360  11.352 -0.6099  0.9843  3.2343
 8080TIP3   OH248434   0.084   6.280  12.580 -0.1588  0.3851  0.1383
 8080TIP3    H148435   0.176   6.262  12.600  0.2514  2.0098 -0.1018
 8080TIP3    H248436   0.050   6.198  12.545  1.2094 -0.2343  0.1903
 8081TIP3   OH248437   4.765   3.019  10.516  0.0602  0.1100 -0.0672
 8081TIP3    H148438   4.799   2.933  10.489 -1.8695 -0.5653 -0.5845
 8081TIP3    H248439   4.841   3.076  10.518  1.1943 -1.2898 -1.1092
 8082TIP3   OH248440   7.361   1.178   9.855 -0.7142 -0.3184  0.1217
 8082TIP3    H148441   7.295   1.113   9.878 -2.4757  1.1539 -0.5117
 8082TIP3    H248442   7.339   1.204   9.766  0.4637  0.5431  0.0550
 8083TIP3   OH248443   1.766   0.333  11.536  0.1611  0.4530  0.2814
 8083TIP3    H148444   1.808   0.329  11.450 -1.2178  1.0445 -0.4510
 8083TIP3    H248445   1.771   0.425  11.561  1.9216  0.0586  1.5892
 8084TIP3   OH248446   2.956   0.169  11.940  0.1547  0.2355  0.1307
 8084TIP3    H148447   2.938   0.139  11.850  1.9357  0.4449 -0.3262
 8084TIP3    H248448   2.876   0.148  11.988 -0.7769 -0.0510 -1.4596
 8085TIP3   OH248449   1.270   5.986  11.718 -0.4390  0.1464 -0.3671
 8085TIP3    H148450   1.331   5.947  11.655  1.2845 -1.3712  2.0669
 8085TIP3    H248451   1.257   6.076  11.687  0.2365 -0.5282 -2.8604
 8086TIP3   OH248452   7.112   2.790  12.482 -0.1497 -0.1061  0.5655
 8086TIP3    H148453   7.103   2.885  12.477 -0.5283 -0.1655 -0.0604
 8086TIP3    H248454   7.032   2.761  12.525 -0.8896 -0.2664 -0.8385
 8087TIP3   OH248455   6.592   0.633  12.747 -0.2822  0.2379 -0.3893
 8087TIP3    H148456   6.581   0.708  12.688 -0.3108  0.5141 -0.0361
 8087TIP3    H248457   6.651   0.574  12.700  0.7942  1.0699 -0.1194
 8088TIP3   OH248458   4.962   3.992  11.742  0.3077 -0.5192 -0.0535
 8088TIP3    H148459   5.050   3.967  11.713  1.0291  1.4377  0.3225
 8088TIP3    H248460   4.954   3.953  11.829  0.4250 -1.4451 -0.4363
 8089TIP3   OH248461   4.405   0.666  10.636 -0.0960 -0.5352 -0.4820
 8089TIP3    H148462   4.376   0.705  10.554  0.7051  1.3033  0.0562
 8089TIP3    H248463   4.347   0.703  10.703  1.5591  0.9666  0.2198
 8090TIP3   OH248464   2.021   1.890  11.745  0.6351 -0.3001 -0.1909
 8090TIP3    H148465   2.055   1.809  11.707 -0.2065 -0.7964  0.0874
 8090TIP3    H248466   1.926   1.878  11.745  0.5738  0.0273  1.2858
 8091TIP3   OH248467   4.214   0.277  12.557 -0.1961  0.2264  0.4897
 8091TIP3    H148468   4.247   0.320  12.479 -0.0500  0.5996  0.7556
 8091TIP3    H248469   4.289   0.274  12.617 -0.2959 -0.0901  0.6023
 8092TIP3   OH248470   1.752   6.325  12.481 -0.3949 -0.6166  0.1007
 8092TIP3    H148471   1.800   6.291  12.406  0.1784 -0.1577  0.2581
 8092TIP3    H248472   1.721   6.247  12.527  0.0588 -0.9134 -0.0889
 8093TIP3   OH248473   6.821   0.470  10.802  0.1600  0.0966 -0.6324
 8093TIP3    H148474   6.889   0.402  10.802 -0.5091 -0.5819 -1.0935
 8093TIP3    H248475   6.784   0.467  10.714  1.1412  2.1123 -1.1847
 8094TIP3   OH248476   2.544   2.922  11.932 -0.2134 -0.9780 -0.4859
 8094TIP3    H148477   2.551   2.946  11.839 -2.5765  1.5145 -0.1281
 8094TIP3    H248478   2.631   2.941  11.967  0.1755 -0.1200 -1.8104
 8095TIP3   OH248479   0.020   0.049  11.057 -0.2689 -0.0294  0.2429
 8095TIP3    H148480  -0.049  -0.015  11.074  2.0654 -2.5671  0.8795
 8095TIP3    H248481   0.075   0.047  11.135  0.8268  1.5070 -0.4298
 8096TIP3   OH248482   3.819   6.113  11.543 -0.2175  0.5345  0.3645
 8096TIP3    H148483   3.876   6.049  11.586 -0.6223 -0.0780 -0.0021
 8096TIP3    H248484   3.733   6.071  11.541 -0.4905  1.0964  0.1261
 8097TIP3   OH248485   4.054   6.485  11.052  0.1160 -0.0711  0.3249
 8097TIP3    H148486   4.021   6.434  10.978 -1.0096  1.5208 -0.3275
 8097TIP3    H248487   3.980   6.540  11.078  0.5467 -0.4558  2.5433
 8098TIP3   OH248488   0.707   6.231  10.680  0.3407 -0.6673  0.1038
 8098TIP3    H148489   0.659   6.288  10.620  1.1526  0.9046  0.8710
 8098TIP3    H248490   0.792   6.219  10.638  0.4944 -0.5455  0.3796
 8099TIP3   OH248491   5.640   4.279  10.234  0.7042  0.1888 -0.1036
 8099TIP3    H148492   5.728   4.288  10.196  0.1143 -0.0337 -1.5730
 8099TIP3    H248493   5.597   4.214  10.179 -0.1311 -0.3038  1.1025
 8100TIP3   OH248494   7.092   2.222   9.957  0.5820  0.1015  0.3309
 8100TIP3    H148495   7.158   2.216   9.887  0.5646  1.1379  0.2135
 8100TIP3    H248496   7.123   2.293  10.013 -1.0454  1.4526 -0.3974
 8101TIP3   OH248497   1.478   1.368  11.820  0.2932 -0.1007 -0.1963
 8101TIP3    H148498   1.478   1.325  11.906 -0.5891 -0.7111 -0.4882
 8101TIP3    H248499   1.435   1.452  11.836  1.9211  0.6651  0.3513
 8102TIP3   OH248500   5.992   0.102  11.156 -0.1283 -0.4090  0.1178
 8102TIP3    H148501   6.063   0.038  11.156 -0.6955 -1.0597  1.1011
 8102TIP3    H248502   5.916   0.053  11.123 -0.1067  0.3310 -1.1119
 8103TIP3   OH248503   4.526   4.280  12.026  0.3182  0.2894  0.4738
 8103TIP3    H148504   4.556   4.369  12.008 -0.8756  0.3006 -1.7752
 8103TIP3    H248505   4.606   4.230  12.041  1.1314  1.3521 -0.1887
 8104TIP3   OH248506   6.967   3.273  11.566 -0.5289  0.2520 -0.6190
 8104TIP3    H148507   6.886   3.322  11.552 -1.4512 -0.3293  2.0118
 8104TIP3    H248508   6.944   3.182  11.545 -0.9995 -0.1111  1.2630
 8105TIP3   OH248509   3.870   4.967  11.428  0.4790 -0.1545 -0.7694
 8105TIP3    H148510   3.918   4.942  11.506 -0.1657  0.1802 -0.2589
 8105TIP3    H248511   3.840   4.884  11.390  1.8404 -0.4048 -1.3589
 8106TIP3   OH248512   6.504   6.005  10.885  0.1329  0.6676 -0.2462
 8106TIP3    H148513   6.503   5.912  10.863  0.1423  0.6039  0.0198
 8106TIP3    H248514   6.421   6.020  10.930  0.0050  0.8515 -0.5395
 8107TIP3   OH248515   1.914   5.591  11.514 -0.0339 -0.0859 -0.0386
 8107TIP3    H148516   1.865   5.537  11.576 -0.6949  0.3220 -0.2043
 8107TIP3    H248517   1.899   5.681  11.542  0.9401  0.0385  0.1415
 8108TIP3   OH248518   2.905   0.322  10.147 -0.3660 -0.4265 -0.2966
 8108TIP3    H148519   2.998   0.301  10.153 -0.6703 -2.0134 -0.5279
 8108TIP3    H248520   2.861   0.245  10.184 -1.5814  0.7254  0.7746
 8109TIP3   OH248521   2.086   3.631  12.087 -0.2479  0.0285  0.2091
 8109TIP3    H148522   2.159   3.635  12.149 -0.8025 -2.1321  1.0686
 8109TIP3    H248523   2.013   3.674  12.132  0.3116  1.7507 -0.4578
 8110TIP3   OH248524   0.190   3.540  11.155 -0.4902  0.4684 -0.2859
 8110TIP3    H148525   0.133   3.483  11.207  0.7225  0.2868  0.8714
 8110TIP3    H248526   0.154   3.628  11.167  0.4402  0.6024  1.8473
 8111TIP3   OH248527   6.899   7.384  12.764  0.4506  0.1377 -0.4299
 8111TIP3    H148528   6.994   7.386  12.753  0.7686  0.3595  1.9139
 8111TIP3    H248529   6.872   7.475  12.752  0.5928  0.1670 -0.5325
 8112TIP3   OH248530   3.738   0.284  10.807  0.7629 -0.3013 -0.2849
 8112TIP3    H148531   3.809   0.346  10.823  2.7608 -1.6789 -2.9817
 8112TIP3    H248532   3.688   0.323  10.735 -1.5882  0.8208  1.8014
 8113TIP3   OH248533   4.426   2.883  11.027  0.6688  0.2227  0.2571
 8113TIP3    H148534   4.333   2.905  11.037  0.5716 -0.1471  0.1557
 8113TIP3    H248535   4.440   2.810  11.087  0.4993 -0.8214 -0.9333
 8114TIP3   OH248536   2.875   1.670  11.713  0.7303 -0.0361  0.3292
 8114TIP3    H148537   2.902   1.696  11.624  0.5724  0.0711  0.3125
 8114TIP3    H248538   2.784   1.699  11.719  0.4866 -0.7717  0.2374
 8115TIP3   OH248539   3.351   5.795  10.840 -0.1056 -0.3593 -0.3165
 8115TIP3    H148540   3.431   5.742  10.830 -0.9585 -2.0956  1.3833
 8115TIP3    H248541   3.285   5.748  10.789 -0.7310 -0.5970  0.6970
 8116TIP3   OH248542   1.691   3.382  10.326  0.2478  0.6639 -0.8435
 8116TIP3    H148543   1.720   3.318  10.260 -0.1464 -1.0189  0.5374
 8116TIP3    H248544   1.772   3.421  10.358  0.7355 -0.9690  0.0257
 8117TIP3   OH248545   0.180   2.977  11.253 -0.0782  0.1086 -0.3918
 8117TIP3    H148546   0.174   3.017  11.166  0.1797  1.3240  0.1162
 8117TIP3    H248547   0.265   3.007  11.287 -0.6023  0.4859  0.6486
 8118TIP3   OH248548   2.099   5.274  10.605 -0.0074 -0.2016 -0.3313
 8118TIP3    H148549   2.176   5.312  10.563 -1.2610  0.5382 -2.0794
 8118TIP3    H248550   2.096   5.184  10.572 -0.6732  0.2065 -1.4153
 8119TIP3   OH248551   7.104   2.112  11.755  0.1618 -0.0191  0.1917
 8119TIP3    H148552   7.020   2.132  11.796  0.3127  2.9584 -0.7128
 8119TIP3    H248553   7.168   2.164  11.804  1.5263 -2.1760  0.8141
 8120TIP3   OH248554   3.665   2.813  12.097  0.2506  0.3856 -0.2552
 8120TIP3    H148555   3.744   2.811  12.043 -0.1720 -0.5152 -0.8653
 8120TIP3    H248556   3.594   2.793  12.036 -0.4495  1.1127  0.3008
 8121TIP3   OH248557   0.461   7.340  11.070  0.5449 -0.4126  0.2607
 8121TIP3    H148558   0.450   7.427  11.031  0.4082 -0.2860  0.5722
 8121TIP3    H248559   0.545   7.344  11.115  1.4732 -1.0798 -1.3379
 8122TIP3   OH248560   0.441   0.700  17.492  0.7153  0.3541 -0.1030
 8122TIP3    H148561   0.422   0.651  17.572  1.0948  1.8903  0.9706
 8122TIP3    H248562   0.359   0.697  17.443  0.4550 -0.5528  0.3474
 8123TIP3   OH248563   7.292   2.562  10.717  0.1455 -0.0177  0.2806
 8123TIP3    H148564   7.336   2.646  10.709 -0.7861  0.3246 -1.7762
 8123TIP3    H248565   7.212   2.571  10.665 -1.6938 -1.0803  2.6887
 8124TIP3   OH248566   2.147   3.306  11.223  0.2261 -0.6044  0.2116
 8124TIP3    H148567   2.196   3.333  11.145  1.0242 -0.1344  0.8577
 8124TIP3    H248568   2.055   3.322  11.201  0.5866  1.6703  0.1700
 8125TIP3   OH248569   4.286   0.237  11.359 -0.0329 -0.1285 -0.1358
 8125TIP3    H148570   4.356   0.302  11.366  1.1936 -1.2791 -1.0724
 8125TIP3    H248571   4.208   0.288  11.337  0.5620  1.1587  0.5837
 8126TIP3   OH248572   3.756   0.178  11.331  0.0723 -0.9204 -0.5029
 8126TIP3    H148573   3.744   0.144  11.419 -0.2022 -1.7413 -0.8533
 8126TIP3    H248574   3.687   0.244  11.322  0.5828 -0.2773  0.1593
 8127TIP3   OH248575   5.298   7.132  10.913  0.2779  0.0533  0.3431
 8127TIP3    H148576   5.365   7.108  10.849  0.5631  0.5875  0.4332
 8127TIP3    H248577   5.258   7.212  10.876  0.3680  0.3000  0.7753
 8128TIP3   OH248578   3.593   6.313  11.062 -0.9292 -0.1072 -0.4561
 8128TIP3    H148579   3.603   6.382  10.996  1.0991 -1.1831 -1.3623
 8128TIP3    H248580   3.622   6.355  11.144 -0.4103  0.3188 -0.8516
 8129TIP3   OH248581   1.637   0.510  11.233 -0.2324  0.6151 -0.6692
 8129TIP3    H148582   1.562   0.453  11.219 -0.5540  1.1023 -0.9384
 8129TIP3    H248583   1.675   0.522  11.146  1.8000 -1.8157 -0.2473
 8130TIP3   OH248584   3.798   2.744  10.275  0.2001 -0.4455  0.7746
 8130TIP3    H148585   3.810   2.740  10.370  0.6742 -0.9849  0.6973
 8130TIP3    H248586   3.800   2.652  10.247  1.4308 -0.2287  0.0803
 8131TIP3   OH248587   1.969   6.453  10.408 -0.3550  0.2701  0.0806
 8131TIP3    H148588   1.927   6.406  10.337  0.5386  0.9841 -0.9473
 8131TIP3    H248589   1.940   6.544  10.398 -1.5214  0.1255  1.6372
 8132TIP3   OH248590   3.344   1.811  10.565 -0.8248 -0.6889 -0.3681
 8132TIP3    H148591   3.438   1.828  10.555 -0.5954 -0.7797  1.3886
 8132TIP3    H248592   3.336   1.716  10.559 -0.7753 -0.6971 -0.3038
 8133TIP3   OH248593   2.862   2.100  12.099 -0.5233  0.6963 -0.0456
 8133TIP3    H148594   2.904   2.036  12.041 -1.4005  0.7036 -0.6995
 8133TIP3    H248595   2.916   2.178  12.091  0.5974  0.0428  0.7995
 8134TIP3   OH248596   1.776   6.498  17.181  0.7082 -0.3618 -0.1276
 8134TIP3    H148597   1.809   6.536  17.100 -0.9879  2.1645  0.2267
 8134TIP3    H248598   1.853   6.488  17.237  1.4281  1.3933 -0.7588
 8135TIP3   OH248599   1.551   7.274  12.575 -0.2343 -0.4699  0.0925
 8135TIP3    H148600   1.458   7.283  12.556 -0.2210 -0.6864 -0.0893
 8135TIP3    H248601   1.556   7.206  12.642 -0.3006  0.4884  1.0821
 8136TIP3   OH248602   7.350   4.733  11.139 -0.6878  0.0211  0.4052
 8136TIP3    H148603   7.432   4.755  11.184 -0.8759 -0.5341  1.0341
 8136TIP3    H248604   7.366   4.757  11.048  0.2619 -0.2836  0.4759
 8137TIP3   OH248605   1.300   1.302  11.348 -0.0930  0.0176 -0.2484
 8137TIP3    H148606   1.341   1.256  11.421 -0.7780  1.0258  0.8169
 8137TIP3    H248607   1.221   1.341  11.386  0.0063  1.3165 -1.2937
 8138TIP3   OH248608   0.086   5.762  10.371  0.3039  0.4946 -0.2790
 8138TIP3    H148609   0.128   5.682  10.341  0.9429  0.8075 -0.2513
 8138TIP3    H248610   0.042   5.738  10.452 -0.4747 -0.0894 -0.8596
 8139TIP3   OH248611   4.937   5.180  10.572  0.3620 -0.8792  0.1688
 8139TIP3    H148612   4.848   5.213  10.554 -0.5393 -3.0804  0.2918
 8139TIP3    H248613   4.966   5.231  10.648  0.4022  1.8532 -1.5492
 8140TIP3   OH248614   5.384   0.931  10.570  0.3718  0.2624 -0.0935
 8140TIP3    H148615   5.449   0.878  10.525  1.1148  1.4757 -0.5152
 8140TIP3    H248616   5.424   1.018  10.576 -0.7985  0.7845  0.5524
 8141TIP3   OH248617   1.836   2.218  12.179  0.3050  0.0557  0.0763
 8141TIP3    H148618   1.870   2.276  12.112 -0.9862  1.9428  0.9899
 8141TIP3    H248619   1.774   2.271  12.229 -0.3176 -1.8650  1.4843
 8142TIP3   OH248620   6.602   2.552  10.325  0.0744 -0.2299 -0.0855
 8142TIP3    H148621   6.603   2.533  10.419 -1.2054  0.8863  0.1812
 8142TIP3    H248622   6.609   2.466  10.283  0.9018 -0.7257  1.0104
 8143TIP3   OH248623   0.586   4.385  10.354  0.6677  0.4979 -0.3128
 8143TIP3    H148624   0.679   4.379  10.336  0.4617 -1.7136 -0.8835
 8143TIP3    H248625   0.557   4.295  10.367 -1.0852  1.2339  1.5594
 8144TIP3   OH248626   0.583   3.982  12.583 -0.5839  0.3556 -0.7205
 8144TIP3    H148627   0.607   3.904  12.633 -0.1695 -0.1485 -1.6964
 8144TIP3    H248628   0.494   3.965  12.553 -0.3259  0.0488 -1.3245
 8145TIP3   OH248629   5.536   4.506  10.652  0.0867 -0.1580 -0.1344
 8145TIP3    H148630   5.451   4.482  10.615 -0.7194  0.8390  0.9844
 8145TIP3    H248631   5.576   4.562  10.587  0.9159 -2.3827 -1.6757
 8146TIP3   OH248632   5.791   5.558  11.039 -0.1388 -1.0678 -0.0372
 8146TIP3    H148633   5.739   5.536  11.116 -0.4774 -1.8410 -0.4789
 8146TIP3    H248634   5.727   5.566  10.968  0.1206  0.0593 -0.1648
 8147TIP3   OH248635   3.701   5.294  10.517  0.2771  0.1924  0.4931
 8147TIP3    H148636   3.795   5.289  10.538 -0.0609  1.9009  2.8180
 8147TIP3    H248637   3.659   5.247  10.589 -0.7231  0.2219 -0.0622
 8148TIP3   OH248638   2.018   7.239  11.995 -0.1063 -0.2403  0.4080
 8148TIP3    H148639   1.934   7.240  11.949  0.2950  0.1623 -0.3351
 8148TIP3    H248640   1.994   7.233  12.088 -0.9619  0.1917  0.2272
 8149TIP3   OH248641   4.161   2.210  11.825 -1.3071 -0.2122 -0.0238
 8149TIP3    H148642   4.119   2.128  11.854 -0.7781 -1.3150 -2.1614
 8149TIP3    H248643   4.125   2.226  11.738  1.2533 -0.1827 -1.1686
 8150TIP3   OH248644   6.310   1.073  11.912 -0.1628 -0.1878 -0.1221
 8150TIP3    H148645   6.293   0.980  11.928 -2.5188  0.0461 -0.9369
 8150TIP3    H248646   6.252   1.096  11.839 -0.2763  2.1367  0.6339
 8151TIP3   OH248647   0.927   1.038  11.625 -0.6214  0.1731 -0.2599
 8151TIP3    H148648   0.945   1.107  11.689  0.0839  0.4192 -0.7137
 8151TIP3    H248649   0.991   1.053  11.555 -1.5323  0.0393 -1.1346
 8152TIP3   OH248650   5.899   2.150  10.612  0.0774  0.3490  0.2805
 8152TIP3    H148651   5.832   2.208  10.648  3.1379  3.6584  1.2836
 8152TIP3    H248652   5.918   2.186  10.525  0.5975 -0.4495  0.0513
 8153TIP3   OH248653   1.321   0.725  10.940  0.2964 -0.0320  0.1505
 8153TIP3    H148654   1.302   0.787  10.870  1.0883  0.1592  0.0912
 8153TIP3    H248655   1.413   0.740  10.960  0.3556 -0.8244  0.5039
 8154TIP3   OH248656   1.018   7.281  12.017  0.2484  0.3827 -0.4159
 8154TIP3    H148657   1.067   7.300  11.938  0.2020  2.4402 -0.0069
 8154TIP3    H248658   0.930   7.315  12.000  0.2175  0.7929  0.4777
 8155TIP3   OH248659   7.429   4.872  10.880  0.3548  0.2021 -0.1513
 8155TIP3    H148660   7.485   4.950  10.882 -0.5047  0.8208  0.3464
 8155TIP3    H248661   7.490   4.799  10.880  1.1829  0.8457  1.2183
 8156TIP3   OH248662   6.144   7.072  10.278 -0.0926 -1.3022 -0.3103
 8156TIP3    H148663   6.234   7.041  10.266 -0.0800 -1.4135  0.0703
 8156TIP3    H248664   6.144   7.113  10.364 -0.2085 -0.5763 -0.6477
 8157TIP3   OH248665   5.521   6.549  11.117 -0.0018  0.3163  0.2687
 8157TIP3    H148666   5.524   6.458  11.087 -0.6887  0.9070 -1.7843
 8157TIP3    H248667   5.429   6.564  11.139  0.0511  0.6127  0.2907
 8158TIP3   OH248668   2.947   3.909  11.184  0.4058 -0.4065 -0.1455
 8158TIP3    H148669   2.880   3.862  11.234  0.1085  1.4741  1.3019
 8158TIP3    H248670   2.944   3.868  11.097 -1.2318 -1.6850  0.4513
 8159TIP3   OH248671   6.582   5.675  12.118  0.7372  0.1811 -0.6586
 8159TIP3    H148672   6.562   5.702  12.208  1.3756  0.0326 -0.4662
 8159TIP3    H248673   6.610   5.583  12.127 -1.1050 -0.4716 -1.2627
 8160TIP3   OH248674   5.468   4.790  10.109 -0.2039 -0.0309  0.5604
 8160TIP3    H148675   5.406   4.737  10.058  0.7695 -0.0081 -0.7101
 8160TIP3    H248676   5.439   4.781  10.199 -1.8668 -0.2795  0.0418
 8161TIP3   OH248677   2.063   2.716  11.484  0.5681 -0.4577 -0.8232
 8161TIP3    H148678   2.055   2.664  11.565  1.8207  0.0005 -0.3825
 8161TIP3    H248679   2.075   2.651  11.415 -0.1040 -0.8370 -0.6003
 8162TIP3   OH248680   1.249   3.761  11.519 -0.3629 -0.7388  0.0894
 8162TIP3    H148681   1.251   3.694  11.451 -0.1659  0.1823 -0.8366
 8162TIP3    H248682   1.272   3.715  11.599 -1.3114 -1.9930 -0.3370
 8163TIP3   OH248683   3.462   1.772  12.006 -0.2488  0.0748  0.6314
 8163TIP3    H148684   3.540   1.716  12.001 -1.4088 -1.5468  0.1032
 8163TIP3    H248685   3.469   1.814  12.092  1.5132  0.4669  0.3391
 8164TIP3   OH248686   1.051   6.705  11.950 -0.6265 -0.0841 -0.1021
 8164TIP3    H148687   1.044   6.669  12.039  3.5779 -1.4147 -0.0826
 8164TIP3    H248688   1.057   6.799  11.962 -1.7479 -0.1164  0.8349
 8165TIP3   OH248689   6.533   5.784  11.408 -0.0548 -0.1249 -0.6083
 8165TIP3    H148690   6.620   5.821  11.423 -0.5560  1.1442 -0.7345
 8165TIP3    H248691   6.544   5.690  11.426  1.7448 -0.3101 -2.2654
 8166TIP3   OH248692   5.552   7.613  11.539  0.3539  0.3777  0.2288
 8166TIP3    H148693   5.629   7.614  11.483 -0.6344  0.5366 -1.1914
 8166TIP3    H248694   5.541   7.704  11.567 -0.9589  0.9901 -2.0092
 8167TIP3   OH248695   0.183   1.032  10.016  0.6396 -0.7258  0.1674
 8167TIP3    H148696   0.207   0.953  10.064  1.7431 -0.6524 -0.2283
 8167TIP3    H248697   0.263   1.056   9.969  0.3096  0.5898  0.2395
 8168TIP3   OH248698   0.976   3.280  12.231 -0.6683 -0.0289  0.1295
 8168TIP3    H148699   0.949   3.315  12.146 -0.0785  1.3234  0.4893
 8168TIP3    H248700   0.966   3.185  12.221 -0.7244  0.1089 -1.4064
 8169TIP3   OH248701   4.961   5.628  10.388  0.1075 -0.3396  0.1356
 8169TIP3    H148702   4.917   5.689  10.447  2.5882  0.3389  1.3944
 8169TIP3    H248703   4.995   5.683  10.318 -1.8933 -1.0111 -1.4871
 8170TIP3   OH248704   6.395   4.449  11.142 -0.6355 -0.7037  0.6576
 8170TIP3    H148705   6.409   4.372  11.196  0.2416  0.0813  1.5839
 8170TIP3    H248706   6.431   4.522  11.193  1.5680 -0.1067 -1.5660
 8171TIP3   OH248707   0.597   7.257  11.581 -0.2033  0.1609  0.1831
 8171TIP3    H148708   0.524   7.206  11.617  0.5390 -0.7594  0.4089
 8171TIP3    H248709   0.587   7.248  11.486  0.8679 -1.8400  0.2107
 8172TIP3   OH248710   2.835   2.884  12.100 -0.2144  0.1019 -0.2310
 8172TIP3    H148711   2.808   2.829  12.173 -0.6813  1.5058  0.7094
 8172TIP3    H248712   2.898   2.945  12.138  0.3929  0.1458 -1.2652
 8173TIP3   OH248713   4.737   1.520  10.723 -0.1618 -0.4710  0.3170
 8173TIP3    H148714   4.737   1.596  10.780 -0.2780 -1.2000  1.3208
 8173TIP3    H248715   4.686   1.546  10.647 -1.3934 -0.0007  1.2688
 8174TIP3   OH248716   4.746   4.470  10.412  0.1236 -0.4518 -0.0146
 8174TIP3    H148717   4.651   4.478  10.417 -0.0032 -1.2462 -0.7194
 8174TIP3    H248718   4.777   4.489  10.500 -0.4619  2.2907 -0.3103
 8175TIP3   OH248719   6.638   3.933  11.775  0.4610 -0.1501  0.6571
 8175TIP3    H148720   6.619   4.026  11.768 -0.9005 -0.3257  1.5555
 8175TIP3    H248721   6.731   3.928  11.795  0.2764  1.0878  1.9310
 8176TIP3   OH248722   0.450   3.202  12.111  0.4030  0.1923 -0.2554
 8176TIP3    H148723   0.496   3.208  12.028  0.8466 -1.7579 -0.1890
 8176TIP3    H248724   0.417   3.112  12.115 -0.1145  0.4090  1.4073
 8177TIP3   OH248725   1.313   1.743  11.047 -0.0368 -0.0517  0.4006
 8177TIP3    H148726   1.319   1.689  11.126 -0.5228 -1.2355 -0.3572
 8177TIP3    H248727   1.227   1.725  11.011 -0.7079  2.1442  0.7389
 8178TIP3   OH248728   6.856   4.296  11.703  0.1941 -0.0547  0.8786
 8178TIP3    H148729   6.784   4.234  11.708 -1.6077  1.8508 -0.1301
 8178TIP3    H248730   6.855   4.342  11.788 -0.0558  0.2650  0.7025
 8179TIP3   OH248731   5.313   0.532  12.665 -0.2138 -0.5590  0.0386
 8179TIP3    H148732   5.274   0.446  12.653  0.8086 -0.9515 -0.5780
 8179TIP3    H248733   5.399   0.526  12.624  0.0408  0.6332  0.3452
 8180TIP3   OH248734   7.677   7.665  10.549 -0.3378 -0.4207  0.3451
 8180TIP3    H148735   7.630   7.683  10.631  0.8606  0.1351  0.9283
 8180TIP3    H248736   7.634   7.721  10.484 -0.2252  0.4073  0.9616
 8181TIP3   OH248737   5.868   0.151  12.510  0.2262 -0.5399 -0.0392
 8181TIP3    H148738   5.791   0.134  12.566  0.5792  0.1900  0.6951
 8181TIP3    H248739   5.887   0.243  12.524  1.1016 -0.6582 -0.4034
 8182TIP3   OH248740   5.248   2.069  11.291  0.0101 -0.2241 -0.2104
 8182TIP3    H148741   5.339   2.062  11.262  0.2976  0.2605  0.5464
 8182TIP3    H248742   5.247   2.143  11.352 -1.0224  0.1783 -0.6850
 8183TIP3   OH248743   1.703   6.623  10.636  0.1520  0.5172  0.4839
 8183TIP3    H148744   1.668   6.642  10.549 -0.4827 -0.6819  0.4452
 8183TIP3    H248745   1.653   6.680  10.695 -0.7363  0.0093  0.2463
 8184TIP3   OH248746   5.944   6.216  11.752 -0.2337 -0.4480  0.3340
 8184TIP3    H148747   6.016   6.233  11.690 -0.8647 -0.1209 -0.3254
 8184TIP3    H248748   5.902   6.138  11.718 -1.4421  0.5172 -0.4738
 8185TIP3   OH248749   7.433   4.190  10.956  0.0380 -0.5830 -0.4617
 8185TIP3    H148750   7.363   4.244  10.991 -1.7387 -2.7439 -0.5259
 8185TIP3    H248751   7.411   4.180  10.863  0.4910 -1.2269 -0.5019
 8186TIP3   OH248752   4.629   5.763  10.167  0.3490  0.1368 -0.8702
 8186TIP3    H148753   4.663   5.683  10.125  1.0771  0.6718 -1.3283
 8186TIP3    H248754   4.535   5.746  10.178  0.2609 -0.2790 -2.1207
 8187TIP3   OH248755   2.803   0.441  11.954  0.0185  0.0074  0.0163
 8187TIP3    H148756   2.894   0.412  11.960 -0.2499 -0.8548  0.0260
 8187TIP3    H248757   2.758   0.368  11.912 -0.3855  1.0532 -1.4499
 8188TIP3   OH248758   1.856   3.330  12.701  0.7499  0.4495  0.1384
 8188TIP3    H148759   1.910   3.294  12.771  0.4069 -0.2498  0.0544
 8188TIP3    H248760   1.838   3.256  12.643 -2.0866  0.0844  1.3000
 8189TIP3   OH248761   6.129   3.279  11.045 -0.1373  0.0470  0.5240
 8189TIP3    H148762   6.033   3.276  11.042 -0.2804 -1.4703  3.1968
 8189TIP3    H248763   6.149   3.302  11.136  2.0173 -1.7528  0.5866
 8190TIP3   OH248764   6.652   6.253  10.880  0.7960  0.6011 -0.4142
 8190TIP3    H148765   6.586   6.187  10.899  0.4163  0.8439 -0.8725
 8190TIP3    H248766   6.703   6.217  10.808  1.9738 -0.1376  0.7327
 8191TIP3   OH248767   0.900   2.398  10.082  0.2824 -0.3005 -0.4351
 8191TIP3    H148768   0.898   2.362  10.171 -1.0956  0.6156 -0.0642
 8191TIP3    H248769   0.856   2.332  10.029  3.0525 -1.9188 -0.9346
 8192TIP3   OH248770   5.836   4.108  10.855 -0.5451 -0.0699 -0.4950
 8192TIP3    H148771   5.875   4.036  10.805 -2.0265 -1.3383  0.0844
 8192TIP3    H248772   5.750   4.074  10.882 -1.7390  2.3052 -1.0809
 8193TIP3   OH248773   4.741   5.768  11.477 -0.3577  0.6648  0.3769
 8193TIP3    H148774   4.711   5.679  11.495  1.6049 -0.0542  0.2245
 8193TIP3    H248775   4.812   5.783  11.539  0.3505  1.5648 -0.6205
 8194TIP3   OH248776   6.305   6.684  12.265 -0.6195 -0.4188  0.0706
 8194TIP3    H148777   6.244   6.666  12.193 -0.1773 -2.7341  0.1958
 8194TIP3    H248778   6.251   6.722  12.333 -0.9806  2.2674 -1.5562
 8195TIP3   OH248779   3.660   3.782  10.727 -0.4025  0.4495  0.7302
 8195TIP3    H148780   3.665   3.773  10.631  0.2825 -0.6272  0.8426
 8195TIP3    H248781   3.662   3.691  10.759 -1.0573  0.7831  1.7485
 8196TIP3   OH248782   7.351   6.167   9.992  0.0756 -0.1358 -0.1607
 8196TIP3    H148783   7.386   6.101  10.053 -2.1592  0.1914  1.5987
 8196TIP3    H248784   7.368   6.250  10.035 -0.0909  0.2297 -0.7884
 8197TIP3   OH248785   2.890   6.101  10.488 -0.5944  0.6811 -0.2484
 8197TIP3    H148786   2.806   6.070  10.521 -0.6360  0.6193 -0.4107
 8197TIP3    H248787   2.954   6.038  10.521 -0.3964  1.6093  1.2328
 8198TIP3   OH248788   6.725   1.361  10.757 -0.8840  0.1010  0.4786
 8198TIP3    H148789   6.807   1.392  10.795  0.2971 -0.9052 -1.1641
 8198TIP3    H248790   6.729   1.386  10.665 -2.3135 -0.2077  0.3056
 8199TIP3   OH248791   2.601   1.754  11.683  0.0412  0.5766  0.8425
 8199TIP3    H148792   2.548   1.771  11.605  0.3686 -1.1285  0.2146
 8199TIP3    H248793   2.604   1.838  11.728 -1.3155  1.2652 -0.2600
 8200TIP3   OH248794   7.328   4.776  13.074 -0.2410 -0.1967  0.0424
 8200TIP3    H148795   7.372   4.773  12.989 -2.0371 -0.9635 -0.9131
 8200TIP3    H248796   7.286   4.862  13.076  0.1499 -0.0115  0.3480
 8201TIP3   OH248797   6.765   0.190  10.667  0.1189 -0.2998  0.3272
 8201TIP3    H148798   6.672   0.214  10.674 -0.1060 -1.3687  1.2522
 8201TIP3    H248799   6.799   0.249  10.600 -1.3362 -0.1730 -0.3538
 8202TIP3   OH248800   2.922   2.011  10.825  0.0899 -0.4814  0.0721
 8202TIP3    H148801   2.970   2.015  10.742 -1.2292 -2.5047 -0.8788
 8202TIP3    H248802   2.860   2.083  10.820 -0.4956 -1.0245 -1.1110
 8203TIP3   OH248803   1.440   2.864  11.845 -0.3407 -0.0343  0.1035
 8203TIP3    H148804   1.517   2.890  11.793  1.1894 -2.9115  0.7452
 8203TIP3    H248805   1.470   2.868  11.936 -1.2076 -0.4133  0.4114
 8204TIP3   OH248806   7.561   2.173   9.697  0.3553 -0.0409  0.5076
 8204TIP3    H148807   7.578   2.079   9.697  1.4729  0.1081 -1.6047
 8204TIP3    H248808   7.648   2.213   9.702  0.2071  0.8046 -2.1930
 8205TIP3   OH248809   4.447   7.451  12.039  0.2397 -0.3343  0.0969
 8205TIP3    H148810   4.527   7.410  12.073 -0.4506 -0.0607  2.1621
 8205TIP3    H248811   4.382   7.380  12.040 -0.2171  0.0799  0.9863
 8206TIP3   OH248812   2.963   1.222  11.121  0.2120 -0.0050 -0.2933
 8206TIP3    H148813   2.980   1.157  11.189 -0.2231  0.3600  0.1714
 8206TIP3    H248814   3.044   1.273  11.117  0.0990  0.2216  0.2335
 8207TIP3   OH248815   6.831   4.876  10.026 -0.4894 -0.0352  0.3381
 8207TIP3    H148816   6.796   4.835   9.948 -0.5113 -1.8284  1.2446
 8207TIP3    H248817   6.776   4.953  10.040 -0.7877  0.0289 -1.1085
 8208TIP3   OH248818   2.915   1.862  12.252 -0.1216  0.1307  0.3062
 8208TIP3    H148819   2.921   1.907  12.337 -0.7417 -0.2109  0.5437
 8208TIP3    H248820   2.899   1.932  12.189 -0.4273  0.3137  0.5803
 8209TIP3   OH248821   6.027   2.335  11.410  0.3325 -0.2690  0.7587
 8209TIP3    H148822   6.059   2.424  11.395 -0.0746 -0.5042 -1.9191
 8209TIP3    H248823   5.995   2.337  11.500 -0.0881  2.4307  0.6530
 8210TIP3   OH248824   1.418   4.553  11.825 -0.0813 -0.1350 -0.0912
 8210TIP3    H148825   1.404   4.606  11.746 -1.9791 -0.8716 -0.2863
 8210TIP3    H248826   1.473   4.480  11.796 -0.0005  0.0880 -0.5067
 8211TIP3   OH248827   2.661   6.252  11.342  0.2532 -0.0257  0.1453
 8211TIP3    H148828   2.594   6.219  11.282  0.4957 -0.7006  0.2382
 8211TIP3    H248829   2.723   6.299  11.286  0.1331 -0.0949 -0.0469
 8212TIP3   OH248830   4.175   2.994  11.054  0.6608  0.1485  0.0072
 8212TIP3    H148831   4.134   2.931  11.112 -0.8121  0.4364 -0.6560
 8212TIP3    H248832   4.134   3.078  11.077  0.8320  0.4431 -0.7133
 8213TIP3   OH248833   6.157   6.185  11.042  0.2473  0.2678  0.3185
 8213TIP3    H148834   6.210   6.105  11.034  0.8040  0.6457  0.1933
 8213TIP3    H248835   6.165   6.210  11.134  0.2822  0.3247  0.2999
 8214TIP3   OH248836   2.323   2.127  11.710 -0.4706 -0.4285 -1.0940
 8214TIP3    H148837   2.297   2.200  11.766 -0.3032 -0.1577 -1.3641
 8214TIP3    H248838   2.294   2.049  11.757  0.0527 -0.2296 -0.4337
 8215TIP3   OH248839   6.043   5.593  10.381  0.2886  0.3134  0.4179
 8215TIP3    H148840   6.089   5.510  10.371  0.3853  0.4826 -0.7475
 8215TIP3    H248841   5.963   5.583  10.329 -0.9458  0.0895  2.2672
 8216TIP3   OH248842   3.604   4.090   9.973 -0.9230 -0.4171  0.2202
 8216TIP3    H148843   3.672   4.041  10.019 -0.8134  0.5081  1.0579
 8216TIP3    H248844   3.651   4.151   9.917 -1.0661 -0.2947  0.2315
 8217TIP3   OH248845   1.530   6.769  10.781  0.7037  0.3842  0.4846
 8217TIP3    H148846   1.480   6.851  10.782 -0.2052 -0.1368 -0.7314
 8217TIP3    H248847   1.465   6.701  10.767  1.6499 -0.4132 -0.1672
 8218TIP3   OH248848   5.055   5.720  10.125 -0.5988  0.4759  0.2295
 8218TIP3    H148849   5.137   5.771  10.124 -0.5205  0.3708  0.8478
 8218TIP3    H248850   4.992   5.775  10.077 -0.4388  1.0195  0.6314
 8219TIP3   OH248851   7.113   0.282   9.915 -0.1445  0.5408 -0.0733
 8219TIP3    H148852   7.113   0.371   9.950  0.9553  0.8488 -0.7975
 8219TIP3    H248853   7.181   0.237   9.964 -1.4023 -0.2358  1.0271
 8220TIP3   OH248854   5.011   2.019  11.102  0.0279  0.3501 -0.6219
 8220TIP3    H148855   4.963   2.088  11.057  0.0007  1.8547  1.5318
 8220TIP3    H248856   5.084   2.064  11.146  1.2382 -1.3135 -0.7863
 8221TIP3   OH248857   4.638   4.426  11.442  0.3752 -0.7488  0.3128
 8221TIP3    H148858   4.616   4.351  11.386 -0.1880 -0.1702 -0.2483
 8221TIP3    H248859   4.731   4.413  11.463 -0.1606 -2.5878  1.7414
 8222TIP3   OH248860   6.748   6.932  10.368  0.1166  0.5179 -0.2698
 8222TIP3    H148861   6.711   6.995  10.306 -0.2423 -0.9640 -1.6220
 8222TIP3    H248862   6.796   6.870  10.313 -0.2455 -0.8681  0.9441
 8223TIP3   OH248863   3.243   6.830  10.902  0.2976 -0.1805 -0.3288
 8223TIP3    H148864   3.202   6.916  10.896 -2.3841 -1.4231 -1.1575
 8223TIP3    H248865   3.278   6.814  10.814 -1.2860 -0.8426 -0.8755
 8224TIP3   OH248866   2.506   1.880  12.361  0.3896 -0.0886  0.6313
 8224TIP3    H148867   2.424   1.916  12.327 -0.4778  0.4594  3.0537
 8224TIP3    H248868   2.567   1.953  12.357  1.0926 -0.7355 -1.9836
 8225TIP3   OH248869   1.458   3.022  12.079 -0.1800  0.5220 -0.3837
 8225TIP3    H148870   1.456   2.989  12.169 -2.9747 -0.0573 -0.5629
 8225TIP3    H248871   1.546   3.059  12.069  0.0215  1.2213  2.7881
 8226TIP3   OH248872   7.001   5.292  11.090 -0.3459 -0.1184  0.0264
 8226TIP3    H148873   7.016   5.204  11.126  1.6247  0.1069 -0.1092
 8226TIP3    H248874   6.981   5.346  11.166  0.3289 -0.3286  0.3607
 8227TIP3   OH248875   5.362   2.143  10.381 -0.3314 -0.2933  0.0171
 8227TIP3    H148876   5.444   2.165  10.337 -0.2931 -0.0917  0.1854
 8227TIP3    H248877   5.387   2.081  10.449 -0.1420  0.6193  0.8013
 8228TIP3   OH248878   0.741   5.571  12.635 -0.1570  0.0778 -0.3306
 8228TIP3    H148879   0.824   5.532  12.608 -0.0642 -0.7788  1.1025
 8228TIP3    H248880   0.674   5.512  12.601 -0.0772 -0.4922  0.4820
 8229TIP3   OH248881   2.965   1.782  11.402  0.2565  0.0959  0.2028
 8229TIP3    H148882   2.890   1.829  11.366  0.7487  2.2956  1.8510
 8229TIP3    H248883   3.033   1.849  11.413  2.4721 -1.7650 -1.0349
 8230TIP3   OH248884   2.103   2.149  10.061 -0.1117  0.3423 -0.1346
 8230TIP3    H148885   2.011   2.122  10.057 -0.1334 -0.1415  2.3774
 8230TIP3    H248886   2.153   2.067  10.058  0.0915  0.4005  1.1126
 8231TIP3   OH248887   2.556   0.292  10.733  0.1305  0.0104 -0.4501
 8231TIP3    H148888   2.467   0.328  10.740 -0.8632 -2.1578 -0.9055
 8231TIP3    H248889   2.583   0.312  10.644  0.0604  0.5751 -0.3499
 8232TIP3   OH248890   3.431   1.816  12.290 -0.2932 -0.7078  0.2065
 8232TIP3    H148891   3.431   1.879  12.363 -2.5600 -0.8581  0.3844
 8232TIP3    H248892   3.420   1.731  12.332  1.0903 -1.1063 -0.1674
 8233TIP3   OH248893   3.356   2.061  11.183 -0.0529  0.3603 -0.3780
 8233TIP3    H148894   3.342   1.968  11.204 -1.0354  0.1939 -1.6157
 8233TIP3    H248895   3.310   2.073  11.100  1.1036  1.6716 -0.8632
 8234TIP3   OH248896   3.444   5.966  12.210 -0.2076  0.3658 -0.6176
 8234TIP3    H148897   3.406   5.957  12.298  3.8920 -1.7282  1.2229
 8234TIP3    H248898   3.458   6.060  12.199 -2.6598  0.8693 -0.0138
 8235TIP3   OH248899   5.878   7.367  12.171  0.9788 -0.0467 -0.5380
 8235TIP3    H148900   5.796   7.382  12.218  1.2486  0.9139 -0.3507
 8235TIP3    H248901   5.913   7.287  12.209  1.6565  1.1859  1.6231
 8236TIP3   OH248902   0.970   5.285  10.766 -0.0619  0.7126  0.1113
 8236TIP3    H148903   1.059   5.317  10.782 -0.0846  0.0630  1.6382
 8236TIP3    H248904   0.981   5.191  10.751 -0.6353  0.3152  1.9754
 8237TIP3   OH248905   1.413   6.889  11.894  0.0486 -0.0579 -0.0832
 8237TIP3    H148906   1.449   6.932  11.972 -2.2678  1.3806  0.2660
 8237TIP3    H248907   1.482   6.898  11.828  1.5839 -0.2629  1.4045
 8238TIP3   OH248908   4.820   3.420   9.872  0.1990 -0.1042  0.0185
 8238TIP3    H148909   4.893   3.371   9.834  0.3815  0.0515  0.1631
 8238TIP3    H248910   4.861   3.499   9.907  0.3129 -1.0071  2.0425
 8239TIP3   OH248911   6.251   1.091  11.256  0.1808 -0.9695 -0.3724
 8239TIP3    H148912   6.247   1.128  11.345  0.3963  1.0364 -1.1454
 8239TIP3    H248913   6.325   1.136  11.215 -1.7677  0.4601 -2.5421
 8240TIP3   OH248914   2.163   7.506  10.916 -0.3861 -0.1838  0.6546
 8240TIP3    H148915   2.118   7.428  10.883 -1.5044  0.6883  0.0235
 8240TIP3    H248916   2.255   7.492  10.895 -0.9309  0.0146 -2.3529
 8241TIP3   OH248917   7.661   7.089  12.050 -0.2959 -0.0048  0.0287
 8241TIP3    H148918   7.697   7.132  12.127 -1.0722  0.7032  0.0054
 8241TIP3    H248919   7.591   7.033  12.085  0.2768 -0.7737 -0.0147
 8242TIP3   OH248920   4.274   4.586  12.253 -0.7006  0.7211 -0.3597
 8242TIP3    H148921   4.344   4.628  12.302  0.0063 -1.3338  0.5253
 8242TIP3    H248922   4.292   4.608  12.162  1.5944 -0.3541 -0.2350
 8243TIP3   OH248923   2.847   7.478  11.792  0.0933 -0.0161  0.3794
 8243TIP3    H148924   2.832   7.490  11.886  1.1580  0.6230  0.4794
 8243TIP3    H248925   2.924   7.422  11.787  0.2254  0.2040 -0.1118
 8244TIP3   OH248926   3.995   0.558  10.322 -0.1062  0.0993 -0.4848
 8244TIP3    H148927   3.948   0.599  10.249 -0.1989 -1.1564 -1.1549
 8244TIP3    H248928   3.926   0.531  10.383 -0.1112  0.0752 -0.5010
 8245TIP3   OH248929   0.026   6.339  10.243 -0.4140 -0.1083 -0.4832
 8245TIP3    H148930  -0.017   6.399  10.182 -0.5948  0.4134  0.1467
 8245TIP3    H248931  -0.020   6.256  10.231  0.1039 -0.2428 -1.6561
 8246TIP3   OH248932   6.799   5.045  11.040 -0.1375 -0.2983  0.3000
 8246TIP3    H148933   6.734   4.980  11.068  0.4118 -1.5647 -1.2258
 8246TIP3    H248934   6.875   5.027  11.094  0.5164 -1.9622 -1.0757
 8247TIP3   OH248935   2.212   2.282  10.888  0.3306  0.2275 -0.1874
 8247TIP3    H148936   2.282   2.217  10.888  0.2043  0.0904 -0.0060
 8247TIP3    H248937   2.224   2.330  10.806 -0.2545 -0.7535 -0.8641
 8248TIP3   OH248938   4.216   1.320  11.438  0.3941  0.1044 -0.0776
 8248TIP3    H148939   4.309   1.297  11.446  0.7927  1.8455  0.5891
 8248TIP3    H248940   4.208   1.404  11.482 -1.3287  0.4346 -0.9544
 8249TIP3   OH248941   6.118   4.800  11.046  0.3824 -0.5911 -0.4903
 8249TIP3    H148942   6.111   4.865  10.976  1.4316 -1.2799 -1.2710
 8249TIP3    H248943   6.094   4.718  11.004 -1.3551 -0.6791  0.5929
 8250TIP3   OH248944   4.001   3.213  11.388  0.0445 -0.4671 -0.5474
 8250TIP3    H148945   3.983   3.298  11.346 -0.4378 -0.1362  0.2930
 8250TIP3    H248946   3.929   3.157  11.359  0.6668 -0.7738 -1.5547
 8251TIP3   OH248947   6.088   2.845  12.044  0.2151  0.4344 -0.1132
 8251TIP3    H148948   6.165   2.789  12.036 -0.9930 -1.1481 -1.3634
 8251TIP3    H248949   6.032   2.800  12.107 -0.7933  0.1582 -1.1694
 8252TIP3   OH248950   5.126   3.921  10.421 -0.1538 -0.1286 -0.2861
 8252TIP3    H148951   5.164   3.919  10.509  1.3021 -0.2129 -0.8860
 8252TIP3    H248952   5.177   3.857  10.372 -0.9484 -0.0813 -1.1998
 8253TIP3   OH248953   0.343   5.942  12.710  0.1312 -0.3529  0.7141
 8253TIP3    H148954   0.421   5.887  12.703  0.5531  0.0952  1.7122
 8253TIP3    H248955   0.343   5.995  12.630  0.4776 -0.8242  0.4019
 8254TIP3   OH248956   0.446   7.558  10.716 -0.1088  0.2187  0.3191
 8254TIP3    H148957   0.480   7.641  10.683 -0.6508  0.5318  0.5187
 8254TIP3    H248958   0.382   7.584  10.783  0.3230 -0.3783  0.9726
 8255TIP3   OH248959   5.224   1.108  12.142  0.0526  0.1886 -0.1831
 8255TIP3    H148960   5.137   1.085  12.175 -0.3584  0.7231 -0.8523
 8255TIP3    H248961   5.248   1.035  12.085  0.2194 -0.1501  0.3205
 8256TIP3   OH248962   5.996   0.954  12.048  0.2781 -0.1808  0.3924
 8256TIP3    H148963   5.985   0.927  11.957 -2.6314 -1.8992  1.1414
 8256TIP3    H248964   6.006   1.049  12.044 -1.5441  0.0051 -1.6565
 8257TIP3   OH248965   1.546   4.806  10.501 -0.0322 -0.2807  0.0376
 8257TIP3    H148966   1.568   4.856  10.423 -0.2451  0.0477  0.1902
 8257TIP3    H248967   1.624   4.753  10.518  0.3187  0.2443  0.0711
 8258TIP3   OH248968   6.028   5.900  11.732  0.0992  0.3524  0.3710
 8258TIP3    H148969   5.934   5.912  11.741 -0.2150 -2.3086  1.3619
 8258TIP3    H248970   6.038   5.817  11.685  1.9665  0.9081 -0.3235
 8259TIP3   OH248971   1.498   1.850  11.461 -0.2480 -0.3917  0.3994
 8259TIP3    H148972   1.590   1.844  11.484 -0.2631  0.3963  0.6920
 8259TIP3    H248973   1.475   1.941  11.478 -1.2952 -0.7753  1.1374
 8260TIP3   OH248974   1.166   0.302  11.737  0.0212  0.3225 -0.1502
 8260TIP3    H148975   1.123   0.263  11.813 -1.0767  1.3857 -0.1863
 8260TIP3    H248976   1.249   0.335  11.771 -0.2963  0.4600  0.5214
 8261TIP3   OH248977   7.181   3.628  10.776  0.2167  0.2915 -0.0578
 8261TIP3    H148978   7.148   3.543  10.747  0.7468  0.4887 -1.3553
 8261TIP3    H248979   7.200   3.617  10.869 -0.1002 -0.8862 -0.1211
 8262TIP3   OH248980   6.053   4.517  10.725  0.5156 -0.5197 -0.1205
 8262TIP3    H148981   6.064   4.463  10.647  0.6818 -1.8899  0.8102
 8262TIP3    H248982   6.012   4.597  10.693  1.6479 -0.5615 -1.7700
 8263TIP3   OH248983   2.707   5.996  10.239 -0.3630  0.1434  0.2159
 8263TIP3    H148984   2.677   5.921  10.290 -0.1868  0.4602  0.7848
 8263TIP3    H248985   2.631   6.020  10.185 -0.3882 -0.5037 -0.0430
 8264TIP3   OH248986   6.659   4.142  11.130 -0.1562  0.2997 -0.4777
 8264TIP3    H148987   6.575   4.096  11.130 -0.9653  1.6128  1.6357
 8264TIP3    H248988   6.659   4.191  11.047 -1.7448  0.7058 -0.2742
 8265TIP3   OH248989   7.460   3.653  10.532 -0.4629  0.0356  0.3755
 8265TIP3    H148990   7.510   3.679  10.610 -1.4413  2.8400  0.1873
 8265TIP3    H248991   7.375   3.624  10.566 -0.5571  0.3500  0.4103
 8266TIP3   OH248992   3.415   2.005  12.496  0.5793 -0.2320  0.6294
 8266TIP3    H148993   3.325   2.036  12.505  0.9585  1.7420 -1.3950
 8266TIP3    H248994   3.469   2.083  12.509  1.8539 -0.8514 -0.5860
 8267TIP3   OH248995   1.989   2.495  10.806 -0.5936 -0.0619 -0.3415
 8267TIP3    H148996   2.034   2.544  10.875  1.1814  0.7770 -1.9904
 8267TIP3    H248997   2.060   2.465  10.748 -1.8915 -2.0353 -1.0130
 8268TIP3   OH248998   3.069   0.056  10.476  0.1245  0.4271 -0.0682
 8268TIP3    H148999   3.058   0.016  10.563  1.7007  2.9839  1.4522
 8268TIP3    H249000   3.163   0.049  10.459 -0.0937  0.4562 -1.3525
 8269TIP3   OH249001   2.546   6.177   9.835 -0.5625  0.6022  0.0157
 8269TIP3    H149002   2.590   6.145   9.757 -0.8468  0.5802 -0.1371
 8269TIP3    H249003   2.513   6.099   9.879 -1.2393  0.6717 -0.3471
 8270TIP3   OH249004   3.438   3.910  10.806  0.0955  0.1004  0.0070
 8270TIP3    H149005   3.502   3.978  10.788  0.8892 -1.2064 -2.7624
 8270TIP3    H249006   3.490   3.830  10.814 -1.0189 -0.6902 -0.3864
 8271TIP3   OH249007   7.371   5.683  10.311  0.5390  0.2385 -0.1633
 8271TIP3    H149008   7.423   5.734  10.373  0.6203  0.9327 -0.7924
 8271TIP3    H249009   7.348   5.745  10.242 -0.5533 -0.2278 -0.2335
 8272TIP3   OH249010   3.043   7.261  10.919  0.2770  0.0215  0.3418
 8272TIP3    H149011   2.999   7.184  10.955 -0.4816  0.6931  0.8750
 8272TIP3    H249012   2.980   7.332  10.930  0.5252  0.5034 -1.1834
 8273TIP3   OH249013   2.542   6.295  10.571 -0.3093 -0.0034  0.4005
 8273TIP3    H149014   2.567   6.306  10.662 -1.1185  0.5897  0.5703
 8273TIP3    H249015   2.540   6.384  10.536  0.7878 -0.2891 -0.4229
 8274TIP3   OH249016   6.940   3.150  11.099  0.0372 -0.1051  0.1336
 8274TIP3    H149017   6.908   3.221  11.043  0.8229 -0.0208 -0.2138
 8274TIP3    H249018   7.029   3.176  11.123  0.0014 -0.5336  0.7585
 8275TIP3   OH249019   6.414   1.641  10.282 -0.1053  0.0527  0.0473
 8275TIP3    H149020   6.382   1.731  10.283  0.6125  0.3412 -1.3423
 8275TIP3    H249021   6.413   1.615  10.190  0.6405 -1.0227  0.3193
 8276TIP3   OH249022   3.372   5.667  12.222  0.1526 -0.1879  0.1024
 8276TIP3    H149023   3.443   5.606  12.201 -0.3636 -0.7972  0.0879
 8276TIP3    H249024   3.373   5.672  12.318 -0.0687 -0.5588  0.1291
 8277TIP3   OH249025   0.415   0.530  11.735  0.7467 -0.0714 -0.5043
 8277TIP3    H149026   0.361   0.598  11.775  1.3321  0.0761  0.0395
 8277TIP3    H249027   0.481   0.578  11.685  0.7782 -0.2480 -0.6330
 8278TIP3   OH249028   4.095   2.601  10.820  0.1600  0.0067 -0.0240
 8278TIP3    H149029   4.082   2.572  10.910 -0.0379  1.9636  0.6313
 8278TIP3    H249030   4.166   2.547  10.787  0.6884 -0.2895  1.5402
 8279TIP3   OH249031   5.576   5.527  11.453  0.4373 -0.3991 -0.1888
 8279TIP3    H149032   5.534   5.543  11.537 -0.5983 -2.2523 -0.3049
 8279TIP3    H249033   5.654   5.582  11.454  0.4810 -0.4322  2.0124
 8280TIP3   OH249034   2.645   1.396  11.961  0.4296  0.6158 -1.2520
 8280TIP3    H149035   2.587   1.467  11.987 -0.4619 -0.3906 -0.3912
 8280TIP3    H249036   2.591   1.318  11.965  1.3391 -0.1004 -2.3733
 8281TIP3   OH249037   0.766   4.991  11.500 -0.5368  0.6045 -0.5027
 8281TIP3    H149038   0.681   5.032  11.487 -2.0396 -1.4863  1.8327
 8281TIP3    H249039   0.750   4.898  11.486  1.2046  0.0915  0.6525
 8282TIP3   OH249040   2.277   6.197  11.461 -0.0984 -0.1837 -0.3170
 8282TIP3    H149041   2.355   6.149  11.487 -1.3775 -1.1925  1.9047
 8282TIP3    H249042   2.294   6.287  11.488  0.6029 -0.2324 -0.5874
 8283TIP3   OH249043   3.156   0.256  11.769 -0.1637  0.5872 -0.2967
 8283TIP3    H149044   3.152   0.323  11.837  0.5927 -0.6586  1.0401
 8283TIP3    H249045   3.130   0.175  11.814  0.6607 -0.3296 -1.4116
 8284TIP3   OH249046   2.164   5.747  11.559  0.0932 -0.1505 -0.6526
 8284TIP3    H149047   2.252   5.758  11.524 -0.1863  1.4389 -0.9299
 8284TIP3    H249048   2.129   5.836  11.566 -1.0751 -0.6608  0.5488
 8285TIP3   OH249049   2.176   5.755  12.255  0.0468  0.2492 -0.2668
 8285TIP3    H149050   2.254   5.715  12.293 -0.7172  1.6573  3.0825
 8285TIP3    H249051   2.109   5.688  12.262  0.1583  0.1576 -0.0720
 8286TIP3   OH249052   5.950   1.908  11.120 -0.4112  0.0775 -0.2857
 8286TIP3    H149053   6.006   1.970  11.168 -0.4014 -0.6384  0.6663
 8286TIP3    H249054   5.862   1.927  11.150 -0.7292  1.2210 -1.8071
 8287TIP3   OH249055   5.410   3.749  10.102 -0.2698 -0.0276  0.4515
 8287TIP3    H149056   5.429   3.790  10.017 -0.2879  0.6015  0.7432
 8287TIP3    H249057   5.384   3.660  10.080  0.8231 -0.2304 -0.1284
 8288TIP3   OH249058   3.041   6.431  10.468  0.0056 -0.2158 -0.1321
 8288TIP3    H149059   3.095   6.368  10.420  1.5159  0.0683  1.0878
 8288TIP3    H249060   3.009   6.381  10.544  1.6033  0.5483  1.0977
 8289TIP3   OH249061   1.800   1.767  11.146 -0.2778  0.1037 -0.4315
 8289TIP3    H149062   1.829   1.788  11.235 -0.0597 -1.1837 -0.1807
 8289TIP3    H249063   1.750   1.686  11.156 -0.0292 -0.1935 -1.5265
 8290TIP3   OH249064   1.593   1.220   9.853 -0.8986  0.5420 -0.1374
 8290TIP3    H149065   1.677   1.184   9.883 -1.4546 -0.0888  0.6815
 8290TIP3    H249066   1.609   1.241   9.761 -0.2769 -0.9868 -0.4183
 8291TIP3   OH249067   6.357   4.884  12.899 -0.2078  0.0230 -0.0422
 8291TIP3    H149068   6.333   4.828  12.973  0.9792  1.7712  1.7722
 8291TIP3    H249069   6.295   4.956  12.903  0.1990  0.3975 -0.4006
 8292TIP3   OH249070   1.014   1.368  12.964  0.2927 -0.5034  0.3120
 8292TIP3    H149071   1.041   1.460  12.974  0.4595 -0.6995  2.1305
 8292TIP3    H249072   1.074   1.320  13.021 -0.7305 -1.5613  0.5318
 8293TIP3   OH249073   5.179   5.302  11.672  0.3788  0.0656  0.3287
 8293TIP3    H149074   5.111   5.346  11.724 -0.4973 -0.7899 -0.0767
 8293TIP3    H249075   5.261   5.331  11.713 -0.2666 -0.5276  2.1688
 8294TIP3   OH249076   2.753   1.041  13.109  0.2294 -0.2812  0.5617
 8294TIP3    H149077   2.798   1.041  13.025  0.4060 -0.6679  0.6512
 8294TIP3    H249078   2.816   1.082  13.169  0.1918 -0.2049  0.5487
 8295TIP3   OH249079   6.761   0.451  11.432  0.2701 -0.1709  0.1336
 8295TIP3    H149080   6.768   0.455  11.336  0.8009 -0.3373  0.1617
 8295TIP3    H249081   6.743   0.359  11.451 -0.4612 -0.0313  0.1649
 8296TIP3   OH249082   6.003   3.019  10.296  0.2345 -0.0395  0.3923
 8296TIP3    H149083   6.029   2.927  10.292  0.6687  0.0891 -3.0200
 8296TIP3    H249084   5.907   3.017  10.294  0.2467 -0.4144  0.1242
 8297TIP3   OH249085   2.989   4.618  11.938  0.0943 -0.0424 -0.1706
 8297TIP3    H149086   2.978   4.686  12.004  4.3717  0.3774  0.4153
 8297TIP3    H249087   2.982   4.536  11.986 -1.0371  0.0827 -0.0925
 8298TIP3   OH249088   0.596   5.703  11.018 -0.1347 -0.1853 -0.1265
 8298TIP3    H149089   0.676   5.726  11.066 -0.1624  1.0839 -0.6719
 8298TIP3    H249090   0.539   5.778  11.029 -0.3120 -0.0465 -1.7863
 8299TIP3   OH249091   4.655   7.471  10.166 -0.1575 -0.0115 -0.1149
 8299TIP3    H149092   4.680   7.556  10.129  0.8654 -0.1114  0.3178
 8299TIP3    H249093   4.735   7.439  10.208 -0.2408 -1.6399 -1.1035
 8300TIP3   OH249094   2.224   1.477  10.485 -0.2956 -0.4345  0.3688
 8300TIP3    H149095   2.283   1.449  10.555 -1.4502 -0.9639  1.1789
 8300TIP3    H249096   2.213   1.399  10.430 -0.1335 -0.3005  0.1469
 8301TIP3   OH249097   4.586   3.868  12.028  0.1439 -0.2002  0.1699
 8301TIP3    H149098   4.551   3.915  11.952 -1.1866 -0.7093  0.4356
 8301TIP3    H249099   4.565   3.924  12.103 -0.2468 -0.5760  0.3476
 8302TIP3   OH249100   3.996   7.320   9.862 -0.1400 -0.0544  0.1609
 8302TIP3    H149101   3.932   7.388   9.840  1.0753  0.7197 -1.1737
 8302TIP3    H249102   4.051   7.359   9.930 -1.2006 -0.8176  1.5007
 8303TIP3   OH249103   5.528   4.426  10.006  0.0560  0.3710  0.4924
 8303TIP3    H149104   5.435   4.447  10.016  0.3491  1.7636  0.4688
 8303TIP3    H249105   5.564   4.434  10.094  0.3746  0.9694  0.3090
 8304TIP3   OH249106   0.437   1.235  11.172  0.3495 -0.0537 -0.0267
 8304TIP3    H149107   0.494   1.231  11.095 -0.1219 -1.8352 -0.3109
 8304TIP3    H249108   0.373   1.165  11.159 -0.2977  0.2051  1.5540
 8305TIP3   OH249109   6.579   0.976  11.781  0.3757 -0.0480 -0.1885
 8305TIP3    H149110   6.543   0.982  11.870 -0.9847  1.1217 -0.7847
 8305TIP3    H249111   6.507   0.945  11.728  1.2217 -0.8552 -0.8866
 8306TIP3   OH249112   3.091   6.038  12.537 -0.0831  0.4794  0.2805
 8306TIP3    H149113   3.062   6.126  12.560 -2.5143 -0.0148 -0.5410
 8306TIP3    H249114   3.016   6.000  12.491  0.8854 -2.0248  0.6202
 8307TIP3   OH249115   2.595   5.754  10.792  0.4826  0.1538 -0.2558
 8307TIP3    H149116   2.580   5.839  10.834 -1.2538 -1.1127  1.8782
 8307TIP3    H249117   2.634   5.700  10.859  1.8788 -0.7002 -1.6911
 8308TIP3   OH249118   4.811   0.838  12.074  0.3418 -0.2425  0.1471
 8308TIP3    H149119   4.718   0.820  12.087  0.0579  0.7969 -0.2958
 8308TIP3    H249120   4.833   0.797  11.991  0.4646 -1.0852  0.5845
 8309TIP3   OH249121   5.199   4.244  10.686  0.3436  0.0902 -0.3984
 8309TIP3    H149122   5.218   4.338  10.690 -0.8927  0.3283  0.7725
 8309TIP3    H249123   5.160   4.232  10.599 -1.0164  1.0174  0.0356
 8310TIP3   OH249124   7.287   2.440  11.227  0.0275 -0.4917  0.0486
 8310TIP3    H149125   7.210   2.461  11.280  1.3506  2.0177  1.1860
 8310TIP3    H249126   7.267   2.475  11.140  0.1296  0.9091  0.5545
 8311TIP3   OH249127   5.616   0.176  11.641 -0.4406 -0.1518 -0.0073
 8311TIP3    H149128   5.692   0.234  11.648  0.6001 -1.5821  1.1379
 8311TIP3    H249129   5.575   0.181  11.727 -1.9069  0.8765 -0.7225
 8312TIP3   OH249130   1.625   1.145  10.445 -0.2187 -0.3997  0.3150
 8312TIP3    H149131   1.582   1.122  10.362 -3.4502  1.5561  1.2671
 8312TIP3    H249132   1.668   1.228  10.428 -0.1359 -0.4295  0.3787
 8313TIP3   OH249133   2.754   5.538  11.798  0.1070 -0.6155 -0.5287
 8313TIP3    H149134   2.757   5.500  11.711  1.7495  0.7471 -1.1019
 8313TIP3    H249135   2.819   5.608  11.797 -0.2473 -0.1776  1.6094
 8314TIP3   OH249136   1.357   6.104  11.994  0.4497  0.0465  0.0732
 8314TIP3    H149137   1.451   6.110  12.015  0.3978 -1.5100  0.9643
 8314TIP3    H249138   1.355   6.071  11.904  0.7225  1.2361 -0.3925
 8315TIP3   OH249139   7.380   0.004  10.085 -0.5101 -0.6239  0.1820
 8315TIP3    H149140   7.368  -0.040  10.169  3.0175 -0.5609  0.8864
 8315TIP3    H249141   7.379   0.097  10.106 -0.9563 -0.5661 -0.0873
 8316TIP3   OH249142   6.187   5.938   9.963  0.5707 -0.0244  0.4836
 8316TIP3    H149143   6.111   5.894  10.001  0.9272  0.8850  2.3735
 8316TIP3    H249144   6.150   6.014   9.918  0.0831 -1.4459 -1.6452
 8317TIP3   OH249145   3.572   5.435  10.829 -0.3435 -0.0442  0.0064
 8317TIP3    H149146   3.656   5.474  10.853 -1.6754  1.5038  2.6697
 8317TIP3    H249147   3.560   5.458  10.737  1.4268  1.1037  0.0129
 8318TIP3   OH249148   7.250   3.675  11.228 -0.0234 -0.2272  0.4030
 8318TIP3    H149149   7.291   3.713  11.151 -0.4718  0.4806  0.5049
 8318TIP3    H249150   7.292   3.718  11.302  1.9709 -2.4452  0.6808
 8319TIP3   OH249151   5.294   4.462  11.862 -0.0139  0.2594 -0.5965
 8319TIP3    H149152   5.275   4.393  11.927  2.0583 -0.0329 -0.2329
 8319TIP3    H249153   5.324   4.536  11.914 -1.4202  1.2058 -1.0542
 8320TIP3   OH249154   7.275   6.637  10.782  0.2851  0.1570  0.1897
 8320TIP3    H149155   7.300   6.670  10.869  1.1889  0.3647 -0.1409
 8320TIP3    H249156   7.358   6.625  10.736 -0.1972  0.2889 -0.7367
 8321TIP3   OH249157   7.139   6.762  11.028 -0.5852 -0.3695 -0.2423
 8321TIP3    H149158   7.052   6.748  10.991 -1.6904  0.7297  1.7445
 8321TIP3    H249159   7.135   6.721  11.115 -0.5644  2.9604  1.5176
 8322TIP3   OH249160   3.162   2.568  11.068 -0.0591 -1.1677  0.0451
 8322TIP3    H149161   3.180   2.511  10.993 -0.8402  1.1730 -2.0403
 8322TIP3    H249162   3.075   2.603  11.051  0.3698  0.6126  1.2642
 8323TIP3   OH249163   1.771   2.215  11.339 -0.2638 -0.6565  0.1015
 8323TIP3    H149164   1.737   2.165  11.413 -3.4149 -0.7164 -1.2558
 8323TIP3    H249165   1.770   2.154  11.265 -0.8657  0.4377 -0.8219
 8324TIP3   OH249166   0.534   2.535  11.685 -0.1881  0.0240 -0.3052
 8324TIP3    H149167   0.564   2.452  11.647 -1.6031  0.1195 -1.7484
 8324TIP3    H249168   0.461   2.510  11.742 -0.0221  0.1939 -0.0152
 8325TIP3   OH249169   1.611   1.083  12.001 -0.2042 -0.4011 -0.0216
 8325TIP3    H149170   1.565   1.037  12.071 -1.8946  2.4780  0.9049
 8325TIP3    H249171   1.665   1.147  12.046 -1.0281  1.2483 -1.2722
 8326TIP3   OH249172   6.229   1.722  11.682  0.2916 -0.5154  0.8759
 8326TIP3    H149173   6.141   1.683  11.688  0.0692  0.0754  1.6496
 8326TIP3    H249174   6.216   1.800  11.627  0.9327 -2.0252 -1.5348
 8327TIP3   OH249175   1.282   5.289  10.548 -0.2609 -0.5003  0.5466
 8327TIP3    H149176   1.234   5.207  10.558  0.4287 -1.0115 -0.1417
 8327TIP3    H249177   1.333   5.277  10.468  0.1172  0.4695  0.6274
 8328TIP3   OH249178   5.826   5.257  12.641  0.0985  0.4647  0.1971
 8328TIP3    H149179   5.896   5.321  12.628  0.6687 -0.3294 -0.7884
 8328TIP3    H249180   5.814   5.254  12.736  0.0445  2.0229  0.2644
 8329TIP3   OH249181   7.132   2.772  12.812 -0.7627 -0.3585 -0.0297
 8329TIP3    H149182   7.093   2.827  12.879 -0.9039  2.0147 -1.9169
 8329TIP3    H249183   7.074   2.781  12.736  1.1910 -0.0757 -1.5819
 8330TIP3   OH249184   6.381   4.256  12.498 -0.0192 -0.0962  0.0853
 8330TIP3    H149185   6.419   4.196  12.562 -1.9915  0.4888  1.9370
 8330TIP3    H249186   6.421   4.341  12.519 -0.4872  0.0487  0.4136
 8331TIP3   OH249187   7.441   3.424  12.775 -0.4941 -0.0581 -0.5304
 8331TIP3    H149188   7.527   3.388  12.795 -0.5713 -0.2295 -0.5079
 8331TIP3    H249189   7.423   3.397  12.685 -0.2127  0.5860 -0.7895
 8332TIP3   OH249190   1.646   0.948  11.761  0.8469 -0.0443 -0.3895
 8332TIP3    H149191   1.637   1.013  11.830  0.0263 -1.0132  0.4495
 8332TIP3    H249192   1.605   0.869  11.796  1.2816 -0.8514 -1.6066
 8333TIP3   OH249193   1.022   6.760  10.283 -0.2689 -0.3979  0.3334
 8333TIP3    H149194   0.989   6.824  10.346 -0.3285  0.9316 -0.9782
 8333TIP3    H249195   1.100   6.802  10.246 -1.7679  0.1729 -2.4479
 8334TIP3   OH249196   2.881   3.598  11.530  0.2450  0.1140  0.0444
 8334TIP3    H149197   2.836   3.594  11.615 -0.5547  2.5562 -0.1718
 8334TIP3    H249198   2.931   3.680  11.534 -0.0596  0.4329 -1.9415
 8335TIP3   OH249199   5.611   0.708  11.188  0.2955  1.0190 -0.2838
 8335TIP3    H149200   5.602   0.644  11.118 -0.6676  2.2223 -1.2915
 8335TIP3    H249201   5.663   0.662  11.255 -1.8573 -1.4783 -0.1334
 8336TIP3   OH249202   6.026   7.566  18.591  0.0026 -0.2255  0.4055
 8336TIP3    H149203   6.082   7.488  18.597 -0.6451 -0.5891  2.2802
 8336TIP3    H249204   6.031   7.607  18.678 -0.5935  1.1885 -0.1860
 8337TIP3   OH249205   1.079   0.392  10.838  0.7975 -0.0236  0.2441
 8337TIP3    H149206   1.038   0.471  10.873 -0.6753  0.4790 -2.3889
 8337TIP3    H249207   1.168   0.420  10.816  0.4766  0.7411 -0.1099
 8338TIP3   OH249208   0.851   4.432  10.301 -0.0115  0.2471 -0.6797
 8338TIP3    H149209   0.880   4.428  10.210 -0.7749 -2.4640 -0.8794
 8338TIP3    H249210   0.921   4.387  10.350  0.2351  1.3885  0.0462
 8339TIP3   OH249211   2.213   0.591  10.558 -0.3986  0.2244 -0.2825
 8339TIP3    H149212   2.128   0.547  10.563  0.8110 -2.0941  2.4534
 8339TIP3    H249213   2.264   0.539  10.497 -0.1088 -0.0518  0.1868
 8340TIP3   OH249214   2.011   0.646  11.213 -0.5788 -0.0623 -0.0372
 8340TIP3    H149215   1.994   0.736  11.240  1.8338  0.4487 -0.0173
 8340TIP3    H249216   2.069   0.611  11.281 -0.4681 -1.2126 -0.6977
 8341TIP3   OH249217   4.209   5.225  10.953 -0.3558  0.5485 -0.3166
 8341TIP3    H149218   4.243   5.151  11.004 -0.1448  0.1604 -1.0083
 8341TIP3    H249219   4.119   5.201  10.932 -0.2810  0.4781 -0.5592
 8342TIP3   OH249220   4.489   1.007  10.027  0.2795 -0.3204  0.3789
 8342TIP3    H149221   4.578   0.975  10.045  0.5596 -0.0695 -0.4937
 8342TIP3    H249222   4.479   1.084  10.083  0.9390  0.1407 -0.1107
 8343TIP3   OH249223   1.864   5.570  10.659 -0.3126 -0.1772  0.1293
 8343TIP3    H149224   1.828   5.657  10.680 -0.1948 -0.2225  0.5344
 8343TIP3    H249225   1.799   5.509  10.694  2.0417 -0.4033  4.9144
 8344TIP3   OH249226   3.193   6.430  11.942  0.2265  0.1218 -0.4134
 8344TIP3    H149227   3.238   6.346  11.949  2.4203  1.2813  0.4125
 8344TIP3    H249228   3.224   6.467  11.859  0.0490  0.5138 -0.3099
 8345TIP3   OH249229   0.492   7.515  11.518  0.7404 -0.1680  0.0533
 8345TIP3    H149230   0.547   7.564  11.579  2.1517  0.4396 -1.6371
 8345TIP3    H249231   0.484   7.428  11.559 -0.2466  0.8615  2.1667
 8346TIP3   OH249232   7.211   4.619  10.068 -0.3875  0.3509  0.1529
 8346TIP3    H149233   7.305   4.605  10.065 -0.4392  0.0852 -0.4168
 8346TIP3    H249234   7.174   4.533  10.091 -0.4867  0.4816  0.4933
 8347TIP3   OH249235   0.234   0.722  10.920 -0.1927 -0.0080 -0.0815
 8347TIP3    H149236   0.314   0.743  10.870  1.3536 -1.4297  1.6378
 8347TIP3    H249237   0.174   0.685  10.854  1.1964 -0.4405 -1.1739
 8348TIP3   OH249238   2.599   5.831  18.734 -0.2785  0.1228  0.3613
 8348TIP3    H149239   2.668   5.782  18.690 -1.6377 -1.6991  0.1481
 8348TIP3    H249240   2.589   5.788  18.819 -3.3322 -1.9079 -0.8529
 8349TIP3   OH249241   2.033   1.505  11.221  0.1663  0.3839 -0.0311
 8349TIP3    H149242   2.096   1.570  11.253 -1.2627  1.8688 -0.1473
 8349TIP3    H249243   1.965   1.502  11.288 -1.8111  1.9931 -1.8496
 8350TIP3   OH249244   5.726   0.403  10.234 -0.2893 -0.0013 -0.1501
 8350TIP3    H149245   5.804   0.448  10.266  0.6406  0.0624 -2.3820
 8350TIP3    H249246   5.677   0.381  10.314  1.9644 -0.0271  1.3032
 8351TIP3   OH249247   4.531   5.194  11.042 -0.4349  0.4718 -0.0624
 8351TIP3    H149248   4.579   5.148  10.973  1.7138  1.1795  0.8412
 8351TIP3    H249249   4.598   5.215  11.107 -1.7578  2.6523  0.7245
 8352TIP3   OH249250   5.207   6.828  11.365 -0.6243 -0.0381  0.1523
 8352TIP3    H149251   5.113   6.829  11.379 -0.7695 -1.4778 -0.5224
 8352TIP3    H249252   5.218   6.791  11.278  0.4806  2.7290 -1.0089
 8353TIP3   OH249253   7.428   3.624  10.259  0.0993  0.5761 -0.0567
 8353TIP3    H149254   7.366   3.552  10.267  2.3545 -1.4252  0.6595
 8353TIP3    H249255   7.451   3.646  10.349  2.2249 -0.4517 -0.2935
 8354TIP3   OH249256   4.032   5.329  10.076  0.0489  0.3175  0.2007
 8354TIP3    H149257   4.051   5.260  10.139  1.3456 -0.1619 -0.6760
 8354TIP3    H249258   4.077   5.302   9.996 -3.7134 -0.4850 -1.8759
 8355TIP3   OH249259   3.532   6.899  11.049  0.3282  0.2673  0.1023
 8355TIP3    H149260   3.545   6.931  10.960  1.7566  0.6859  0.4315
 8355TIP3    H249261   3.477   6.966  11.091 -1.0956 -0.3752 -0.6928
 8356TIP3   OH249262   0.391   2.774  11.793  0.5324 -0.1562  0.0866
 8356TIP3    H149263   0.377   2.683  11.821  0.3316  0.2164  1.2585
 8356TIP3    H249264   0.473   2.771  11.744  0.7659 -0.8900  0.5009
 8357TIP3   OH249265   2.655   6.780  11.129  0.2138  0.0454  0.0220
 8357TIP3    H149266   2.607   6.793  11.047  0.7457  2.9195  0.0894
 8357TIP3    H249267   2.726   6.720  11.106  0.1066  0.4614 -1.4986
 8358TIP3   OH249268   3.011   5.035  11.353 -0.3945 -0.0969 -0.2834
 8358TIP3    H149269   2.930   4.993  11.384  0.0238  0.4223  1.6305
 8358TIP3    H249270   2.981   5.114  11.308 -1.0057 -0.6135 -0.8073
 8359TIP3   OH249271   0.346   2.930   9.959 -0.4844  0.2479  0.2550
 8359TIP3    H149272   0.397   3.011   9.954 -0.2143  0.0413 -0.5736
 8359TIP3    H249273   0.267   2.955  10.007  0.4774  0.5209  1.7532
 8360TIP3   OH249274   3.292   2.633  11.322  0.1700  0.2992  0.1518
 8360TIP3    H149275   3.246   2.635  11.238  1.5817  1.2137 -0.6395
 8360TIP3    H249276   3.338   2.550  11.322 -0.6661 -0.1798  0.5171
 8361TIP3   OH249277   7.322   5.122  10.635  0.5402 -0.8862 -0.0596
 8361TIP3    H149278   7.265   5.092  10.564  0.1901 -0.1608 -0.0934
 8361TIP3    H249279   7.313   5.217  10.634 -0.2363 -0.9091  1.5813
 8362TIP3   OH249280   7.074   5.988  11.747 -0.5690 -0.0738  0.0490
 8362TIP3    H149281   7.127   5.987  11.667  0.3385  1.8976  0.5829
 8362TIP3    H249282   7.070   5.896  11.773  1.4275 -0.4652 -0.7934
 8363TIP3   OH249283   1.162   1.540  10.609  0.0441 -0.2710 -0.0173
 8363TIP3    H149284   1.202   1.454  10.623 -0.3089 -0.2402  1.2534
 8363TIP3    H249285   1.237   1.599  10.598  0.2948 -0.6576 -0.4342
 8364TIP3   OH249286   4.797   6.250  11.260  0.3785 -0.0410 -0.3428
 8364TIP3    H149287   4.769   6.330  11.305  2.1481 -0.3992  1.5436
 8364TIP3    H249288   4.762   6.179  11.314  0.4488 -0.5361 -0.9340
 8365TIP3   OH249289   0.223   4.930  12.058 -0.2883  0.3551  0.7172
 8365TIP3    H149290   0.218   4.972  11.972 -2.2679 -1.0082  0.0790
 8365TIP3    H249291   0.306   4.960  12.095  1.3751 -0.1404 -2.2726
 8366TIP3   OH249292   6.486   3.402  11.944  0.0696  0.0595 -0.3432
 8366TIP3    H149293   6.473   3.313  11.974  1.1151  0.7541  2.4714
 8366TIP3    H249294   6.503   3.394  11.850 -1.5229 -2.4802 -0.4915
 8367TIP3   OH249295   3.294   5.651  12.739 -0.0885 -0.0589 -0.2888
 8367TIP3    H149296   3.240   5.725  12.768 -0.9292 -0.4489 -0.7979
 8367TIP3    H249297   3.258   5.628  12.653  0.4729 -0.7498 -0.3459
 8368TIP3   OH249298   4.376   2.671  10.665  0.3660  0.1161 -0.3040
 8368TIP3    H149299   4.405   2.734  10.599  0.4457 -0.2445 -0.6189
 8368TIP3    H249300   4.443   2.676  10.734  0.0050  0.8680 -0.0042
 8369TIP3   OH249301   6.362   3.115  10.735  0.0128  0.3930 -0.2509
 8369TIP3    H149302   6.340   3.128  10.827 -1.5069 -2.1045 -0.1836
 8369TIP3    H249303   6.280   3.131  10.688  1.0828  3.0842 -1.4371
 8370TIP3   OH249304   0.449   5.279  11.904  0.4170  0.2394  0.1196
 8370TIP3    H149305   0.450   5.216  11.832 -1.9157  2.0481 -1.6183
 8370TIP3    H249306   0.365   5.324  11.896  1.0484  2.0857  2.6401
 8371TIP3   OH249307   7.424   0.163  12.418  0.1007 -0.1696 -0.1825
 8371TIP3    H149308   7.489   0.159  12.488  0.3500  0.0101 -0.3984
 8371TIP3    H249309   7.362   0.230  12.447 -0.8053 -1.3402  0.6967
 8372TIP3   OH249310   1.292   3.310  10.278  0.2092  0.0844  0.6789
 8372TIP3    H149311   1.344   3.340  10.352  0.5277 -1.5367  1.1407
 8372TIP3    H249312   1.226   3.252  10.316 -1.5555  1.5533  0.0277
 8373TIP3   OH249313   0.806   7.457  10.509  0.2089  0.0586 -0.0773
 8373TIP3    H149314   0.794   7.545  10.544 -0.1554 -0.3435  0.8450
 8373TIP3    H249315   0.771   7.461  10.420  1.0255  1.0684 -0.3757
 8374TIP3   OH249316   3.574   5.538  10.572 -1.0301 -0.1574 -0.1359
 8374TIP3    H149317   3.638   5.489  10.520 -1.8812  0.0244 -1.3897
 8374TIP3    H249318   3.490   5.523  10.528 -1.7842  0.0571  1.1585
 8375TIP3   OH249319   7.048   0.502  11.827  0.1879  0.4691 -0.8236
 8375TIP3    H149320   7.109   0.430  11.840  0.6165  0.2595 -3.4678
 8375TIP3    H249321   7.102   0.581  11.830  0.0410  0.5506  0.0139
 8376TIP3   OH249322   5.160   3.271  11.274 -0.0944 -0.0503 -0.9369
 8376TIP3    H149323   5.115   3.314  11.201  0.5038 -1.4535 -2.1820
 8376TIP3    H249324   5.243   3.242  11.238  1.0967  0.9344  0.8673
 8377TIP3   OH249325   5.109   4.962  10.855  0.3460 -0.0916 -0.8991
 8377TIP3    H149326   5.164   5.006  10.790 -2.1566  4.9358 -0.0574
 8377TIP3    H249327   5.160   4.966  10.936  0.8855 -0.5017 -1.2111
 8378TIP3   OH249328   5.775   2.294  11.235 -0.4187  0.2334 -0.1857
 8378TIP3    H149329   5.809   2.364  11.292 -0.4168 -0.6766  0.9764
 8378TIP3    H249330   5.851   2.259  11.191 -0.3032  0.4124 -0.1307
 8379TIP3   OH249331   6.089   5.136  11.568 -0.5278  0.0893 -0.4721
 8379TIP3    H149332   6.079   5.114  11.661  1.4765  0.0163 -0.2091
 8379TIP3    H249333   6.016   5.093  11.525 -1.4352  0.0216  1.0575
 8380TIP3   OH249334   0.828   6.206  11.617 -0.1203 -0.1911 -0.1827
 8380TIP3    H149335   0.805   6.136  11.555 -1.3537 -1.4218  1.5937
 8380TIP3    H249336   0.917   6.231  11.591  0.0526 -1.8557 -1.3886
 8381TIP3   OH249337   0.690   0.681  10.234 -0.7714 -0.2028  0.3878
 8381TIP3    H149338   0.653   0.756  10.281  0.4262  1.4148 -1.1381
 8381TIP3    H249339   0.685   0.706  10.142  1.6275 -1.0605 -0.0288
 8382TIP3   OH249340   7.431   1.126  10.633  0.0611 -0.0495  0.7343
 8382TIP3    H149341   7.373   1.062  10.591 -0.0925 -0.4148  1.4726
 8382TIP3    H249342   7.415   1.114  10.727  0.4963  0.6438  0.9043
 8383TIP3   OH249343   2.330   5.733  11.933 -0.5980 -0.0470  0.1480
 8383TIP3    H149344   2.239   5.747  11.905 -0.6073  1.2977  0.7461
 8383TIP3    H249345   2.323   5.690  12.018 -0.6699 -0.3334 -0.0038
 8384TIP3   OH249346   6.285   3.684  12.600 -0.2347  0.0936  0.0070
 8384TIP3    H149347   6.229   3.750  12.560 -0.3124  0.2670  0.3964
 8384TIP3    H249348   6.366   3.731  12.621 -0.0953 -0.0590 -0.1894
 8385TIP3   OH249349   4.621   5.798  12.594  0.2113 -0.3464  0.1289
 8385TIP3    H149350   4.530   5.812  12.570  0.3662 -0.3451 -0.4691
 8385TIP3    H249351   4.631   5.703  12.595 -0.0563 -0.3717  1.1994
 8386TIP3   OH249352   3.732   2.940  12.357 -0.2599 -0.0373 -0.0006
 8386TIP3    H149353   3.648   2.899  12.377 -0.7361  0.3633 -1.0699
 8386TIP3    H249354   3.753   2.911  12.268 -0.8827  2.3630 -1.0317
 8387TIP3   OH249355   3.370   1.328  10.360 -0.0313  0.0355  0.0193
 8387TIP3    H149356   3.443   1.382  10.329 -0.0123  0.2936  0.5209
 8387TIP3    H249357   3.331   1.293  10.279  1.1839 -0.8222 -0.2282
 8388TIP3   OH249358   0.660   2.606  10.364 -0.1645  0.1832  0.7633
 8388TIP3    H149359   0.604   2.680  10.341 -1.7258 -0.9936  0.6092
 8388TIP3    H249360   0.646   2.543  10.294  3.0212  0.6430 -0.4153
 8389TIP3   OH249361   1.677   4.965  11.623 -0.0377  0.2705 -0.0676
 8389TIP3    H149362   1.680   4.897  11.556  0.8178  0.7639 -0.5574
 8389TIP3    H249363   1.605   5.023  11.596 -1.1671 -0.7398  0.6792
 8390TIP3   OH249364   4.379   3.580  10.958  0.2542 -0.3949 -0.1799
 8390TIP3    H149365   4.418   3.597  11.043  3.5536  2.1604 -1.9828
 8390TIP3    H249366   4.415   3.496  10.931  0.8653 -0.2195  0.0789
 8391TIP3   OH249367   5.532   0.834  12.550 -0.1145 -0.2430  0.1092
 8391TIP3    H149368   5.542   0.880  12.633 -0.2835 -0.2386  0.1270
 8391TIP3    H249369   5.544   0.742  12.572  2.3667 -0.0809 -0.2492
 8392TIP3   OH249370   2.226   0.275  11.032  0.2224 -0.9160 -0.9373
 8392TIP3    H149371   2.160   0.343  11.018 -0.1130 -1.3882 -1.7038
 8392TIP3    H249372   2.176   0.196  11.051  0.5289 -1.3887 -1.9917
 8393TIP3   OH249373   4.376   4.887  11.377 -0.6914  0.8673 -0.5020
 8393TIP3    H149374   4.345   4.861  11.463 -0.1615  0.4291 -0.4400
 8393TIP3    H249375   4.457   4.935  11.394 -0.7976  1.1304 -0.7300
 8394TIP3   OH249376   4.733   6.794  11.538  0.0063  0.0043  0.1475
 8394TIP3    H149377   4.813   6.790  11.486 -0.3018  0.1358 -0.3448
 8394TIP3    H249378   4.670   6.840  11.483 -0.4054 -0.0793  0.5359
 8395TIP3   OH249379   4.389   7.435  10.099 -0.5872  0.1926  0.4768
 8395TIP3    H149380   4.405   7.369  10.032 -0.4581 -0.0848  0.7836
 8395TIP3    H249381   4.474   7.475  10.114 -1.0043  1.9517 -1.2808
 8396TIP3   OH249382   5.507   0.056  11.911 -0.2534 -0.5867  0.5373
 8396TIP3    H149383   5.502   0.091  12.000 -3.4959 -1.0322  0.6360
 8396TIP3    H249384   5.590   0.009  11.908  0.7588  0.9124  2.7216
 8397TIP3   OH249385   2.575   1.625  10.494  0.0967  0.3852  0.2527
 8397TIP3    H149386   2.611   1.672  10.418  1.6484  0.4285  0.9622
 8397TIP3    H249387   2.483   1.648  10.496  0.1096  0.6594 -1.4160
 8398TIP3   OH249388   7.303   4.174  11.281  0.0780  0.3708  0.0392
 8398TIP3    H149389   7.277   4.206  11.367  0.4401  0.5475  0.0853
 8398TIP3    H249390   7.220   4.150  11.238  0.0684 -2.7288  1.5624
 8399TIP3   OH249391   3.297   6.751  11.276  0.0313 -0.1188  0.1415
 8399TIP3    H149392   3.254   6.836  11.264  2.6051  1.3963  0.7198
 8399TIP3    H249393   3.327   6.727  11.188 -0.7353 -0.4543 -0.0296
 8400TIP3   OH249394   6.209   5.598  12.737 -0.4931  0.2779 -0.0711
 8400TIP3    H149395   6.303   5.611  12.722 -0.1465  0.6809  2.1487
 8400TIP3    H249396   6.169   5.612  12.651  1.6722 -2.4764 -1.7050
 8401TIP3   OH249397   3.763   2.487  10.176  0.1167  0.2749  0.4347
 8401TIP3    H149398   3.703   2.492  10.102  0.5117  1.9814  0.1816
 8401TIP3    H249399   3.719   2.431  10.239  0.2611 -2.1535 -1.5005
 8402TIP3   OH249400   3.309   4.169  10.002 -0.1986 -0.2498  0.5410
 8402TIP3    H149401   3.358   4.250  10.012 -0.9119  0.0558  1.7447
 8402TIP3    H249402   3.369   4.101  10.034  0.4293 -0.2262 -0.5429
 8403TIP3   OH249403   1.452   1.786  12.375  0.0707 -0.0744 -0.3169
 8403TIP3    H149404   1.456   1.738  12.457  0.7817  1.6705  0.7279
 8403TIP3    H249405   1.409   1.727  12.314  0.6795 -1.9034  0.9570
 8404TIP3   OH249406   3.190   5.981  11.925 -0.3723  0.1476  0.0909
 8404TIP3    H149407   3.167   5.992  12.017 -2.5335  1.4869 -0.5076
 8404TIP3    H249408   3.255   6.050  11.908  0.1323 -0.1895  0.6359
 8405TIP3   OH249409   5.919   5.963  10.090  0.1387 -0.1611  0.1831
 8405TIP3    H149410   5.825   5.966  10.073 -0.1499  0.2243  1.7192
 8405TIP3    H249411   5.927   5.983  10.183  1.8451  1.1413 -0.1935
 8406TIP3   OH249412   0.779   5.422  10.898 -0.1099 -0.3067 -0.0968
 8406TIP3    H149413   0.839   5.371  10.844  1.2031 -0.1560  1.1508
 8406TIP3    H249414   0.700   5.368  10.904  1.1413 -2.1161  0.9913
 8407TIP3   OH249415   5.387   0.221  12.521 -0.2106 -0.4994  0.1271
 8407TIP3    H149416   5.470   0.264  12.540  0.0717 -0.3964 -1.2071
 8407TIP3    H249417   5.405   0.128  12.534  0.3449 -0.5463 -0.8418
 8408TIP3   OH249418   2.427   6.398   9.964  0.0916  0.0265  0.1283
 8408TIP3    H149419   2.498   6.460   9.946  0.8965 -0.8215  0.3291
 8408TIP3    H249420   2.450   6.319   9.916 -0.6921 -0.2794  0.2382
 8409TIP3   OH249421   4.562   6.127  10.444 -0.3531  1.0012 -0.0682
 8409TIP3    H149422   4.523   6.147  10.359 -0.0583 -1.2034 -0.8099
 8409TIP3    H249423   4.543   6.034  10.456  0.3226  1.0884  1.9133
 8410TIP3   OH249424   4.961   4.449  10.635 -0.1512 -0.5871 -0.4231
 8410TIP3    H149425   4.957   4.353  10.634 -0.5604 -0.5894  0.4764
 8410TIP3    H249426   4.893   4.475  10.697 -1.8661  0.3867 -2.5579
 8411TIP3   OH249427   1.080   2.568  10.991 -0.3933  0.2590  0.2139
 8411TIP3    H149428   1.123   2.493  10.949  1.7636  0.7144  1.4425
 8411TIP3    H249429   1.144   2.639  10.984 -1.1304  1.1194  1.7305
 8412TIP3   OH249430   3.309   0.958  10.955 -0.1901 -0.1625  0.1922
 8412TIP3    H149431   3.274   0.900  11.023  0.6404  1.0013  1.6852
 8412TIP3    H249432   3.399   0.929  10.943 -0.3625 -0.4313 -0.5244
 8413TIP3   OH249433   4.763   4.162  12.050  0.2701 -0.0476 -0.1856
 8413TIP3    H149434   4.741   4.071  12.030 -0.0179 -0.6281  2.3447
 8413TIP3    H249435   4.859   4.166  12.044  0.2741 -0.5004 -0.4235
 8414TIP3   OH249436   3.825   1.696  10.321  0.0538 -0.3344 -0.0896
 8414TIP3    H149437   3.829   1.601  10.320  2.1190 -0.3207  0.4805
 8414TIP3    H249438   3.917   1.723  10.322 -0.4756  1.6371  1.3804
 8415TIP3   OH249439   4.108   0.049  11.515  0.3739  0.2962 -0.3463
 8415TIP3    H149440   4.165   0.113  11.473  2.3059  0.5011  2.3375
 8415TIP3    H249441   4.161   0.011  11.585 -1.9323 -1.5366  0.5748
 8416TIP3   OH249442   3.191   0.581   9.947 -0.2285  0.3166  0.4670
 8416TIP3    H149443   3.259   0.548  10.006  0.5583  0.4363 -0.3490
 8416TIP3    H249444   3.197   0.525   9.870  0.4040  1.6645 -0.4949
 8417TIP3   OH249445   0.609   0.226  10.396  0.4932  0.4077 -0.2046
 8417TIP3    H149446   0.568   0.292  10.340 -0.7371  0.2750  0.5067
 8417TIP3    H249447   0.659   0.276  10.460  1.0323  0.5851 -0.7514
 8418TIP3   OH249448   6.620   4.209  11.790 -0.5700 -0.6389  0.0982
 8418TIP3    H149449   6.592   4.244  11.875  1.3273  0.8642  0.1499
 8418TIP3    H249450   6.545   4.225  11.732 -2.3765 -2.7358  1.6504
 8419TIP3   OH249451   4.822   7.130  11.959 -0.3333  0.3065 -0.0714
 8419TIP3    H149452   4.802   7.206  12.013 -1.1534  0.9182 -1.1811
 8419TIP3    H249453   4.903   7.153  11.913 -1.5065  1.3075 -1.7462
 8420TIP3   OH249454   4.973   4.472  10.958  0.1106 -0.6194  0.5574
 8420TIP3    H149455   4.950   4.555  11.001 -1.5042  0.0864 -1.5114
 8420TIP3    H249456   4.896   4.416  10.969  0.2947 -0.9978 -0.0164
 8421TIP3   OH249457   2.272   2.307  10.219  0.2587 -0.4417 -0.0767
 8421TIP3    H149458   2.362   2.332  10.199 -0.7077  1.3655 -2.8164
 8421TIP3    H249459   2.236   2.276  10.136 -2.1452  0.6208  0.4678
 8422TIP3   OH249460   0.203   5.750  10.758 -0.2351  0.3110 -0.1732
 8422TIP3    H149461   0.229   5.842  10.749  0.0558  0.2248 -0.2194
 8422TIP3    H249462   0.112   5.754  10.790  0.7151  0.6138  2.7756
 8423TIP3   OH249463   4.706   2.093  10.340 -0.0821 -0.4950 -0.4776
 8423TIP3    H149464   4.720   2.186  10.322  2.7382 -0.6126  0.5260
 8423TIP3    H249465   4.675   2.056  10.258 -0.1157  1.1338 -1.2298
 8424TIP3   OH249466   5.036   1.477  10.703  0.0024 -0.3173  0.6312
 8424TIP3    H149467   5.069   1.480  10.613 -1.2518  1.3090  0.1596
 8424TIP3    H249468   4.944   1.503  10.695 -0.5227 -1.5507  2.2420
 8425TIP3   OH249469   0.164   4.984  10.202 -0.0553 -0.2661  0.3239
 8425TIP3    H149470   0.174   4.894  10.171 -0.9796  0.1393 -1.2431
 8425TIP3    H249471   0.104   5.025  10.140  1.2537  1.7818  0.3076
 8426TIP3   OH249472   2.834   4.697  10.340 -0.6943 -0.0670 -0.2276
 8426TIP3    H149473   2.775   4.655  10.403  0.3517 -0.0061  0.8250
 8426TIP3    H249474   2.792   4.683  10.255 -0.4258 -3.2109  0.0450
 8427TIP3   OH249475   6.680   6.824  11.920 -0.0960  0.1652 -0.0671
 8427TIP3    H149476   6.698   6.794  12.009  0.9516  0.3885 -0.1951
 8427TIP3    H249477   6.715   6.912  11.916  0.7850 -0.2084 -0.9995
 8428TIP3   OH249478   2.448   4.778  10.122  0.0039 -0.1625 -0.3204
 8428TIP3    H149479   2.538   4.788  10.091  0.3124  0.1432  0.6113
 8428TIP3    H249480   2.458   4.763  10.217 -0.9204 -0.2052 -0.2243
 8429TIP3   OH249481   5.947   1.364  11.614 -0.1329  0.2563  0.2790
 8429TIP3    H149482   5.921   1.456  11.609 -1.1921 -0.0963 -2.1801
 8429TIP3    H249483   5.919   1.336  11.701  1.4198  2.5555  1.6073
 8430TIP3   OH249484   5.164   5.764  11.145 -0.0121  0.3955  0.8605
 8430TIP3    H149485   5.132   5.835  11.089 -1.1043 -0.7374 -0.0331
 8430TIP3    H249486   5.159   5.686  11.089  0.0366 -0.5782  2.1651
 8431TIP3   OH249487   5.535   1.144  12.367  0.2921 -0.0733  0.2266
 8431TIP3    H149488   5.454   1.194  12.353  0.4523 -0.1066 -0.9024
 8431TIP3    H249489   5.601   1.191  12.316  0.8767 -0.3519  0.7171
 8432TIP3   OH249490   1.550   0.548  10.020  0.7077  0.0635 -0.7917
 8432TIP3    H149491   1.576   0.546  10.112  1.0128  1.4985 -0.8298
 8432TIP3    H249492   1.625   0.510   9.974  0.4626 -0.8691 -0.4553
 8433TIP3   OH249493   1.431   1.100  10.639  0.3242 -0.5795  0.3340
 8433TIP3    H149494   1.355   1.157  10.649 -1.6317 -2.4311 -2.6986
 8433TIP3    H249495   1.488   1.146  10.578 -0.5246 -1.1367 -0.9039
 8434TIP3   OH249496   4.438   1.138  12.673 -0.1349  0.0964 -0.3047
 8434TIP3    H149497   4.474   1.050  12.662  0.7485  0.2796  0.8679
 8434TIP3    H249498   4.404   1.139  12.762 -0.6511  0.7710 -0.5058
 8435TIP3   OH249499   2.189   2.974  11.498  0.4410 -0.3931  0.0618
 8435TIP3    H149500   2.173   2.888  11.536  0.9042 -0.4437  0.1466
 8435TIP3    H249501   2.182   2.961  11.404  1.8619 -0.8219 -0.0049
 8436TIP3   OH249502   2.124   1.439  10.034 -0.6320  0.7030 -0.2853
 8436TIP3    H149503   2.156   1.479   9.952  0.6296  1.1618  0.4000
 8436TIP3    H249504   2.204   1.416  10.082 -1.3362  1.1440  1.1561
 8437TIP3   OH249505   2.552   5.762  10.246 -0.7949 -0.4743 -0.2667
 8437TIP3    H149506   2.606   5.684  10.235 -0.2166  0.0029 -0.8714
 8437TIP3    H249507   2.511   5.776  10.161 -1.0712 -0.2492 -0.0988
 8438TIP3   OH249508   5.969   0.741  10.860 -0.2795  0.1995 -0.3764
 8438TIP3    H149509   5.945   0.685  10.933  1.2302 -0.5285 -0.3904
 8438TIP3    H249510   5.934   0.827  10.882 -2.9606 -0.7730 -0.5135
 8439TIP3   OH249511   7.326   6.050  12.460 -0.2032 -0.1066 -0.3813
 8439TIP3    H149512   7.323   6.139  12.496  0.5798 -0.0979 -0.3254
 8439TIP3    H249513   7.238   6.016  12.473 -0.5775  0.7391 -0.5916
 8440TIP3   OH249514   5.562   6.099  10.836  0.4562 -0.0174  0.0106
 8440TIP3    H149515   5.470   6.121  10.824  0.6618  0.6736 -0.3708
 8440TIP3    H249516   5.609   6.162  10.782  1.2580  0.8952  1.6846
 8441TIP3   OH249517   3.176   0.736  12.178  0.4489  0.2084  0.4784
 8441TIP3    H149518   3.248   0.797  12.163  0.4241  0.4141  1.1729
 8441TIP3    H249519   3.100   0.779  12.139  0.3316  0.8617  1.3927
 8442TIP3   OH249520   0.652   0.153  11.714 -0.0466 -0.1663  0.0725
 8442TIP3    H149521   0.649   0.191  11.802  1.1726  0.6212 -0.2088
 8442TIP3    H249522   0.725   0.091  11.717 -1.0996 -1.4476  0.0987
 8443TIP3   OH249523   6.623   7.109  11.498  0.1757 -0.6020  0.1407
 8443TIP3    H149524   6.572   7.028  11.489  0.9602 -1.1986  0.8961
 8443TIP3    H249525   6.635   7.140  11.408 -1.0691 -0.7197 -0.0847
 8444TIP3   OH249526   7.523   7.456  11.525 -0.2343 -0.2572 -0.3923
 8444TIP3    H149527   7.508   7.546  11.495 -0.6301 -0.1048  0.2564
 8444TIP3    H249528   7.601   7.462  11.581 -0.0182 -0.3916 -0.6762
 8445TIP3   OH249529   6.319   6.761  11.904  0.5411 -0.0890  0.4360
 8445TIP3    H149530   6.279   6.674  11.911 -1.3394  0.4982 -1.7475
 8445TIP3    H249531   6.393   6.758  11.964  0.0384 -2.8972  1.0717
 8446TIP3   OH249532   0.287   7.363  10.631  0.0501  0.0061  0.4591
 8446TIP3    H149533   0.349   7.293  10.612 -0.3672 -1.4475  3.8119
 8446TIP3    H249534   0.340   7.434  10.667  0.0511 -0.4429  1.3868
 8447TIP3   OH249535   4.314   2.395  10.787 -0.5158  0.8696  0.0053
 8447TIP3    H149536   4.245   2.329  10.794  0.6643 -0.3330  0.8881
 8447TIP3    H249537   4.368   2.381  10.865  1.3077  1.0867 -1.1655
 8448TIP3   OH249538   7.551   2.757  10.458  0.0539 -0.1317 -0.1016
 8448TIP3    H149539   7.604   2.835  10.470  0.6665 -0.4911 -0.4229
 8448TIP3    H249540   7.464   2.790  10.435  0.2131  0.4536  0.1195
 8449TIP3   OH249541   4.982   2.423  10.889  0.0031  0.3010  0.0124
 8449TIP3    H149542   5.073   2.418  10.860 -0.2261  1.5007 -1.0054
 8449TIP3    H249543   4.942   2.491  10.833 -1.2278  0.5916  1.1782
 8450TIP3   OH249544   0.782   1.192  12.411 -0.0170 -0.2849  0.5726
 8450TIP3    H149545   0.728   1.163  12.484 -0.8628  0.3905  0.2287
 8450TIP3    H249546   0.795   1.114  12.358 -0.2956 -0.5452  0.8852
 8451TIP3   OH249547   1.628   2.804  10.232  0.0722 -0.5906 -0.3689
 8451TIP3    H149548   1.602   2.730  10.177  0.3366 -1.7280  0.9691
 8451TIP3    H249549   1.598   2.780  10.320 -0.9796  1.4939 -0.1067
 8452TIP3   OH249550   0.697   1.240  10.243  0.3628 -0.3532  0.5723
 8452TIP3    H149551   0.683   1.333  10.225  1.4379 -0.3619 -0.4402
 8452TIP3    H249552   0.689   1.198  10.157 -0.9236 -1.3259  1.1404
 8453TIP3   OH249553   0.235   4.642  10.290  0.5104 -0.2786 -0.4356
 8453TIP3    H149554   0.317   4.670  10.329 -0.2409  0.3561  0.7379
 8453TIP3    H249555   0.249   4.549  10.269  1.4202 -0.2450 -0.0137
 8454TIP3   OH249556   1.409   3.130  12.612  0.4065  0.3433  0.4847
 8454TIP3    H149557   1.418   3.058  12.674 -2.4330  0.8888  1.6509
 8454TIP3    H249558   1.468   3.198  12.645  0.0084  0.0889  1.7502
 8455TIP3   OH249559   0.133   0.552  11.168  0.7587  0.3636  0.6367
 8455TIP3    H149560   0.207   0.544  11.229  2.4663 -0.5403 -1.4454
 8455TIP3    H249561   0.173   0.576  11.085 -1.6674  3.3867  0.1644
 8456TIP3   OH249562   1.701   3.379  11.476 -0.2019  0.4114  0.2496
 8456TIP3    H149563   1.664   3.449  11.423 -0.2985 -0.6387 -1.1153
 8456TIP3    H249564   1.669   3.397  11.565  0.4687  2.5467  0.1053
 8457TIP3   OH249565   1.915   4.582  10.018  0.3795 -0.1445 -0.3991
 8457TIP3    H149566   1.943   4.584  10.110 -1.1209  2.9894  0.1242
 8457TIP3    H249567   1.930   4.492   9.991  1.4509 -1.0512  2.7265
 8458TIP3   OH249568   1.959   2.806  12.535  0.3658 -0.1609  0.4265
 8458TIP3    H149569   1.993   2.895  12.532 -0.4462  0.1402 -0.3720
 8458TIP3    H249570   2.020   2.759  12.591  0.9685  0.8244  0.6274
 8459TIP3   OH249571   5.170   6.570  10.884  0.4966 -0.4625  0.6008
 8459TIP3    H149572   5.107   6.640  10.901  0.0277 -0.5336 -0.6845
 8459TIP3    H249573   5.168   6.516  10.963 -0.3990  0.0389  0.9391
 8460TIP3   OH249574   4.125   6.607  10.629 -0.6055 -0.0768  0.6907
 8460TIP3    H149575   4.049   6.562  10.593  0.3265 -0.2619 -1.1399
 8460TIP3    H249576   4.172   6.539  10.678 -0.2832 -0.6278 -0.3494
 8461TIP3   OH249577   3.126   5.242  10.253  0.5043 -0.3370 -0.0279
 8461TIP3    H149578   3.182   5.237  10.175  1.3004  0.8318  0.4470
 8461TIP3    H249579   3.143   5.160  10.299 -1.0478 -1.7091 -1.7607
 8462TIP3   OH249580   6.634   6.475  10.561 -0.6302  0.2450  0.2129
 8462TIP3    H149581   6.708   6.532  10.580 -0.1824 -0.3108  0.1714
 8462TIP3    H249582   6.603   6.503  10.475  0.0784 -0.0782 -0.1566
 8463TIP3   OH249583   6.641   6.573  11.298  0.8558 -0.1124 -0.0720
 8463TIP3    H149584   6.556   6.616  11.299  1.7732  1.8933 -1.9295
 8463TIP3    H249585   6.625   6.488  11.340 -2.2495 -0.2113 -1.2205
 8464TIP3   OH249586   0.942   3.359  10.205  0.2348  0.3854 -0.0166
 8464TIP3    H149587   1.018   3.322  10.159 -0.7512 -0.7070 -0.8262
 8464TIP3    H249588   0.954   3.454  10.198  1.5012  0.2413 -0.1571
 8465TIP3   OH249589   5.738   3.749  10.555 -0.3669 -0.4756 -0.6194
 8465TIP3    H149590   5.762   3.765  10.464 -0.9253 -0.3247 -0.7475
 8465TIP3    H249591   5.752   3.655  10.567 -0.7230 -0.5814 -1.0005
 8466TIP3   OH249592   3.523   0.702  11.841 -0.1303  0.1506 -0.2699
 8466TIP3    H149593   3.493   0.765  11.776 -0.8542  0.4915  0.3838
 8466TIP3    H249594   3.593   0.654  11.797  0.9146  1.8518 -0.5780
 8467TIP3   OH249595   2.910   6.909  10.496 -0.5128  0.0925  0.0769
 8467TIP3    H149596   3.006   6.911  10.490 -0.5246  1.0355  0.0283
 8467TIP3    H249597   2.886   6.997  10.526 -1.4590  0.4304 -1.5385
 8468TIP3   OH249598   2.785   0.501  10.565  0.0308 -0.4343  0.0118
 8468TIP3    H149599   2.850   0.543  10.508 -0.6152 -0.2549 -0.5990
 8468TIP3    H249600   2.837   0.465  10.637  0.8127 -0.3251 -0.4846
 8469TIP3   OH249601   6.554   1.434  11.383 -0.6210  0.1380 -0.0293
 8469TIP3    H149602   6.528   1.386  11.304 -0.7410  0.1522  0.0013
 8469TIP3    H249603   6.496   1.511  11.384  0.5984  1.1010 -0.9127
 8470TIP3   OH249604   5.746   4.758  10.203 -0.1440  0.1977  1.0370
 8470TIP3    H149605   5.678   4.774  10.137  0.1409 -0.9707  0.4324
 8470TIP3    H249606   5.797   4.839  10.205 -2.3877  1.6635  2.5597
 8471TIP3   OH249607   4.372   4.657  11.204  0.1153  0.2483 -0.0647
 8471TIP3    H149608   4.352   4.726  11.267 -1.4344 -0.8144  0.6674
 8471TIP3    H249609   4.462   4.631  11.225  0.2701  1.1476  0.4732
 8472TIP3   OH249610   0.531   0.455  10.256  0.2262 -0.1658 -0.1374
 8472TIP3    H149611   0.478   0.486  10.329 -0.6021 -0.0891 -0.7647
 8472TIP3    H249612   0.594   0.525  10.240  0.5496 -0.2694  0.6205
 8473TIP3   OH249613   5.046   3.086  12.089  0.0391  0.1371 -0.1409
 8473TIP3    H149614   5.109   3.015  12.104  0.3198  0.5857  0.8795
 8473TIP3    H249615   5.098   3.166  12.093 -0.5131  0.4845  0.1583
 8474TIP3   OH249616   0.429   4.330  11.552 -0.1904  0.1598  0.7007
 8474TIP3    H149617   0.519   4.346  11.522  0.0108 -0.0966  1.1520
 8474TIP3    H249618   0.430   4.239  11.581 -0.8305 -0.1220 -0.1200
 8475TIP3   OH249619   1.776   4.011  11.003 -0.0251 -0.3778  0.1987
 8475TIP3    H149620   1.765   4.065  11.081  0.4441  1.2142 -0.8056
 8475TIP3    H249621   1.734   4.060  10.933  1.6761 -0.5956 -1.0318
 8476TIP3   OH249622   2.801   0.808   9.892  0.7394  0.0358 -0.4235
 8476TIP3    H149623   2.751   0.834   9.969  0.8852  0.2673 -0.4070
 8476TIP3    H249624   2.760   0.726   9.863  1.1994 -0.4985  0.3884
 8477TIP3   OH249625   5.296   6.032  10.525  0.1726 -0.1994 -0.5486
 8477TIP3    H149626   5.389   6.054  10.519  0.1410  0.2475  0.4233
 8477TIP3    H249627   5.285   5.959  10.464  1.1944 -0.3671 -0.5534
 8478TIP3   OH249628   3.574   4.672  11.812 -1.0221 -0.3872 -0.1674
 8478TIP3    H149629   3.661   4.655  11.846 -1.0115 -1.7345 -0.8099
 8478TIP3    H249630   3.514   4.631  11.874 -1.3252  1.6505  0.9883
 8479TIP3   OH249631   4.460   5.524  12.576 -0.5107 -0.4806 -0.1439
 8479TIP3    H149632   4.432   5.442  12.616 -2.5249  0.8632  1.4330
 8479TIP3    H249633   4.378   5.572  12.562  0.6291  1.4048 -0.6752
 8480TIP3   OH249634   3.443   0.770  11.155 -0.1670  0.1416  0.1450
 8480TIP3    H149635   3.385   0.719  11.098  0.6030  0.5450 -1.0222
 8480TIP3    H249636   3.390   0.786  11.234 -1.1140 -0.7549 -0.2847
 8481TIP3   OH249637   2.636   5.476  11.561 -0.0676 -0.0085 -0.1262
 8481TIP3    H149638   2.637   5.556  11.509 -0.2600 -0.6389 -1.1169
 8481TIP3    H249639   2.544   5.460  11.579 -0.1048 -0.5481 -0.7820
 8482TIP3   OH249640   1.525   3.101  11.452  0.0391 -0.6182  0.8656
 8482TIP3    H149641   1.549   3.190  11.480  2.5638 -0.6514 -0.8795
 8482TIP3    H249642   1.468   3.114  11.377 -1.4822 -0.5449  1.9771
 8483TIP3   OH249643   7.508   2.451  10.475  0.4748 -0.4336 -0.1084
 8483TIP3    H149644   7.554   2.402  10.544 -0.8263 -0.8689  0.4867
 8483TIP3    H249645   7.501   2.540  10.510  0.7280 -0.4016 -0.1358
 8484TIP3   OH249646   3.662   6.563  11.191 -0.5039  0.4177  0.1443
 8484TIP3    H149647   3.692   6.512  11.266  0.2248  1.0946  0.3164
 8484TIP3    H249648   3.726   6.633  11.182 -1.4383  1.2553 -0.1467
 8485TIP3   OH249649   1.644   1.406  11.543 -0.0699  0.3791  0.2880
 8485TIP3    H149650   1.577   1.337  11.539 -0.1738  0.2347  2.8906
 8485TIP3    H249651   1.596   1.484  11.573  0.5848  0.7960  0.2722
 8486TIP3   OH249652   1.534   5.939  10.672 -0.2845  0.4304 -0.1037
 8486TIP3    H149653   1.580   5.900  10.597 -0.7345 -2.2139  0.8538
 8486TIP3    H249654   1.442   5.917  10.658 -0.5464  1.0563  0.5843
 8487TIP3   OH249655   5.121   5.941  10.712 -0.3944 -0.0852 -0.2541
 8487TIP3    H149656   5.182   5.997  10.664  1.6136  0.0213  2.2377
 8487TIP3    H249657   5.149   5.852  10.692  0.7366 -0.0350  0.9879
 8488TIP3   OH249658   2.260   5.125  12.584  0.2865 -0.2920  0.2629
 8488TIP3    H149659   2.240   5.032  12.590  0.1054 -0.1640  2.0353
 8488TIP3    H249660   2.182   5.169  12.617  0.2598  0.5190 -0.8181
 8489TIP3   OH249661   1.339   0.130  10.793  0.1531  0.2441  0.4287
 8489TIP3    H149662   1.367   0.164  10.708  0.7447 -1.0667  0.0862
 8489TIP3    H249663   1.246   0.111  10.781  0.0528  0.7806  0.3208
 8490TIP3   OH249664   1.965   4.522  11.511 -0.5434 -0.8553 -0.3758
 8490TIP3    H149665   2.039   4.563  11.555 -0.8303 -0.2307 -0.4638
 8490TIP3    H249666   2.004   4.473  11.439 -0.2589  0.0746 -0.8796
 8491TIP3   OH249667   0.686   6.889  10.583  0.8101  0.3287  0.4068
 8491TIP3    H149668   0.610   6.929  10.625 -1.4176 -1.1719 -1.8812
 8491TIP3    H249669   0.689   6.800  10.617  0.4745 -0.1310 -0.6992
 8492TIP3   OH249670   3.838   1.385  10.300 -0.5197 -0.0962  0.2489
 8492TIP3    H149671   3.857   1.335  10.380  0.4242  0.8384  0.6318
 8492TIP3    H249672   3.816   1.318  10.235 -1.4093 -0.8655  1.3040
 8493TIP3   OH249673   1.863   0.907  13.198  0.7263 -0.0541  0.3058
 8493TIP3    H149674   1.926   0.860  13.142  0.8087  0.0064  0.3481
 8493TIP3    H249675   1.788   0.923  13.141  1.2365  0.9495 -0.1011
 8494TIP3   OH249676   5.355   0.600  11.052 -0.3283  0.0708  0.0851
 8494TIP3    H149677   5.342   0.684  11.096 -1.4177  0.1268 -0.3069
 8494TIP3    H249678   5.267   0.562  11.047  0.1058 -0.9338 -0.0549
 8495TIP3   OH249679   2.825   3.194  11.079 -0.3429  0.3755 -0.2340
 8495TIP3    H149680   2.811   3.289  11.078  0.9528  0.6224  1.1591
 8495TIP3    H249681   2.852   3.173  10.990 -1.5222  1.1386 -0.8123
 8496TIP3   OH249682   1.662   1.358  10.875  0.1401 -0.4243 -0.0633
 8496TIP3    H149683   1.747   1.402  10.866 -0.6435  0.7921 -2.3611
 8496TIP3    H249684   1.598   1.426  10.852 -1.3662 -1.7474  0.0799
 8497TIP3   OH249685   6.930   5.744  11.575 -0.2171 -0.2255 -0.0744
 8497TIP3    H149686   6.876   5.821  11.558  0.3607  0.1760 -0.1133
 8497TIP3    H249687   6.883   5.672  11.533 -0.6415  0.1432 -0.2387
 8498TIP3   OH249688   5.512   3.567  11.853 -0.0994  0.5411  0.4522
 8498TIP3    H149689   5.523   3.650  11.900  0.8034 -0.1551  1.5248
 8498TIP3    H249690   5.468   3.510  11.915 -1.5844  0.4670 -0.6152
 8499TIP3   OH249691   2.705   2.798  12.318 -0.1267 -0.1512  0.0216
 8499TIP3    H149692   2.718   2.748  12.398  0.9561 -0.5992 -0.4054
 8499TIP3    H249693   2.654   2.875  12.345 -0.6342 -0.7982  0.9348
 8500TIP3   OH249694   6.032   6.293  10.684 -0.0930 -0.2625  0.2019
 8500TIP3    H149695   6.043   6.388  10.693 -0.5818 -0.1167 -0.6532
 8500TIP3    H249696   6.065   6.274  10.596 -2.5740 -0.4512 -0.7682
 8501TIP3   OH249697   6.786   6.422   9.913 -0.3100  0.0538 -0.0297
 8501TIP3    H149698   6.770   6.510   9.878  0.4580  0.7014  1.1712
 8501TIP3    H249699   6.717   6.368   9.874 -2.0779  1.5978  0.7633
 8502TIP3   OH249700   0.397   0.785  10.217 -0.2617 -0.1442 -0.2437
 8502TIP3    H149701   0.313   0.792  10.263  0.6838  0.5231  1.4754
 8502TIP3    H249702   0.463   0.807  10.283  1.4689 -2.8311 -0.8968
 8503TIP3   OH249703   1.798   1.245  11.087 -0.7078  0.3024  0.6543
 8503TIP3    H149704   1.764   1.210  11.004  0.8604 -1.3208  0.6438
 8503TIP3    H249705   1.813   1.168  11.141  1.3584  1.0561  1.2489
 8504TIP3   OH249706   3.052   1.656  11.057 -0.0953  0.0496  0.1403
 8504TIP3    H149707   3.083   1.704  10.980 -0.9048 -0.0289 -0.2449
 8504TIP3    H249708   2.957   1.661  11.052 -0.1597  0.9453  1.7255
 8505TIP3   OH249709   4.901   2.901   9.892  0.3778 -0.7682  0.1974
 8505TIP3    H149710   4.867   2.973   9.840  0.5704 -0.2880  0.7282
 8505TIP3    H249711   4.827   2.843   9.904 -0.1956  0.1372  1.1285
 8506TIP3   OH249712   3.536   0.418  12.196  0.0655 -0.2814 -0.1452
 8506TIP3    H149713   3.548   0.377  12.110  1.9605 -0.4383  0.1432
 8506TIP3    H249714   3.588   0.498  12.191 -1.9265  1.0815  0.0031
 8507TIP3   OH249715   6.436   1.497  11.679 -0.3001 -0.4674 -0.9941
 8507TIP3    H149716   6.372   1.436  11.717 -0.1329 -1.1353 -1.7491
 8507TIP3    H249717   6.398   1.583  11.691  0.4088 -0.4665  2.0670
 8508TIP3   OH249718   2.592   0.662  11.979 -0.2111 -0.1655 -0.9910
 8508TIP3    H149719   2.647   0.586  11.995  0.2987  0.3477 -0.2320
 8508TIP3    H249720   2.609   0.685  11.888  1.7827  0.6935 -0.4636
 8509TIP3   OH249721   7.015   7.667  10.325  0.0969 -0.3476  0.2385
 8509TIP3    H149722   7.038   7.684  10.234 -0.1627  0.9493  0.3848
 8509TIP3    H249723   6.927   7.630  10.321 -0.3669  0.7290 -0.0116
 8510TIP3   OH249724   2.519   4.104  11.784 -0.2935  0.4440 -0.5171
 8510TIP3    H149725   2.461   4.175  11.757 -1.9107 -0.4085  0.5522
 8510TIP3    H249726   2.530   4.117  11.878 -2.8734 -2.1466  0.3139
 8511TIP3   OH249727   5.991   5.713  10.766  0.2096  0.0681  0.4233
 8511TIP3    H149728   6.081   5.742  10.778 -0.1286  1.4754 -0.2900
 8511TIP3    H249729   5.949   5.783  10.717 -0.3619 -2.0484 -2.4118
 8512TIP3   OH249730   6.821   0.600  11.937 -0.2345 -0.6304  0.0958
 8512TIP3    H149731   6.775   0.537  11.881  2.0643 -1.8720 -0.5336
 8512TIP3    H249732   6.912   0.595  11.908  0.5093  0.9065  1.9839
 8513TIP3   OH249733   5.681   2.814  11.595 -0.1251  0.1512 -0.1111
 8513TIP3    H149734   5.618   2.875  11.634  0.0749  0.4724 -0.2792
 8513TIP3    H249735   5.757   2.818  11.653 -0.2687 -0.2554  0.1049
 8514TIP3   OH249736   2.518   7.191  10.679  0.2542  0.3497  0.0853
 8514TIP3    H149737   2.594   7.214  10.733  0.8145  1.5960 -1.1932
 8514TIP3    H249738   2.460   7.145  10.740  2.2612 -1.2094  0.9626
 8515TIP3   OH249739   7.082   3.752  10.426 -0.1236  0.1442  0.1122
 8515TIP3    H149740   7.006   3.745  10.484 -0.0286 -0.8841  0.1244
 8515TIP3    H249741   7.104   3.661  10.404  1.3432  0.4004  0.4372
 8516TIP3   OH249742   7.137   4.524  12.406  0.2457 -0.3079 -0.5912
 8516TIP3    H149743   7.232   4.524  12.419  0.2382 -0.0774 -0.5331
 8516TIP3    H249744   7.115   4.615  12.387 -0.2371  0.0335  1.3860
 8517TIP3   OH249745   2.737   3.146  11.952 -0.0477 -0.1418  0.0390
 8517TIP3    H149746   2.772   3.228  11.987  0.3461 -0.6822  0.9494
 8517TIP3    H249747   2.814   3.101  11.917 -0.1809 -0.3521  0.0177
 8518TIP3   OH249748   2.983   0.285  12.487 -0.2214  0.1151  0.3435
 8518TIP3    H149749   2.916   0.315  12.426 -0.2704  1.2372  0.9233
 8518TIP3    H249750   3.023   0.211  12.443 -0.9898  0.2153 -0.5713
 8519TIP3   OH249751   5.444   6.499  11.947 -0.0935 -0.7170  0.1021
 8519TIP3    H149752   5.416   6.490  12.038 -0.0816 -1.8199  0.0106
 8519TIP3    H249753   5.537   6.478  11.949 -0.0485 -0.5317 -0.1288
 8520TIP3   OH249754   7.087   0.371  10.379  0.5205  0.2728 -0.0623
 8520TIP3    H149755   7.061   0.424  10.303  0.8756 -0.5659 -0.7920
 8520TIP3    H249756   7.113   0.435  10.445  0.6684  1.0258 -0.8257
 8521TIP3   OH249757   3.536   7.292  10.956  0.6880 -0.0774  0.3367
 8521TIP3    H149758   3.587   7.337  11.024 -0.4834  0.0850  1.1558
 8521TIP3    H249759   3.450   7.277  10.997  1.0617 -3.2940  0.1903
 8522TIP3   OH249760   5.140   2.962  10.048 -0.3063 -0.0709  0.0710
 8522TIP3    H149761   5.190   2.888  10.014 -0.0287  0.1226  0.0549
 8522TIP3    H249762   5.059   2.963   9.996 -1.0906 -1.4014  1.2013
 8523TIP3   OH249763   5.377   1.971  12.066  0.6457 -0.4202  0.2248
 8523TIP3    H149764   5.414   2.053  12.033  1.2290 -0.5426  0.5650
 8523TIP3    H249765   5.290   1.996  12.100  0.0978 -0.2614 -1.2122
 8524TIP3   OH249766   4.177   6.843  11.066 -0.0854 -0.4617  0.0709
 8524TIP3    H149767   4.229   6.779  11.017  0.5503  0.2916 -0.2603
 8524TIP3    H249768   4.093   6.845  11.020  0.1141 -0.5933 -0.3091
 8525TIP3   OH249769   2.405   0.064  11.571 -0.5684 -0.1828 -0.4426
 8525TIP3    H149770   2.339   0.048  11.504  0.5670  1.0924 -1.9320
 8525TIP3    H249771   2.402  -0.014  11.627 -3.2839 -0.1653 -0.4502
 8526TIP3   OH249772   6.939   2.060  10.134  0.0475 -0.3108  0.2669
 8526TIP3    H149773   6.969   2.129  10.075 -1.2819 -0.3961 -0.5633
 8526TIP3    H249774   6.957   1.979  10.087  0.6627 -0.4790  0.7882
 8527TIP3   OH249775   4.275   5.710  12.482 -0.0990 -0.3122  0.2698
 8527TIP3    H149776   4.309   5.796  12.459  2.3656 -1.1072  0.6399
 8527TIP3    H249777   4.180   5.716  12.467  0.0523  2.3342  0.0320
 8528TIP3   OH249778   2.918   6.402  11.769  0.8584  0.0818  0.0496
 8528TIP3    H149779   2.920   6.468  11.838  1.3383 -1.3011  1.4280
 8528TIP3    H249780   3.006   6.365  11.768  1.0021  0.3747 -1.6573
 8529TIP3   OH249781   4.748   0.609  11.385 -0.4252  0.4376 -0.2382
 8529TIP3    H149782   4.761   0.549  11.312 -2.3442  0.4272 -0.6109
 8529TIP3    H249783   4.772   0.695  11.350 -2.9609  0.7124 -1.4907
 8530TIP3   OH249784   5.472   6.845  10.951  0.5864 -0.4070 -0.8427
 8530TIP3    H149785   5.439   6.862  10.863 -0.8754 -0.9916 -0.4458
 8530TIP3    H249786   5.539   6.777  10.940  0.1658 -0.7256 -1.4759
 8531TIP3   OH249787   6.947   4.489  12.640  0.0347  0.4878  0.2763
 8531TIP3    H149788   7.004   4.547  12.691  1.4020 -0.0394 -0.5792
 8531TIP3    H249789   7.000   4.464  12.565 -0.7340 -1.3572  0.2945
 8532TIP3   OH249790   6.055   6.444  12.373  0.0005  0.7572 -0.6790
 8532TIP3    H149791   6.097   6.363  12.400  1.1738  0.5600 -2.8385
 8532TIP3    H249792   5.978   6.451  12.429 -1.2394 -2.8666 -1.6405
 8533TIP3   OH249793   0.071   7.457  10.887 -0.3263  0.1340 -0.1638
 8533TIP3    H149794   0.031   7.525  10.832 -0.1253 -0.4631 -1.0640
 8533TIP3    H249795   0.020   7.460  10.969 -0.7904  0.8633 -0.4621
 8534TIP3   OH249796   1.220   6.228  10.336 -0.8473  0.0218 -0.1244
 8534TIP3    H149797   1.218   6.164  10.264  1.0365  1.6076 -1.7166
 8534TIP3    H249798   1.187   6.309  10.296 -1.2179  0.5820  1.2629
 8535TIP3   OH249799   4.406   6.072   9.989  0.3717  0.3984  0.4849
 8535TIP3    H149800   4.315   6.049   9.971  0.1756 -0.0742  1.9092
 8535TIP3    H249801   4.412   6.165   9.967  0.2022 -0.0893 -1.8740
 8536TIP3   OH249802   4.427   2.694  11.673  0.4009  0.3158  0.1831
 8536TIP3    H149803   4.453   2.648  11.593  1.0090  2.4095 -0.9137
 8536TIP3    H249804   4.427   2.627  11.741 -1.4806 -1.8432 -1.7934
 8537TIP3   OH249805   1.407   6.458  10.293  0.4171 -0.6753 -0.6443
 8537TIP3    H149806   1.408   6.472  10.198  0.3108 -0.6024 -0.6348
 8537TIP3    H249807   1.383   6.366  10.303  1.3846 -0.9519 -0.7165
 8538TIP3   OH249808   3.764   1.235  10.091  0.4657  0.6372  0.1110
 8538TIP3    H149809   3.754   1.239   9.996 -2.9166 -0.4109  0.3104
 8538TIP3    H249810   3.780   1.142  10.109 -4.3730 -0.3478  0.7271
 8539TIP3   OH249811   0.893   5.394  10.274  0.3312 -0.1989  0.2859
 8539TIP3    H149812   0.965   5.415  10.334  0.5670 -1.0408  0.3126
 8539TIP3    H249813   0.892   5.467  10.212  0.3915  0.4475  1.0266
 8540TIP3   OH249814   4.734   6.514  10.731 -0.2254  0.1687 -0.2891
 8540TIP3    H149815   4.801   6.455  10.764 -1.9179 -1.7197 -0.0879
 8540TIP3    H249816   4.703   6.473  10.651 -0.2107  1.7424 -1.1534
 8541TIP3   OH249817   6.545   0.733  12.203  0.1373 -0.2005 -0.0986
 8541TIP3    H149818   6.621   0.770  12.158  1.0234 -1.2859  0.4562
 8541TIP3    H249819   6.483   0.714  12.132  0.6440  0.0795 -0.6317
 8542TIP3   OH249820   6.506   4.042  10.891 -0.5345 -0.1160 -0.0538
 8542TIP3    H149821   6.470   4.017  10.976  0.9604  0.0208  0.6477
 8542TIP3    H249822   6.471   4.129  10.875  1.4729  1.1805  1.8968
 8543TIP3   OH249823   2.140   1.676  11.612 -0.1914  0.3922  0.5479
 8543TIP3    H149824   2.130   1.587  11.578 -1.2870  0.8705 -0.4783
 8543TIP3    H249825   2.216   1.672  11.670  1.8481 -0.4900 -2.0026
 8544TIP3   OH249826   1.237   0.644  11.185  0.3337 -0.6156  0.3397
 8544TIP3    H149827   1.257   0.665  11.093  0.1894  1.0679  0.6616
 8544TIP3    H249828   1.220   0.550  11.185  1.7535 -0.9229 -1.1113
 8545TIP3   OH249829   5.109   0.891  10.552 -0.2600 -0.0234  0.3232
 8545TIP3    H149830   5.125   0.946  10.475 -0.8916  0.8074  0.7778
 8545TIP3    H249831   5.194   0.889  10.597 -0.1354  0.2693  0.1083
 8546TIP3   OH249832   3.754   0.937  11.459  0.5947 -0.2240  0.2178
 8546TIP3    H149833   3.803   0.968  11.535  1.3455  0.8433 -0.6685
 8546TIP3    H249834   3.821   0.908  11.397 -0.0007 -0.9857 -0.0926
 8547TIP3   OH249835   6.677   6.044  11.233 -0.2704 -0.5401  0.0180
 8547TIP3    H149836   6.588   6.071  11.212  0.1312  0.4432 -0.5378
 8547TIP3    H249837   6.721   6.039  11.149  0.6122  0.6079  0.3776
 8548TIP3   OH249838   1.900   3.697  12.274  0.4217 -0.5236  0.1420
 8548TIP3    H149839   1.821   3.751  12.266  0.2734 -0.9685 -1.8220
 8548TIP3    H249840   1.886   3.647  12.355 -2.5234 -2.4135 -1.3570
 8549TIP3   OH249841   7.017   2.510  10.593 -0.0350  0.0952 -0.7632
 8549TIP3    H149842   6.929   2.474  10.580 -0.4802  1.3161 -1.2439
 8549TIP3    H249843   7.076   2.443  10.558 -0.8315 -0.2479 -1.4883
 8550TIP3   OH249844   3.590   6.672  16.793 -0.2726 -0.3853 -0.0990
 8550TIP3    H149845   3.594   6.598  16.733 -0.9129 -1.1218  0.7539
 8550TIP3    H249846   3.501   6.707  16.782 -0.4170 -0.5669  0.4658
 8551TIP3   OH249847   3.381   1.441  10.925 -0.0391 -0.0377 -0.0834
 8551TIP3    H149848   3.434   1.497  10.869 -2.7297  2.6275 -0.2092
 8551TIP3    H249849   3.354   1.369  10.868  1.8419 -0.4725 -0.5038
 8552TIP3   OH249850   0.520   2.179  10.934  0.0600  0.6530  0.1053
 8552TIP3    H149851   0.436   2.135  10.945 -0.1694  0.7929 -0.9860
 8552TIP3    H249852   0.582   2.123  10.982 -0.1960 -1.0138 -1.3659
 8553TIP3   OH249853   2.361   3.973  10.268 -0.0212  0.4828  0.0186
 8553TIP3    H149854   2.311   4.050  10.295 -1.8919  0.0218 -1.8924
 8553TIP3    H249855   2.383   3.928  10.350 -0.0154  2.3312  1.0739
 8554TIP3   OH249856   3.131   2.266  11.167 -0.2486  0.4010 -0.5196
 8554TIP3    H149857   3.170   2.215  11.096 -2.4673  0.0745 -1.5928
 8554TIP3    H249858   3.205   2.309  11.210  1.2702 -0.3684 -2.2592
 8555TIP3   OH249859   0.402   5.049  10.679  1.2518  0.1293  0.2039
 8555TIP3    H149860   0.346   5.084  10.748  1.3354 -0.6533  0.6764
 8555TIP3    H249861   0.341   5.022  10.610  1.1076  0.1021  0.3425
 8556TIP3   OH249862   3.306   4.841  10.851  0.1003  0.1854 -0.3114
 8556TIP3    H149863   3.211   4.841  10.839 -0.0749  0.0587  0.9798
 8556TIP3    H249864   3.340   4.886  10.773 -1.0647  0.8795 -0.4420
 8557TIP3   OH249865   5.042   4.114  10.870 -0.1170  0.2532  0.0851
 8557TIP3    H149866   5.059   4.165  10.791  0.2725  1.1107  0.7073
 8557TIP3    H249867   4.987   4.042  10.841 -0.2989  0.7762 -0.9007
 8558TIP3   OH249868   1.271   0.911  10.757  0.3304 -0.8527 -0.3366
 8558TIP3    H149869   1.334   0.967  10.712 -0.3694  0.8456  0.6838
 8558TIP3    H249870   1.188   0.960  10.751 -0.2241 -1.5924  0.9330
 8559TIP3   OH249871   4.689   3.087  10.785  0.1078 -0.4390  0.4420
 8559TIP3    H149872   4.774   3.064  10.821 -0.0361 -1.3229  0.2353
 8559TIP3    H249873   4.705   3.100  10.692 -0.0474 -0.9497  0.3434
 8560TIP3   OH249874   4.115   6.262  11.419 -0.7690  0.5063 -0.2960
 8560TIP3    H149875   4.081   6.177  11.448 -1.6823  1.0811  0.3898
 8560TIP3    H249876   4.185   6.241  11.358 -0.9211 -0.7410 -0.0586
 8561TIP3   OH249877   3.913   1.828  11.451  0.2410  0.0923  0.0527
 8561TIP3    H149878   4.003   1.816  11.482 -0.0786 -1.9194  0.3473
 8561TIP3    H249879   3.914   1.799  11.360  0.5892  3.4409 -1.1211
 8562TIP3   OH249880   0.961   1.314  16.244  0.9996  0.2666  0.7285
 8562TIP3    H149881   0.958   1.371  16.167 -0.6489  2.3862  2.2422
 8562TIP3    H249882   1.051   1.322  16.275  1.7784 -0.8453 -1.0623
 8563TIP3   OH249883   2.955   6.909  11.479  0.4064 -0.1661 -0.1787
 8563TIP3    H149884   2.936   6.861  11.560 -1.1159  0.2664 -0.2506
 8563TIP3    H249885   2.869   6.926  11.441  0.9249  2.1700 -0.4249
 8564TIP3   OH249886   3.514   0.908  11.623 -0.0893  0.1086  0.3468
 8564TIP3    H149887   3.468   0.959  11.556 -0.8381 -2.0159 -0.8543
 8564TIP3    H249888   3.601   0.948  11.629 -0.5178  1.2680 -0.8082
 8565TIP3   OH249889   4.734   1.757  10.847 -0.5946  0.0400  0.4475
 8565TIP3    H149890   4.695   1.833  10.805  0.6705  1.9521  2.4657
 8565TIP3    H249891   4.674   1.737  10.920  1.1653  2.0181  2.6105
 8566TIP3   OH249892   0.264   2.954  11.536  0.8724 -0.3477 -0.0975
 8566TIP3    H149893   0.194   2.909  11.490  0.5102 -0.7554  0.8310
 8566TIP3    H249894   0.329   2.886  11.554  0.4571 -0.4599  1.0475
 8567TIP3   OH249895   5.301   6.431   9.743 -0.4598 -0.2037  1.0480
 8567TIP3    H149896   5.245   6.378   9.800 -2.9714  2.4346  1.2931
 8567TIP3    H249897   5.267   6.417   9.655 -1.1435  0.8931  1.1148
 8568TIP3   OH249898   0.336   4.797   9.937  0.1079  0.1787  0.5135
 8568TIP3    H149899   0.354   4.705   9.953  0.4565  0.1519 -0.0029
 8568TIP3    H249900   0.240   4.804   9.940  0.0706 -0.2387  0.3476
 8569TIP3   OH249901   2.833   4.160  11.174  0.4177 -0.5841 -0.5536
 8569TIP3    H149902   2.894   4.232  11.161 -0.1697 -0.2406 -1.5507
 8569TIP3    H249903   2.888   4.084  11.191  1.0707 -0.0555 -0.2597
 8570TIP3   OH249904   6.407   4.044  11.149  0.5610  0.1874  0.0517
 8570TIP3    H149905   6.312   4.059  11.154  0.0842 -2.2420 -0.7551
 8570TIP3    H249906   6.426   3.987  11.224  1.7972  2.1938  1.3702
 8571TIP3   OH249907   2.078   1.823  10.612 -0.3348 -0.2002  0.6374
 8571TIP3    H149908   2.103   1.913  10.590 -0.4476 -0.5050 -0.7741
 8571TIP3    H249909   1.990   1.832  10.649 -0.5830  0.2039 -0.0417
 8572TIP3   OH249910   2.938   6.257  12.608  0.2521  0.4765 -0.0662
 8572TIP3    H149911   2.975   6.344  12.619  0.5288  0.2359  1.0284
 8572TIP3    H249912   2.845   6.272  12.592 -0.0064  0.9409  1.6793
 8573TIP3   OH249913   4.963   5.456  11.760  0.0004  0.2889 -0.1514
 8573TIP3    H149914   4.920   5.409  11.832  1.8351  0.8573  1.4164
 8573TIP3    H249915   5.023   5.517  11.804  0.6055  1.2562 -2.1763
 8574TIP3   OH249916   4.106   5.207  10.310  0.4138 -0.0373  0.0625
 8574TIP3    H149917   4.049   5.204  10.387  0.3278 -0.5862 -0.0122
 8574TIP3    H249918   4.194   5.212  10.347  0.4086 -0.8569  0.2239
 8575TIP3   OH249919   3.002   2.716  11.461 -0.2341 -0.1109 -0.6084
 8575TIP3    H149920   3.032   2.799  11.498  0.1625 -0.3748 -0.3306
 8575TIP3    H249921   3.000   2.655  11.535  0.5450 -0.6395 -1.0043
 8576TIP3   OH249922   5.192   2.276  11.702  0.4003  0.0332  0.2656
 8576TIP3    H149923   5.104   2.236  11.704  0.3587  0.1177  0.1101
 8576TIP3    H249924   5.186   2.349  11.764  0.3805 -0.0016  0.3056
 8577TIP3   OH249925   5.061   7.069  12.293  0.1712  0.3970 -0.5042
 8577TIP3    H149926   5.089   7.095  12.381  1.0135  1.0499 -0.9419
 8577TIP3    H249927   4.992   7.132  12.270  0.0825  0.3426 -0.3865
 8578TIP3   OH249928   2.569   3.838  10.507  0.6605 -0.3053  0.5442
 8578TIP3    H149929   2.647   3.841  10.452 -0.9434 -1.9374 -2.0162
 8578TIP3    H249930   2.541   3.929  10.513  0.6185 -0.0996 -1.8595
 8579TIP3   OH249931   0.381   6.788  10.477 -0.5838  0.1236  0.0880
 8579TIP3    H149932   0.426   6.703  10.477 -1.2079 -0.2375  1.4359
 8579TIP3    H249933   0.411   6.832  10.556 -0.3217  1.1524 -0.5655
 8580TIP3   OH249934   0.726   3.035  11.392  0.2111  0.6736 -0.1408
 8580TIP3    H149935   0.749   3.024  11.484  1.4904 -2.4347 -0.7191
 8580TIP3    H249936   0.802   3.078  11.353  0.9755 -0.7354 -0.2544
 8581TIP3   OH249937   7.436   4.210  10.403  0.8547  0.3973  0.3639
 8581TIP3    H149938   7.349   4.247  10.415  1.1780  2.7930 -3.2047
 8581TIP3    H249939   7.432   4.125  10.447 -2.7072  1.0875  1.7042
 8582TIP3   OH249940   0.456   5.955  10.993  0.0065  0.0318  0.4797
 8582TIP3    H149941   0.373   6.001  11.002  0.1015  0.4746 -0.6854
 8582TIP3    H249942   0.462   5.936  10.899  1.4917  0.5409  0.4494
 8583TIP3   OH249943   2.327   3.695  10.976 -0.0209 -0.0127  0.3706
 8583TIP3    H149944   2.401   3.709  10.916 -0.8284 -3.4778 -1.7075
 8583TIP3    H249945   2.251   3.727  10.927 -0.2202  1.7539  1.7270
 8584TIP3   OH249946   0.100   0.738  10.642  0.3211  0.4486  0.1081
 8584TIP3    H149947   0.113   0.647  10.615  0.0755  0.5317 -0.2940
 8584TIP3    H249948   0.018   0.764  10.600  0.8245  1.1279 -0.4684
 8585TIP3   OH249949   6.327   6.018  11.690  0.1579  0.0557  0.4172
 8585TIP3    H149950   6.242   5.990  11.724  0.7386 -1.8423  0.4602
 8585TIP3    H249951   6.390   5.984  11.755  1.1202 -1.3489 -1.1674
 8586TIP3   OH249952   2.719   2.539  11.748  0.0921 -0.0905  0.1787
 8586TIP3    H149953   2.797   2.587  11.775 -0.7030  1.3644 -0.0262
 8586TIP3    H249954   2.697   2.575  11.662 -1.0623 -0.1710  0.4288
 8587TIP3   OH249955   1.846   7.490  11.449  0.4122  0.0072  0.1446
 8587TIP3    H149956   1.936   7.472  11.477  0.3521 -0.8473 -0.1754
 8587TIP3    H249957   1.799   7.409  11.467 -0.7928  1.0700  2.1696
 8588TIP3   OH249958   2.536   0.670  10.305  0.7059  0.2420  0.2357
 8588TIP3    H149959   2.497   0.608  10.367 -2.2003  0.0620 -1.5807
 8588TIP3    H249960   2.608   0.623  10.265  0.6753 -0.7322  1.2992
 8589TIP3   OH249961   1.423   1.209  11.592  0.4057  0.0756  0.6306
 8589TIP3    H149962   1.406   1.264  11.668 -1.4436 -1.9424  1.7980
 8589TIP3    H249963   1.474   1.135  11.626  2.0063  0.4933 -0.7057
 8590TIP3   OH249964   0.467   1.138   9.659  0.2221 -0.0628  0.4685
 8590TIP3    H149965   0.380   1.166   9.631  0.9862  1.0862 -0.8804
 8590TIP3    H249966   0.450   1.067   9.721 -1.6911  0.8323  1.0451
 8591TIP3   OH249967   7.236   3.916  12.040 -0.2380  0.0057 -0.1959
 8591TIP3    H149968   7.222   3.969  12.118 -1.6064  0.1055 -0.4856
 8591TIP3    H249969   7.243   3.979  11.969 -0.2687 -0.1282 -0.3184
 8592TIP3   OH249970   0.451   6.676  11.371  0.4766  0.1191  0.1948
 8592TIP3    H149971   0.543   6.699  11.359 -0.0763  2.0490 -0.7895
 8592TIP3    H249972   0.409   6.700  11.288 -1.1488  0.6509  1.1229
 8593TIP3   OH249973   5.145   1.467  10.427  0.0404  0.1599 -0.1389
 8593TIP3    H149974   5.191   1.387  10.403 -0.3578 -0.3081  0.6389
 8593TIP3    H249975   5.209   1.518  10.477 -0.2211 -0.4225  0.8111
 8594TIP3   OH249976   4.951   4.151  10.579  0.3963 -0.6103  0.0718
 8594TIP3    H149977   4.937   4.057  10.571  1.5225 -0.7165 -0.8678
 8594TIP3    H249978   4.897   4.189  10.509 -3.5021 -0.1190  2.9583
 8595TIP3   OH249979   5.596   1.616  11.986 -0.5523 -0.3082  0.1770
 8595TIP3    H149980   5.685   1.582  11.999 -0.5694 -0.2187  0.5394
 8595TIP3    H249981   5.545   1.574  12.055 -0.8769 -0.6768 -0.2842
 8596TIP3   OH249982   2.477   5.004  11.093 -0.0628  0.3883 -0.3020
 8596TIP3    H149983   2.459   5.044  11.178 -1.9293 -0.7686 -0.0930
 8596TIP3    H249984   2.537   5.064  11.050  1.0866  0.9086  1.9006
 8597TIP3   OH249985   6.485   0.300  10.134 -0.1174 -0.3951  0.0212
 8597TIP3    H149986   6.563   0.261  10.175 -0.1732  0.8819  1.4513
 8597TIP3    H249987   6.414   0.239  10.156  0.0938 -0.4042  0.7312
 8598TIP3   OH249988   6.958   6.230  10.004 -0.3717 -1.0979  0.1540
 8598TIP3    H149989   6.999   6.194   9.925  1.1340 -0.6023  0.6922
 8598TIP3    H249990   6.883   6.281   9.970  0.2993 -0.8169 -0.9718
 8599TIP3   OH249991   2.876   5.934  12.380 -0.0668 -0.8917 -0.0714
 8599TIP3    H149992   2.797   5.988  12.383  0.1142 -0.6193  2.3649
 8599TIP3    H249993   2.852   5.859  12.326 -0.9552  0.6572 -1.9302
 8600TIP3   OH249994   1.618   3.954  10.701 -0.1093 -0.0561  0.2666
 8600TIP3    H149995   1.552   3.894  10.666  0.1307 -0.4105  0.4205
 8600TIP3    H249996   1.698   3.932  10.655 -0.2109  0.7292 -0.2959
 8601TIP3   OH249997   5.594   6.601  10.239 -0.2957 -0.1986 -0.3345
 8601TIP3    H149998   5.553   6.685  10.260  0.0797  0.0514 -0.5949
 8601TIP3    H249999   5.535   6.561  10.175 -0.3566 -0.0261 -0.3874
 8602TIP3   OH250000   4.490   7.666  11.897  0.5240 -0.6928  0.6048
 8602TIP3    H150001   4.473   7.577  11.929  0.4020 -0.9990 -0.2855
 8602TIP3    H250002   4.406   7.711  11.906  0.6989 -0.5131  1.4910
 8603TIP3   OH250003   6.664   5.401  12.416 -0.1251 -0.5844 -0.8106
 8603TIP3    H150004   6.666   5.497  12.415  0.0434 -0.5842 -0.4183
 8603TIP3    H250005   6.693   5.377  12.504  0.2372 -1.0047 -1.0377
 8604TIP3   OH250006   1.275   1.299  13.054  0.0557  0.3165  0.9003
 8604TIP3    H150007   1.321   1.217  13.073 -0.9527 -0.4182  0.2886
 8604TIP3    H250008   1.344   1.360  13.030  0.6514 -1.3970 -2.3505
 8605TIP3   OH250009   1.361   7.248  11.058  0.2502 -0.5349  0.2351
 8605TIP3    H150010   1.443   7.285  11.025  0.4182 -0.1854  1.0252
 8605TIP3    H250011   1.376   7.237  11.152 -0.4788 -0.8212  0.3215
 8606TIP3   OH250012   5.247   2.910  10.834 -0.3499 -0.5939 -0.1836
 8606TIP3    H150013   5.230   2.906  10.740 -2.5877  1.4537  0.0478
 8606TIP3    H250014   5.227   3.001  10.859  3.5441 -0.0150  1.7126
 8607TIP3   OH250015   1.739   6.480  12.146 -0.4646 -0.3962 -0.5600
 8607TIP3    H150016   1.694   6.476  12.062 -1.7982  1.7752 -0.0470
 8607TIP3    H250017   1.670   6.505  12.209  0.8512 -0.0864  0.8294
 8608TIP3   OH250018   3.603   0.300  11.691  0.1086 -0.2547  0.2325
 8608TIP3    H150019   3.523   0.352  11.682  0.8035  0.4215 -3.5039
 8608TIP3    H250020   3.585   0.219  11.643  1.4042 -0.4043 -0.0410
 8609TIP3   OH250021   4.737   6.723  10.024 -0.3170  0.3104  0.1642
 8609TIP3    H150022   4.751   6.633  10.055 -0.7887  0.4616  0.8422
 8609TIP3    H250023   4.822   6.765  10.036 -0.0075 -0.1234 -0.4470
 8610TIP3   OH250024   5.403   3.256  11.073  0.0382  0.2280 -0.0155
 8610TIP3    H150025   5.413   3.194  11.145 -0.2853 -0.6800 -0.7225
 8610TIP3    H250026   5.421   3.341  11.111 -0.4236 -0.2028  1.2103
 8611TIP3   OH250027   3.478   5.577  11.096 -0.1115 -0.3252 -0.0451
 8611TIP3    H150028   3.528   5.504  11.059 -0.7641 -0.3885 -0.8215
 8611TIP3    H250029   3.536   5.652  11.087 -0.8313  0.0116 -2.7446
 8612TIP3   OH250030   4.560   6.327  10.236 -0.4435  0.0830 -0.3014
 8612TIP3    H150031   4.492   6.394  10.231 -0.2664  0.2478 -0.5158
 8612TIP3    H250032   4.513   6.244  10.231 -0.5136  0.2026 -2.0844
 8613TIP3   OH250033   3.663   7.011  11.262  0.9209  0.4909 -0.4669
 8613TIP3    H150034   3.639   6.930  11.217  0.2975  1.1061 -1.2708
 8613TIP3    H250035   3.759   7.007  11.267  0.9625  0.1207 -1.3141
 8614TIP3   OH250036   1.710   0.083  10.798 -0.1078 -0.0529 -0.2732
 8614TIP3    H150037   1.731  -0.007  10.823  2.2142  0.2813 -0.8768
 8614TIP3    H250038   1.629   0.102  10.847  0.2339 -1.8964  1.1389
 8615TIP3   OH250039   6.361   4.015  10.548 -0.2278 -0.1914  0.5122
 8615TIP3    H150040   6.277   3.971  10.536  0.5417 -1.6181  0.1748
 8615TIP3    H250041   6.349   4.070  10.626 -1.6353  0.0941  0.1210
 8616TIP3   OH250042   6.304   4.396  10.455  0.6192  0.3791  0.0733
 8616TIP3    H150043   6.210   4.409  10.468  0.8690  3.1513 -0.4692
 8616TIP3    H250044   6.311   4.364  10.365  0.2659  1.0841 -0.2062
 8617TIP3   OH250045   3.499   4.532  11.161  0.1234 -0.4293 -0.2368
 8617TIP3    H150046   3.438   4.605  11.153  0.0539 -0.5215 -0.5467
 8617TIP3    H250047   3.562   4.562  11.227  0.7563  0.3829 -1.1791
 8618TIP3   OH250048   7.265   0.672   9.887  0.0935 -0.2958  0.0775
 8618TIP3    H150049   7.298   0.753   9.928 -0.8892  0.4928 -0.6415
 8618TIP3    H250050   7.201   0.702   9.822 -0.2682 -1.6587 -0.2286
 8619TIP3   OH250051   6.253   3.865  11.852  0.0458  0.1810 -0.9397
 8619TIP3    H150052   6.262   3.919  11.774 -0.2774  0.4881 -0.7670
 8619TIP3    H250053   6.326   3.803  11.847 -1.3705 -1.4599 -2.7882
 8620TIP3   OH250054   0.674   5.176  11.172 -0.0758 -0.0892  0.0554
 8620TIP3    H150055   0.727   5.153  11.096 -0.1998  0.2191 -0.1295
 8620TIP3    H250056   0.586   5.188  11.136  0.0528  1.0282  0.0726
 8621TIP3   OH250057   4.337   1.035  12.913 -0.3202 -0.3174  0.0534
 8621TIP3    H150058   4.311   0.944  12.906 -1.6185 -0.0143  0.6765
 8621TIP3    H250059   4.255   1.084  12.907  0.1983  0.7355  1.1624
 8622TIP3   OH250060   3.583   0.417  11.048  0.2700 -0.6686 -0.0980
 8622TIP3    H150061   3.564   0.500  11.004 -0.7742 -1.0991 -0.4984
 8622TIP3    H250062   3.647   0.374  10.992 -0.0477 -0.6277 -0.4998
 8623TIP3   OH250063   6.226   0.181  12.516  0.6008 -0.1432  0.2276
 8623TIP3    H150064   6.241   0.244  12.586 -0.9355 -1.7248  2.0793
 8623TIP3    H250065   6.248   0.096  12.554 -1.5721 -1.2043 -0.6992
 8624TIP3   OH250066   1.542   0.848  10.672 -0.4799 -0.0945  0.0673
 8624TIP3    H150067   1.505   0.936  10.666  0.0812  0.2297  1.1491
 8624TIP3    H250068   1.576   0.842  10.761 -1.7301 -1.8895  0.4970
 8625TIP3   OH250069   5.269   7.521  10.396 -0.2326 -0.4288 -0.4633
 8625TIP3    H150070   5.224   7.595  10.355 -1.6667 -1.7695 -1.4463
 8625TIP3    H250071   5.323   7.483  10.326 -0.9792 -1.4033 -0.5428
 8626TIP3   OH250072   3.713   0.721  11.010 -0.0895  0.1946 -0.0897
 8626TIP3    H150073   3.788   0.672  11.043 -0.7067 -0.9292 -0.3218
 8626TIP3    H250074   3.658   0.736  11.086  0.3923  1.0936  0.0968
 8627TIP3   OH250075   3.325   4.192  11.170  0.6244  0.1544  0.1708
 8627TIP3    H150076   3.338   4.283  11.146  1.8086 -0.5976 -2.3406
 8627TIP3    H250077   3.229   4.181  11.171  0.4361  1.5520  1.3076
 8628TIP3   OH250078   2.350   4.816  11.416 -0.4567  0.4710 -0.1292
 8628TIP3    H150079   2.276   4.876  11.417 -0.4029  0.5286  0.6001
 8628TIP3    H250080   2.312   4.730  11.429 -0.4690  0.4139 -0.5289
 8629TIP3   OH250081   0.020   2.960  10.652  0.1876  0.1892 -0.2701
 8629TIP3    H150082  -0.024   2.877  10.672 -0.3608  0.3828 -0.6504
 8629TIP3    H250083  -0.009   3.020  10.721  2.7262 -0.6173  1.6697
 8630TIP3   OH250084   4.884   5.799  11.707  0.8642 -0.2484 -0.0043
 8630TIP3    H150085   4.839   5.724  11.746 -0.5304  1.6510  2.3399
 8630TIP3    H250086   4.974   5.792  11.738  0.0570  0.5515  2.7964
 8631TIP3   OH250087   3.468   5.251  10.378 -0.3200 -0.0317  0.0533
 8631TIP3    H150088   3.560   5.250  10.403 -0.2030 -0.0022 -0.3852
 8631TIP3    H250089   3.440   5.160  10.387  0.2215 -0.3906 -1.5657
 8632TIP3   OH250090   3.442   0.593  11.471 -1.0364  0.2374 -0.3507
 8632TIP3    H150091   3.375   0.560  11.411  0.1103 -2.3807 -0.3681
 8632TIP3    H250092   3.414   0.562  11.557 -0.4393  0.0914 -0.2033
 8633TIP3   OH250093   0.898   1.336  12.697  0.0861  0.0132 -0.4581
 8633TIP3    H150094   0.927   1.368  12.782  1.1530 -0.7070 -0.5184
 8633TIP3    H250095   0.812   1.374  12.684  0.6254  1.5208  0.1728
 8634TIP3   OH250096   4.889   1.122  10.511 -0.2647  0.0718 -0.1318
 8634TIP3    H150097   4.972   1.100  10.470 -0.4919  2.4765 -2.1161
 8634TIP3    H250098   4.827   1.058  10.477  0.3919 -0.5975 -0.1005
 8635TIP3   OH250099   2.251   6.429  11.083 -0.0183 -0.0079  0.2836
 8635TIP3    H150100   2.287   6.480  11.011  0.6777 -0.6089  0.2012
 8635TIP3    H250101   2.270   6.481  11.161  0.8536 -0.2179  0.2188
 8636TIP3   OH250102   6.809   5.105  10.683  0.1961  0.3973 -0.2838
 8636TIP3    H150103   6.771   5.022  10.709 -0.3593  0.5426 -0.6098
 8636TIP3    H250104   6.904   5.092  10.692  0.4239 -1.4771 -3.6601
 8637TIP3   OH250105   6.914   1.361  11.388  0.0815 -0.0579  0.0670
 8637TIP3    H150106   6.890   1.294  11.452 -1.9475  0.6111  0.0778
 8637TIP3    H250107   6.842   1.425  11.391  1.9114  2.1377  0.0441
 8638TIP3   OH250108   3.900   2.759  11.946 -0.2734 -0.1602  0.4535
 8638TIP3    H150109   3.875   2.667  11.940 -1.8414  0.1977  1.0113
 8638TIP3    H250110   3.941   2.778  11.862 -0.0866 -1.3010  0.2588
 8639TIP3   OH250111   2.162   5.182  12.289  0.2588  0.0848  0.0507
 8639TIP3    H150112   2.192   5.231  12.212 -1.5629 -0.2133 -0.8977
 8639TIP3    H250113   2.239   5.133  12.318  0.5602 -1.2601 -2.7306
 8640TIP3   OH250114   2.420   5.631  12.285  0.1520 -0.0143  0.1294
 8640TIP3    H150115   2.516   5.634  12.293  0.1267  0.6808  0.1887
 8640TIP3    H250116   2.394   5.556  12.340  0.7813 -1.1598 -1.0810
 8641TIP3   OH250117   4.412   6.544  10.287  0.4780 -0.2482 -0.1693
 8641TIP3    H150118   4.410   6.580  10.198 -0.1308  0.0933 -0.0273
 8641TIP3    H250119   4.492   6.580  10.326 -0.1940  1.1330  0.0251
 8642TIP3   OH250120   6.473   2.112  11.091 -0.3131 -0.2098 -0.0552
 8642TIP3    H150121   6.411   2.041  11.076 -0.9424  0.3675 -0.2132
 8642TIP3    H250122   6.432   2.166  11.159 -0.3521  0.5932 -0.6966
 8643TIP3   OH250123   2.068   7.649   9.735 -0.3924 -0.1433  0.0465
 8643TIP3    H150124   2.060   7.576   9.674 -0.5400 -2.2919  2.4523
 8643TIP3    H250125   1.978   7.674   9.755 -0.5180 -1.7880  1.8727
 8644TIP3   OH250126   2.170   6.326  12.308  0.3893  0.1941 -0.0360
 8644TIP3    H150127   2.089   6.275  12.299  0.3239  0.4175 -0.8189
 8644TIP3    H250128   2.144   6.415  12.283  1.0295  0.1311 -0.9409
 8645TIP3   OH250129   1.411   1.245  10.229 -0.2189 -0.3068  0.0319
 8645TIP3    H150130   1.419   1.156  10.194 -0.1101 -0.8028  1.2736
 8645TIP3    H250131   1.347   1.287  10.172  1.6879 -0.2969 -2.2864
 8646TIP3   OH250132   1.186   4.175  11.743  0.1708  0.4099 -0.6460
 8646TIP3    H150133   1.135   4.103  11.706  0.1961  1.4603 -2.9085
 8646TIP3    H250134   1.120   4.233  11.782 -0.1577  0.4879 -1.2876
 8647TIP3   OH250135   5.846   3.013  11.965  0.3391 -0.7512 -0.4003
 8647TIP3    H150136   5.910   3.060  11.912  0.4742  0.7130  0.9754
 8647TIP3    H250137   5.802   3.081  12.015 -0.4317 -1.9880  0.6670
 8648TIP3   OH250138   3.751   7.427  11.066 -0.2269  0.2649 -0.0551
 8648TIP3    H150139   3.729   7.507  11.114 -2.2595 -0.2672 -0.0415
 8648TIP3    H250140   3.815   7.456  11.001  2.3416  1.0858  2.5965
 8649TIP3   OH250141   5.928   2.270  11.651 -0.4166 -0.4024 -0.0443
 8649TIP3    H150142   5.975   2.187  11.658 -2.2371 -1.5036 -0.2081
 8649TIP3    H250143   5.840   2.251  11.683 -0.6878  1.6789  0.6399
 8650TIP3   OH250144   1.675   3.524  12.382 -0.1539 -0.0646 -0.6612
 8650TIP3    H150145   1.603   3.575  12.345 -2.0155 -0.7854  1.7136
 8650TIP3    H250146   1.653   3.433  12.362  1.9150 -0.2221 -2.7763
 8651TIP3   OH250147   2.784   6.759  10.312  0.1008 -0.1241 -0.7326
 8651TIP3    H150148   2.855   6.711  10.270  0.3927  0.0037 -0.3841
 8651TIP3    H250149   2.826   6.812  10.379 -0.4454 -0.9612  0.2964
 8652TIP3   OH250150   1.176   3.822  10.244 -0.0293 -0.0303 -0.2431
 8652TIP3    H150151   1.205   3.791  10.159 -0.4597  1.2755 -0.8867
 8652TIP3    H250152   1.153   3.914  10.230  0.3813  0.3530  1.3934
 8653TIP3   OH250153   3.255   4.945  11.320  0.3791 -0.7262 -0.0509
 8653TIP3    H150154   3.288   5.034  11.327  3.0351 -1.7727  2.8728
 8653TIP3    H250155   3.175   4.945  11.374  1.4416 -0.4874  1.5930
 8654TIP3   OH250156   1.899   0.714  12.225  0.1806  0.0269  0.2530
 8654TIP3    H150157   1.878   0.749  12.312 -0.0883  1.1209 -0.2362
 8654TIP3    H250158   1.814   0.692  12.187  0.4057 -2.8833  1.1954
 8655TIP3   OH250159   2.980   0.637  11.179 -0.0130  0.0442 -0.4041
 8655TIP3    H150160   2.910   0.678  11.230 -0.4039  1.8358 -2.2251
 8655TIP3    H250161   3.030   0.711  11.144  1.5050 -1.1607 -0.8947
 8656TIP3   OH250162   1.439   6.490  11.352 -0.0344  0.1666  0.1389
 8656TIP3    H150163   1.499   6.549  11.306 -0.3742  1.1022  0.8556
 8656TIP3    H250164   1.355   6.504  11.309  0.0958 -0.6037 -0.3873
 8657TIP3   OH250165   0.938   2.236  10.808  0.4564 -0.0846 -0.5204
 8657TIP3    H150166   0.979   2.219  10.723  0.0996  1.0885 -0.9448
 8657TIP3    H250167   0.991   2.187  10.870  3.4335  2.4013 -0.8380
 8658TIP3   OH250168   4.664   5.248  12.106  0.1727 -0.0169 -0.1746
 8658TIP3    H150169   4.648   5.155  12.089  0.4157  0.1881 -1.6733
 8658TIP3    H250170   4.697   5.251  12.196  1.1925 -1.5066 -0.4664
 8659TIP3   OH250171   5.879   6.544  10.206 -0.5398 -0.1009 -0.1297
 8659TIP3    H150172   5.785   6.531  10.216 -0.6481  1.4892  1.3857
 8659TIP3    H250173   5.888   6.633  10.170  0.3622 -0.9149 -2.0589
 8660TIP3   OH250174   2.709   7.275   9.983 -0.4005 -0.0000 -0.8981
 8660TIP3    H150175   2.640   7.323   9.937 -1.3482  2.8537  2.9852
 8660TIP3    H250176   2.662   7.209  10.034  0.0566  0.0103 -0.4566
 8661TIP3   OH250177   2.618   6.508  10.364  0.2131 -0.2654 -0.2696
 8661TIP3    H150178   2.672   6.579  10.329  1.3623 -0.6429  0.6839
 8661TIP3    H250179   2.662   6.428  10.336  0.1666 -0.5738  0.4989
 8662TIP3   OH250180   1.792   5.456  11.274 -0.2512 -0.2534  0.4011
 8662TIP3    H150181   1.830   5.400  11.342  0.7908 -0.0234  0.0109
 8662TIP3    H250182   1.815   5.545  11.300 -0.1030 -0.1433 -0.1014
 8663TIP3   OH250183   3.337   4.303   9.744  0.3137 -0.2887 -0.2474
 8663TIP3    H150184   3.280   4.294   9.668 -0.8742  1.7137  0.3313
 8663TIP3    H250185   3.325   4.221   9.793 -0.6063 -0.6905 -1.1058
 8664TIP3   OH250186   0.918   7.040   9.692  0.4774  0.2255  0.6548
 8664TIP3    H150187   0.844   7.096   9.713 -0.9826 -1.4878  0.3791
 8664TIP3    H250188   0.939   7.062   9.602 -1.9568 -1.5024 -0.4659
 8665TIP3   OH250189   6.637   2.837  10.265  0.7124  0.7546  0.8023
 8665TIP3    H150190   6.687   2.865  10.342  0.2305  1.4585  0.8699
 8665TIP3    H250191   6.628   2.742  10.276  2.3935  0.5297  0.5688
 8666TIP3   OH250192   0.212   3.903  11.815 -1.0418  0.2012  0.0367
 8666TIP3    H150193   0.271   3.900  11.890 -0.3577 -0.5862 -0.5252
 8666TIP3    H250194   0.230   3.823  11.766 -3.1825 -0.5135  0.3021
 8667TIP3   OH250195   2.926   1.931  11.849  0.7081  0.0223  0.1893
 8667TIP3    H150196   2.954   1.840  11.861 -0.0984 -0.2616 -0.0206
 8667TIP3    H250197   2.966   1.958  11.766 -1.0703 -0.9773 -1.0582
 8668TIP3   OH250198   5.679   3.814  11.133 -0.1334 -0.0010 -0.5956
 8668TIP3    H150199   5.632   3.735  11.158 -1.9238  1.1613 -0.1530
 8668TIP3    H250200   5.611   3.875  11.104  1.3417  0.8193 -2.5485
 8669TIP3   OH250201   3.579   0.017  10.811  0.1702 -0.3453 -0.8155
 8669TIP3    H150202   3.614   0.058  10.732 -0.0214  0.8405 -0.3088
 8669TIP3    H250203   3.628   0.058  10.882 -0.6352 -0.3674 -0.2358
 8670TIP3   OH250204   2.382   0.545  11.705  0.2380  0.0638  0.1980
 8670TIP3    H150205   2.411   0.459  11.736  1.8998  0.6300  0.2813
 8670TIP3    H250206   2.292   0.553  11.738  0.3974 -1.2291  1.0106
 8671TIP3   OH250207   1.600   0.307  12.451  0.0001  0.1255 -0.2127
 8671TIP3    H150208   1.582   0.305  12.545 -1.1240 -0.5448 -0.4136
 8671TIP3    H250209   1.516   0.282  12.411  0.8815 -1.2023 -1.3233
 8672TIP3   OH250210   0.789   0.626   9.772  0.4972 -0.3203  0.7754
 8672TIP3    H150211   0.773   0.698   9.711  0.4177 -2.9822 -2.6886
 8672TIP3    H250212   0.884   0.613   9.768  0.4744 -0.6019  1.1180
 8673TIP3   OH250213   1.619   3.249  11.711 -0.0016 -0.5834  0.3412
 8673TIP3    H150214   1.531   3.211  11.715 -1.2349  1.8151 -1.0327
 8673TIP3    H250215   1.655   3.238  11.799 -1.3105 -2.3799  0.7031
 8674TIP3   OH250216   5.907   7.038  10.116  0.1851  0.1179 -0.0462
 8674TIP3    H150217   5.860   7.065  10.195 -0.7166 -0.1924 -0.4705
 8674TIP3    H250218   6.000   7.046  10.140 -0.0726 -0.2993  1.1647
 8675TIP3   OH250219   1.885   4.032  12.546  0.3782 -0.3840 -0.0577
 8675TIP3    H150220   1.858   3.950  12.587 -1.8126 -0.1987 -1.0008
 8675TIP3    H250221   1.916   4.086  12.618 -0.9892 -0.9779  1.0062
 8676TIP3   OH250222   2.540   1.386  12.994 -0.2222 -0.1514  0.1871
 8676TIP3    H150223   2.629   1.422  12.994 -0.3311  0.1173 -0.2871
 8676TIP3    H250224   2.483   1.461  13.013 -0.4087 -0.1636 -0.3077
 8677TIP3   OH250225   6.522   5.652  12.869 -0.7944 -0.3352 -0.1520
 8677TIP3    H150226   6.456   5.710  12.905  1.9544  2.4342  0.9429
 8677TIP3    H250227   6.554   5.602  12.944 -0.5215 -0.3981 -0.3065
 8678TIP3   OH250228   3.326   7.381  10.303 -0.5345 -0.0521 -0.1033
 8678TIP3    H150229   3.413   7.418  10.293 -0.7766  0.5314 -0.0637
 8678TIP3    H250230   3.299   7.405  10.392 -0.8536  0.0209 -0.2180
 8679TIP3   OH250231   5.128   0.837   9.978  0.7834 -0.5024 -0.2702
 8679TIP3    H150232   5.222   0.834   9.996  0.7416 -1.2657 -0.1359
 8679TIP3    H250233   5.119   0.801   9.889  0.5482 -1.1951  0.0291
 8680TIP3   OH250234   2.898   1.015  12.293  0.0096  0.5430  0.2553
 8680TIP3    H150235   2.877   0.991  12.202  0.4550  0.5793  0.1373
 8680TIP3    H250236   2.963   0.950  12.320 -0.4089  0.2997  0.6824
 8681TIP3   OH250237   3.990   0.075  11.777 -0.3530  0.6015  0.2989
 8681TIP3    H150238   3.991   0.070  11.681  0.0592 -0.3362  0.3412
 8681TIP3    H250239   3.937   0.152  11.796 -1.5572  0.0490 -0.6618
 8682TIP3   OH250240   3.035   5.383   9.972 -0.3450 -0.0808  0.0108
 8682TIP3    H150241   2.968   5.315   9.968 -0.8192  0.4088 -0.6623
 8682TIP3    H250242   3.117   5.336   9.985 -0.7426 -0.7333  0.1824
 8683TIP3   OH250243   3.275   4.708  11.499  0.3415 -0.2258  0.1824
 8683TIP3    H150244   3.353   4.719  11.553  0.1402 -0.6212  0.5568
 8683TIP3    H250245   3.291   4.764  11.422  0.8683 -0.0931  0.3845
 8684TIP3   OH250246   0.944   1.441  11.045 -0.1010 -0.2793 -0.2919
 8684TIP3    H150247   0.947   1.425  11.140  0.5086  2.2277  0.1961
 8684TIP3    H250248   0.859   1.484  11.031 -0.5996 -1.4719 -1.0761
 8685TIP3   OH250249   2.051   2.541  12.725  0.1558 -0.8808  0.6910
 8685TIP3    H150250   2.088   2.627  12.748 -1.4938 -0.0837  0.4924
 8685TIP3    H250251   2.086   2.523  12.638 -0.7921  0.4008  0.0104
 8686TIP3   OH250252   6.388   5.181  10.799 -0.4256  0.0598  0.8218
 8686TIP3    H150253   6.353   5.178  10.710 -2.3019 -1.2010  1.5469
 8686TIP3    H250254   6.379   5.273  10.824  0.2560  0.4620 -0.3043
 8687TIP3   OH250255   1.396   0.872  12.426  0.2945 -0.0713  0.3786
 8687TIP3    H150256   1.460   0.823  12.478  1.3853  3.3900  2.6084
 8687TIP3    H250257   1.311   0.852  12.465  0.4802 -1.3779  0.1602
 8688TIP3   OH250258   1.048   0.170  12.813  0.0466 -0.1555  0.1767
 8688TIP3    H150259   1.022   0.108  12.745 -1.0964 -0.1213  0.5667
 8688TIP3    H250260   1.130   0.134  12.848  0.5797 -0.2509 -1.0971
 8689TIP3   OH250261   6.138   4.680  10.425  0.0037  0.4852 -0.2284
 8689TIP3    H150262   6.151   4.737  10.349 -2.3136  2.2886  0.5896
 8689TIP3    H250263   6.214   4.696  10.481  0.7351  0.6858 -1.2736
 8690TIP3   OH250264   5.429   5.820  11.151 -0.1730 -0.1246 -0.0794
 8690TIP3    H150265   5.357   5.763  11.178  0.7575  0.2075  3.5165
 8690TIP3    H250266   5.406   5.906  11.186 -0.3840  1.2864 -3.3437
 8691TIP3   OH250267   2.358   0.459  12.289  0.6057  0.6656 -0.5555
 8691TIP3    H150268   2.413   0.392  12.247  0.6465 -1.2189  2.2227
 8691TIP3    H250269   2.298   0.409  12.344  0.7718  2.9111  1.8463
 8692TIP3   OH250270   3.633   4.425  10.062  0.7622  0.1911  0.2490
 8692TIP3    H150271   3.659   4.349  10.114  0.4961  0.0409  0.1643
 8692TIP3    H250272   3.589   4.388   9.986  1.3358  0.4044 -0.1896
 8693TIP3   OH250273   6.177   0.076  12.878 -0.2772 -0.0595 -0.3264
 8693TIP3    H150274   6.235   0.136  12.925  0.5170 -1.4998  0.6087
 8693TIP3    H250275   6.210   0.077  12.788 -0.3241  0.9415 -0.3459
 8694TIP3   OH250276   7.410   2.752  12.709  0.0263  0.4947 -0.7737
 8694TIP3    H150277   7.339   2.775  12.768  0.2700  0.8370 -0.6144
 8694TIP3    H250278   7.367   2.700  12.640 -0.0139 -1.2943  0.5150
 8695TIP3   OH250279   5.222   4.983  10.180  0.3651 -0.1516  0.1318
 8695TIP3    H150280   5.166   5.001  10.255  0.5219 -0.3685  0.3036
 8695TIP3    H250281   5.278   4.911  10.209  0.6003 -0.0649 -0.1042
 8696TIP3   OH250282   4.595   3.690  11.708  0.0818 -0.0239 -0.0371
 8696TIP3    H150283   4.628   3.645  11.786  1.7273 -0.3230 -0.8501
 8696TIP3    H250284   4.536   3.627  11.667  1.3434 -0.9645 -0.4659
 8697TIP3   OH250285   6.918   4.231  12.057  0.4818  0.5695 -0.2724
 8697TIP3    H150286   6.893   4.315  12.019  0.5520  1.0879  0.7824
 8697TIP3    H250287   6.919   4.247  12.151  1.6393 -0.2987 -0.1183
 8698TIP3   OH250288   1.843   6.867  11.245 -0.2471 -0.4744 -0.1996
 8698TIP3    H150289   1.810   6.896  11.160 -0.2741 -2.0003 -0.7478
 8698TIP3    H250290   1.810   6.778  11.254  0.2041 -0.5244  1.1820
 8699TIP3   OH250291   7.357   5.563  10.625  0.0864 -0.3251  0.4117
 8699TIP3    H150292   7.307   5.635  10.586  1.7892  0.6077 -0.1987
 8699TIP3    H250293   7.320   5.484  10.587 -0.0705  0.4077 -1.0326
 8700TIP3   OH250294   5.369   4.172   9.934 -0.3198  0.3457  0.1294
 8700TIP3    H150295   5.423   4.114   9.988  1.7993  0.6737 -1.5375
 8700TIP3    H250296   5.424   4.247   9.914 -2.2103  1.8609  0.2603
 8701TIP3   OH250297   3.799   1.189  10.522 -0.4046  0.2237  0.3132
 8701TIP3    H150298   3.733   1.254  10.550  0.1190  0.9062 -0.0031
 8701TIP3    H250299   3.869   1.197  10.587 -0.5143 -0.3231  0.5045
 8702TIP3   OH250300   6.838   0.762  10.711  0.2802  0.6435 -0.2171
 8702TIP3    H150301   6.778   0.801  10.775 -0.3595 -1.3374  0.4563
 8702TIP3    H250302   6.835   0.668  10.729  1.2475  0.1793 -2.2067
 8703TIP3   OH250303   0.958   5.677  11.556  0.3683 -0.0804  0.0718
 8703TIP3    H150304   0.965   5.723  11.640 -0.5020 -0.8764  0.6000
 8703TIP3    H250305   1.020   5.605  11.563  0.3188 -0.1278  0.0281
 8704TIP3   OH250306   3.625   2.300  10.353  0.3319  0.0141 -0.1646
 8704TIP3    H150307   3.657   2.213  10.376  2.7173  1.0331  0.7027
 8704TIP3    H250308   3.594   2.336  10.436  1.3892  0.7332 -0.0536
 8705TIP3   OH250309   4.528   1.779  11.816  0.4337 -0.5652 -0.0147
 8705TIP3    H150310   4.470   1.855  11.816 -0.7856 -1.4598 -0.7693
 8705TIP3    H250311   4.546   1.762  11.908  0.4280  0.4176  0.1753
 8706TIP3   OH250312   6.457   7.049  10.541  0.2908  0.6149 -0.5452
 8706TIP3    H150313   6.370   7.037  10.579 -0.0272  1.4429 -0.9792
 8706TIP3    H250314   6.513   7.067  10.617  0.2734 -0.7617 -0.1707
 8707TIP3   OH250315   2.666   0.284  10.461  0.0168  0.2502 -0.0611
 8707TIP3    H150316   2.734   0.246  10.405  0.8120  0.4264  0.7583
 8707TIP3    H250317   2.689   0.376  10.468 -1.0582  0.6051 -0.8171
 8708TIP3   OH250318   1.693   0.612  12.077 -0.3393 -0.0126 -0.4179
 8708TIP3    H150319   1.656   0.661  12.004 -0.3356  0.1090 -0.3384
 8708TIP3    H250320   1.725   0.531  12.038 -0.0099  0.2060 -0.6147
 8709TIP3   OH250321   0.981   0.223  12.205 -0.2185  0.3042  0.0213
 8709TIP3    H150322   0.896   0.266  12.204  0.2753  1.2844 -0.5432
 8709TIP3    H250323   1.012   0.227  12.114  0.4175 -0.0727  0.2074
 8710TIP3   OH250324   7.163   6.609  11.806  0.1499  0.2904 -0.3295
 8710TIP3    H150325   7.080   6.569  11.779 -1.0461  2.4664 -0.1146
 8710TIP3    H250326   7.226   6.581  11.739 -0.6352 -1.7085 -0.2931
 8711TIP3   OH250327   4.790   2.212  11.239 -0.5871 -0.3367  0.4922
 8711TIP3    H150328   4.742   2.145  11.287 -0.1875 -0.4353  0.7533
 8711TIP3    H250329   4.850   2.249  11.303  0.2827 -0.7916 -0.0486
 8712TIP3   OH250330   2.963   0.438  11.618 -0.3131  0.2095  0.2657
 8712TIP3    H150331   2.874   0.403  11.614 -0.5394  0.8187 -0.3673
 8712TIP3    H250332   3.011   0.376  11.672 -0.3969 -1.7112 -1.7294
 8713TIP3   OH250333   6.076   2.385  12.150 -0.3244  0.4382 -0.7340
 8713TIP3    H150334   6.150   2.338  12.189 -0.3547 -0.1605 -1.3713
 8713TIP3    H250335   6.010   2.388  12.220 -0.0436  0.1726 -0.4517
 8714TIP3   OH250336   2.171   1.776  12.929  0.4510 -0.0981 -0.2575
 8714TIP3    H150337   2.240   1.803  12.869  1.3439 -2.1510 -0.2489
 8714TIP3    H250338   2.119   1.713  12.879  0.9382 -1.5084  0.9248
 8715TIP3   OH250339   4.437   6.727  11.530 -0.5153 -0.1083 -0.3140
 8715TIP3    H150340   4.343   6.719  11.548 -0.1902  0.1704  1.8631
 8715TIP3    H250341   4.462   6.809  11.573  0.8303 -0.4951 -0.3120
 8716TIP3   OH250342   4.855   0.313  11.805 -0.3913  0.5962 -0.6787
 8716TIP3    H150343   4.820   0.284  11.721 -0.9246 -1.8688  0.3078
 8716TIP3    H250344   4.937   0.264  11.816  0.2097  1.6494 -0.1714
 8717TIP3   OH250345   2.651   6.863  10.604 -0.3721 -0.1507 -0.5824
 8717TIP3    H150346   2.745   6.847  10.596 -0.6058 -1.1108 -1.5742
 8717TIP3    H250347   2.635   6.942  10.551 -0.0240  0.4401  0.1759
 8718TIP3   OH250348   2.361   2.792  10.359  0.3958  0.7180 -0.0270
 8718TIP3    H150349   2.337   2.732  10.289  0.9442  1.4790 -0.8751
 8718TIP3    H250350   2.286   2.851  10.366  0.0357  0.2129  0.5272
 8719TIP3   OH250351   3.166   0.905  10.187 -0.3883 -0.1221  0.2347
 8719TIP3    H150352   3.251   0.944  10.168 -0.5675  0.9548  1.4443
 8719TIP3    H250353   3.117   0.976  10.229 -1.8554 -0.7483 -0.3574
 8720TIP3   OH250354   5.591   6.996  12.280 -0.2701 -0.3752  0.0978
 8720TIP3    H150355   5.523   7.062  12.293  1.1236  1.1265  0.1124
 8720TIP3    H250356   5.581   6.968  12.189 -1.1787 -0.5189  0.2336
 8721TIP3   OH250357   1.334   2.892  10.410 -0.2558  0.3170 -0.1701
 8721TIP3    H150358   1.293   2.828  10.352 -0.4082  1.4840 -1.3712
 8721TIP3    H250359   1.410   2.845  10.447  1.3699  0.2782 -3.2383
 8722TIP3   OH250360   4.426   3.995  10.134 -0.2569 -0.2724  0.3959
 8722TIP3    H150361   4.361   3.934  10.099  0.0950 -0.7888  0.6328
 8722TIP3    H250362   4.387   4.030  10.214 -0.6193  0.1147  0.0588
 8723TIP3   OH250363   0.550   1.756   9.941 -0.2294 -0.0547  0.6981
 8723TIP3    H150364   0.475   1.773   9.997 -0.0652  0.2640  0.8255
 8723TIP3    H250365   0.626   1.778   9.996 -0.0632  0.1379  0.3957
 8724TIP3   OH250366   6.363   2.065  11.729 -0.0362  0.6842 -0.2779
 8724TIP3    H150367   6.402   2.068  11.642 -0.0879  1.2272 -0.2823
 8724TIP3    H250368   6.416   2.000  11.777  1.0917  1.6388 -0.1807
 8725TIP3   OH250369   7.298   0.945  12.162  0.0200 -0.6940 -0.0103
 8725TIP3    H150370   7.221   1.000  12.147  0.1780 -0.8168 -1.3790
 8725TIP3    H250371   7.367   1.006  12.187  0.3545 -0.1502 -2.1022
 8726TIP3   OH250372   3.938   3.752  11.265  0.3031  0.6153 -0.0023
 8726TIP3    H150373   3.908   3.735  11.175  0.3640  1.8080 -0.2656
 8726TIP3    H250374   4.033   3.747  11.260  0.2669 -1.6107  0.5071
 8727TIP3   OH250375   1.108   5.255  11.430  0.4943  0.0509 -0.2053
 8727TIP3    H150376   1.057   5.261  11.350  0.8163 -1.7349 -0.5897
 8727TIP3    H250377   1.154   5.171  11.423  1.2376  0.2784  1.4365
 8728TIP3   OH250378   4.125   6.044  10.006  0.1221  0.0006 -0.5114
 8728TIP3    H150379   4.112   6.090  10.088 -0.4442 -2.0363  0.6229
 8728TIP3    H250380   4.115   6.111   9.938 -1.1678  1.4111  0.9970
 8729TIP3   OH250381   6.228   2.737  10.637 -0.1895 -0.1812 -0.1332
 8729TIP3    H150382   6.190   2.805  10.692 -0.3500 -0.2245 -0.1898
 8729TIP3    H250383   6.277   2.785  10.570 -3.4692  0.0960 -2.6201
 8730TIP3   OH250384   2.957   6.084  10.153 -0.6479  0.3492  0.0912
 8730TIP3    H150385   2.864   6.066  10.169 -0.8338  1.1718 -0.0370
 8730TIP3    H250386   2.992   6.001  10.121 -0.5413 -1.0343  3.4375
 8731TIP3   OH250387   3.608   0.338  10.205  0.0990 -0.5168  0.2714
 8731TIP3    H150388   3.656   0.265  10.165  1.1170  0.8633 -1.0896
 8731TIP3    H250389   3.676   0.396  10.238 -0.6872  0.3351  0.4179
 8732TIP3   OH250390   6.850   3.248  10.687 -0.2053  0.4604  0.0760
 8732TIP3    H150391   6.783   3.189  10.651 -0.2861  0.6037 -0.0140
 8732TIP3    H250392   6.811   3.281  10.768 -0.9684  1.8317 -0.7941
 8733TIP3   OH250393   4.224   0.385  10.383  0.1369  0.6009  0.0581
 8733TIP3    H150394   4.303   0.424  10.420 -0.9261  1.3063  1.7063
 8733TIP3    H250395   4.174   0.460  10.350 -0.2165  0.2409 -0.2245
 8734TIP3   OH250396   1.869   1.823  12.039  0.4248 -0.4182 -0.0543
 8734TIP3    H150397   1.825   1.896  11.995  0.3929 -0.9658 -0.9671
 8734TIP3    H250398   1.894   1.764  11.967  1.2100 -0.8904  0.5983
 8735TIP3   OH250399   3.328   6.699  10.196  0.4079  0.1333 -0.1831
 8735TIP3    H150400   3.322   6.621  10.250 -1.2585  0.9070  0.8278
 8735TIP3    H250401   3.306   6.669  10.108  1.1330 -0.7653 -0.0729
 8736TIP3   OH250402   4.425   1.679  12.497 -0.5439 -0.3767  0.0244
 8736TIP3    H150403   4.384   1.596  12.521 -0.5495 -0.1951  0.6643
 8736TIP3    H250404   4.490   1.656  12.430 -1.5305 -0.6930 -0.8402
 8737TIP3   OH250405   4.080   4.676  10.759  0.5268  0.7830 -0.3647
 8737TIP3    H150406   3.989   4.680  10.788 -0.1480 -0.7276 -2.1156
 8737TIP3    H250407   4.130   4.709  10.834 -1.3444  0.3030  1.1832
 8738TIP3   OH250408   2.119   2.899  11.253 -0.4691 -0.4275  0.5064
 8738TIP3    H150409   2.151   2.809  11.248  0.3854 -0.1145  0.0715
 8738TIP3    H250410   2.029   2.891  11.284 -0.0232 -1.3483  1.6366
 8739TIP3   OH250411   3.597   1.794  10.217 -0.1039 -0.4386  0.0145
 8739TIP3    H150412   3.680   1.796  10.265 -1.3757  2.0749  2.3923
 8739TIP3    H250413   3.607   1.861  10.149  0.0833 -0.6846 -0.2000
 8740TIP3   OH250414   7.393   4.394  12.383 -0.6055 -0.5496 -0.1591
 8740TIP3    H150415   7.359   4.385  12.294  1.2451 -2.6414 -0.7505
 8740TIP3    H250416   7.400   4.305  12.416  0.9511  0.0086  1.1872
 8741TIP3   OH250417   5.887   2.184  10.999  0.3572 -0.0531 -0.2689
 8741TIP3    H150418   5.965   2.175  10.944 -0.0206  0.0876 -0.8389
 8741TIP3    H250419   5.815   2.186  10.936  0.1343  4.4255 -0.1444
 8742TIP3   OH250420   2.437   3.418  10.778  0.0161 -0.6051 -0.0046
 8742TIP3    H150421   2.343   3.426  10.792  0.0544  1.1701 -0.5411
 8742TIP3    H250422   2.469   3.373  10.857 -1.0308  0.4377  1.0575
 8743TIP3   OH250423   4.996   6.705  10.160 -0.9644  0.7213 -0.4344
 8743TIP3    H150424   5.079   6.747  10.137 -0.5823 -0.5316 -1.4522
 8743TIP3    H250425   5.015   6.611  10.157 -2.4701  0.4037 -0.9108
 8744TIP3   OH250426   4.849   3.765  11.324 -0.3589 -0.3863  0.4807
 8744TIP3    H150427   4.848   3.740  11.416 -1.1271 -0.4810  0.4555
 8744TIP3    H250428   4.829   3.858  11.323 -2.9454 -0.8742  0.3005
 8745TIP3   OH250429   4.588   4.551  11.004  0.2748 -0.0328  0.3457
 8745TIP3    H150430   4.604   4.608  11.079 -0.8615  2.3272 -1.0752
 8745TIP3    H250431   4.599   4.608  10.927 -2.1533 -1.3627 -1.1408
 8746TIP3   OH250432   5.399   5.349  11.812 -0.0577 -0.5580  0.4782
 8746TIP3    H150433   5.377   5.319  11.901  1.8218 -3.3484  0.1263
 8746TIP3    H250434   5.491   5.376  11.818  0.1346 -0.9200 -0.6340
 8747TIP3   OH250435   2.830   5.612  10.943  0.4570 -0.0125  0.4791
 8747TIP3    H150436   2.837   5.641  10.852 -0.2556  0.2788  0.5150
 8747TIP3    H250437   2.913   5.567  10.960  1.2512  1.3057  0.1752
 8748TIP3   OH250438   2.574   0.185  11.372  0.1711 -0.0358  0.3169
 8748TIP3    H150439   2.530   0.121  11.428 -0.7265  0.1117 -0.2015
 8748TIP3    H250440   2.508   0.210  11.307  0.2702  1.8828  0.8704
 8749TIP3   OH250441   0.665   6.468  12.151  0.0777  0.1466  0.3562
 8749TIP3    H150442   0.618   6.437  12.228  0.1337  0.0572  0.3533
 8749TIP3    H250443   0.738   6.520  12.186 -0.0288  0.2946  0.3595
 8750TIP3   OH250444   1.871   4.903  10.504 -0.3114  0.4068  0.5021
 8750TIP3    H150445   1.876   4.895  10.409  0.9217 -2.0265  0.6834
 8750TIP3    H250446   1.945   4.959  10.528 -0.9668  1.5080  0.0232
 8751TIP3   OH250447   0.241   2.775  10.913 -0.1334  0.1183  0.9510
 8751TIP3    H150448   0.171   2.749  10.853  0.6308  1.7403 -0.7585
 8751TIP3    H250449   0.314   2.716  10.893  0.2030  0.8139  0.0606
 8752TIP3   OH250450   6.747   3.445  11.519  0.0708 -0.1178 -1.0391
 8752TIP3    H150451   6.722   3.462  11.428  0.5174 -0.7623 -1.2901
 8752TIP3    H250452   6.789   3.526  11.548  0.2714 -0.0448 -1.5305
 8753TIP3   OH250453   3.895   1.665  10.710  0.3459  0.4533  0.3285
 8753TIP3    H150454   3.915   1.738  10.768  0.0693  0.9865 -0.2415
 8753TIP3    H250455   3.863   1.596  10.769  1.1277  0.5892  0.9236
 8754TIP3   OH250456   4.832   5.051  11.639  0.3282 -0.0223  0.0558
 8754TIP3    H150457   4.826   5.084  11.729  0.3245  1.0882 -0.3396
 8754TIP3    H250458   4.906   4.990  11.641 -0.7957 -1.4544  1.2208
 8755TIP3   OH250459   6.747   0.805   9.683  0.2608 -0.3661  0.3050
 8755TIP3    H150460   6.771   0.870   9.749  0.0152  0.8596 -0.7663
 8755TIP3    H250461   6.658   0.830   9.657 -0.6607 -2.3950  1.3320
 8756TIP3   OH250462   6.097   5.091  10.421  0.0225  0.1169 -0.5118
 8756TIP3    H150463   6.064   5.124  10.504 -0.4165  1.1543 -1.0715
 8756TIP3    H250464   6.019   5.060  10.375  0.2507 -0.3850 -0.5678
 8757TIP3   OH250465   5.143   0.491  10.759  0.1941 -0.5743 -0.2701
 8757TIP3    H150466   5.134   0.563  10.821  1.3439 -0.6576  0.0252
 8757TIP3    H250467   5.103   0.523  10.678 -2.2145 -0.8214  0.7562
 8758TIP3   OH250468   5.335   5.899  10.874  0.0963  0.1802  0.3061
 8758TIP3    H150469   5.309   5.826  10.818  1.1214  0.8232 -1.0635
 8758TIP3    H250470   5.370   5.858  10.953 -0.8915 -0.7505  0.2877
 8759TIP3   OH250471   3.672   1.890  11.831  0.3647 -0.3463  0.8377
 8759TIP3    H150472   3.596   1.833  11.842 -0.9108  1.1808  0.2701
 8759TIP3    H250473   3.744   1.830  11.808 -0.8644 -1.7261  0.4314
 8760TIP3   OH250474   2.308   1.733  10.433 -0.3048  0.2003  0.0762
 8760TIP3    H150475   2.246   1.734  10.505 -1.5466  1.3714 -0.9612
 8760TIP3    H250476   2.294   1.649  10.389 -0.4877  0.0657  0.3941
 8761TIP3   OH250477   4.235   4.352  12.480  0.0879 -0.3872 -0.0544
 8761TIP3    H150478   4.309   4.292  12.479  1.7355  1.3843  2.8052
 8761TIP3    H250479   4.264   4.428  12.430  0.3132  0.3574  1.1622
 8762TIP3   OH250480   1.461   4.882  10.805 -0.0785  0.1545 -0.2834
 8762TIP3    H150481   1.498   4.890  10.717  0.2128 -0.0976 -0.1852
 8762TIP3    H250482   1.533   4.904  10.863 -0.0748 -0.3667 -0.0885
 8763TIP3   OH250483   0.568   5.301  10.697 -0.0155 -0.6619  0.1531
 8763TIP3    H150484   0.537   5.211  10.682 -2.8407  0.3743 -1.0005
 8763TIP3    H250485   0.550   5.346  10.614  2.0605  0.8353  0.4418
 8764TIP3   OH250486   6.990   4.077  18.667 -0.1729  0.0261 -0.2517
 8764TIP3    H150487   6.985   4.106  18.576 -2.6307  2.7205  0.5689
 8764TIP3    H250488   6.960   4.153  18.717  1.5618 -1.1994  2.8725
 8765TIP3   OH250489   4.692   5.217  10.432  0.1417  0.0285  0.1038
 8765TIP3    H150490   4.667   5.124  10.437  0.2269 -0.0158 -0.2683
 8765TIP3    H250491   4.692   5.237  10.338 -0.4807  0.5779  0.2108
 8766TIP3   OH250492   0.447   7.638  12.119 -0.2497  0.1741 -0.1388
 8766TIP3    H150493   0.408   7.703  12.177 -1.8479  0.2502 -1.2330
 8766TIP3    H250494   0.473   7.567  12.178  1.7521  1.8179  1.1102
 8767TIP3   OH250495   1.287   5.663  11.356  0.3499 -1.1166 -0.1585
 8767TIP3    H150496   1.281   5.616  11.273 -1.4486 -1.5698  0.1815
 8767TIP3    H250497   1.232   5.740  11.344  0.4950 -0.9171  0.4440
 8768TIP3   OH250498   4.921   6.820  11.310  0.3236 -0.4853  0.7955
 8768TIP3    H150499   4.915   6.909  11.276 -1.4046 -0.0302  2.1500
 8768TIP3    H250500   4.919   6.764  11.232 -0.6743  0.6030  0.0017
 8769TIP3   OH250501   6.552   4.129  12.666  0.2142 -0.2147 -0.3754
 8769TIP3    H150502   6.614   4.201  12.652 -1.5411  1.3406 -0.5762
 8769TIP3    H250503   6.600   4.067  12.720  2.0215  0.7970 -0.7256
 8770TIP3   OH250504   0.538   3.065  11.024  0.3009  0.2791  0.3644
 8770TIP3    H150505   0.526   3.039  11.115  2.2902 -1.3230  0.2671
 8770TIP3    H250506   0.632   3.055  11.009  0.0787  0.8504 -1.7691
 8771TIP3   OH250507   7.124   6.344  11.641  0.5872 -0.3113 -0.2961
 8771TIP3    H150508   7.197   6.287  11.663  0.7922 -0.1714 -0.5920
 8771TIP3    H250509   7.129   6.352  11.545  0.8656  0.5932 -0.2178
 8772TIP3   OH250510   7.432   7.155  11.641  0.3270 -0.7052  0.0202
 8772TIP3    H150511   7.501   7.210  11.677 -0.9920  1.3045 -0.3487
 8772TIP3    H250512   7.471   7.115  11.563  0.7068  1.4740 -0.9766
 8773TIP3   OH250513   1.250   4.058  10.441 -0.6297  0.4095 -0.4057
 8773TIP3    H150514   1.314   4.045  10.371  1.3909 -0.4559  1.4880
 8773TIP3    H250515   1.287   4.127  10.495 -2.8655  2.0802 -0.8830
 8774TIP3   OH250516   7.402   6.319  10.734  0.3459 -0.1150  0.0728
 8774TIP3    H150517   7.307   6.312  10.739  0.4499 -0.3903  3.5683
 8774TIP3    H250518   7.434   6.231  10.757  1.4784  0.1385 -0.4486
 8775TIP3   OH250519   1.496   0.812   9.919  0.2087 -0.4126  0.3451
 8775TIP3    H150520   1.401   0.817   9.932  0.3091 -0.4096  1.1296
 8775TIP3    H250521   1.519   0.722   9.938  0.5899 -0.0204  1.8964
 8776TIP3   OH250522   1.682   3.729  16.512  0.6877 -0.3473 -0.1250
 8776TIP3    H150523   1.696   3.663  16.445  0.8797 -0.6248  0.1874
 8776TIP3    H250524   1.651   3.681  16.588 -0.1242  0.0400 -0.2031
 8777TIP3   OH250525   3.867   2.784  11.004  0.5205  0.4180  0.2823
 8777TIP3    H150526   3.897   2.752  10.919  0.3361 -1.4913  0.8774
 8777TIP3    H250527   3.771   2.774  11.000  0.4998  0.4636  0.6585
 8778TIP3   OH250528   0.594   2.886  10.433 -0.2771  0.0314 -0.7237
 8778TIP3    H150529   0.596   2.895  10.337 -0.0026 -0.4668 -0.7671
 8778TIP3    H250530   0.502   2.897  10.456 -0.3052  0.4441 -1.0178
 8779TIP3   OH250531   1.880   5.286  11.453  0.0402 -0.6242 -0.1820
 8779TIP3    H150532   1.897   5.287  11.547  1.0602  0.0666 -0.3557
 8779TIP3    H250533   1.795   5.243  11.444 -0.6702  0.4238  1.1513
 8780TIP3   OH250534   7.113   1.946  11.526 -0.2946  0.6063  0.1218
 8780TIP3    H150535   7.112   1.996  11.608  0.9796  0.4344  0.2623
 8780TIP3    H250536   7.168   1.997  11.467 -3.3106  2.1168 -1.5893
 8781TIP3   OH250537   2.119   7.537  11.723 -0.3454 -0.0317 -0.2427
 8781TIP3    H150538   2.097   7.629  11.733 -0.0609 -0.0427  0.4886
 8781TIP3    H250539   2.167   7.514  11.802  0.0738 -0.6682 -0.6707
 8782TIP3   OH250540   3.297   0.123  11.503 -0.6800  0.0526  0.1920
 8782TIP3    H150541   3.243   0.048  11.531 -0.0812 -0.6362 -0.4561
 8782TIP3    H250542   3.237   0.178  11.454 -0.5888 -1.2613 -1.4879
 8783TIP3   OH250543   6.604   1.053  12.286 -0.2906 -0.3336  0.2895
 8783TIP3    H150544   6.535   1.008  12.336 -0.8326 -0.7042 -0.7714
 8783TIP3    H250545   6.628   1.127  12.342 -2.5732  0.6448  0.0984
 8784TIP3   OH250546   2.264   4.054  11.155  0.3347  0.6038  0.0536
 8784TIP3    H150547   2.179   4.026  11.123  0.5626 -0.6064  0.4624
 8784TIP3    H250548   2.327   3.998  11.109  0.7611 -0.0267  1.3724
 8785TIP3   OH250549   1.391   6.477  10.037 -0.0374 -0.9029 -0.2700
 8785TIP3    H150550   1.303   6.510  10.020 -0.3916 -1.1808  0.9014
 8785TIP3    H250551   1.445   6.513   9.967 -0.5411  1.5185  0.5051
 8786TIP3   OH250552   1.481   1.600  12.549  0.3458  0.1044  0.3111
 8786TIP3    H150553   1.486   1.670  12.613 -2.3598 -1.5475  2.5864
 8786TIP3    H250554   1.561   1.549  12.563  1.2414  1.4208  0.1961
 8787TIP3   OH250555   0.907   7.102  12.963 -0.3750  0.0660  0.0018
 8787TIP3    H150556   0.999   7.122  12.980 -0.1765  1.0428 -1.9979
 8787TIP3    H250557   0.861   7.135  13.040  0.6855  1.9301 -0.1053
 8788TIP3   OH250558   4.953   1.502  11.911  0.2313  0.0878 -0.4288
 8788TIP3    H150559   5.000   1.515  11.994 -0.2158  1.1241 -0.3144
 8788TIP3    H250560   4.971   1.412  11.887 -0.7432 -0.7018  1.5232
 8789TIP3   OH250561   3.449   1.473  10.023 -0.1792 -0.0552  0.0002
 8789TIP3    H150562   3.446   1.509  10.112  1.0460  0.2332 -0.0582
 8789TIP3    H250563   3.533   1.426  10.019  0.3005  0.8467 -1.3275
 8790TIP3   OH250564   6.223   5.359  12.201  0.2519  0.2175 -0.4879
 8790TIP3    H150565   6.310   5.347  12.164  0.2644  3.1190 -1.6898
 8790TIP3    H250566   6.240   5.386  12.292  0.4970 -0.8092 -0.2148
 8791TIP3   OH250567   2.244   4.849  11.794  0.6219  0.0911  0.0518
 8791TIP3    H150568   2.243   4.945  11.787 -1.0563  0.0535 -0.5054
 8791TIP3    H250569   2.180   4.829  11.863 -1.1542 -0.7256 -1.7440
 8792TIP3   OH250570   1.982   4.840  11.345 -0.3275 -0.0841 -0.0293
 8792TIP3    H150571   2.039   4.768  11.316  0.6737 -0.0834  1.7821
 8792TIP3    H250572   1.949   4.811  11.430  0.2904  1.7023  0.8541
 8793TIP3   OH250573   5.899   7.206  10.812 -0.9602  0.5739 -0.5079
 8793TIP3    H150574   5.810   7.172  10.822 -0.7175  0.3575  1.0953
 8793TIP3    H250575   5.888   7.301  10.808 -1.1333  0.7616  2.3386
 8794TIP3   OH250576   1.315   2.101  11.295 -0.6589 -0.2096 -0.3451
 8794TIP3    H150577   1.360   2.083  11.212 -0.4520 -1.7733  0.0636
 8794TIP3    H250578   1.296   2.195  11.293 -1.4618 -0.3753 -2.5505
 8795TIP3   OH250579   1.557   6.973  12.111  0.6240 -0.6389 -0.0454
 8795TIP3    H150580   1.599   7.012  12.188  0.6871 -1.7756  0.5254
 8795TIP3    H250581   1.565   6.878  12.125 -0.3689 -0.8691 -0.9033
 8796TIP3   OH250582   6.567   3.383  11.283 -0.1524 -0.3706  0.2885
 8796TIP3    H150583   6.474   3.369  11.302  0.1161 -0.1321  1.9495
 8796TIP3    H250584   6.571   3.473  11.250 -0.2311  0.7093  2.9584
 8797TIP3   OH250585   0.100   6.599   9.751 -0.1165 -0.1719  0.4322
 8797TIP3    H150586   0.063   6.632   9.669 -0.2948 -0.7021  0.2925
 8797TIP3    H250587   0.058   6.514   9.763  0.5015 -0.4475  0.6705
 8798TIP3   OH250588   1.791   1.093  10.676  0.1282  0.2817 -0.5371
 8798TIP3    H150589   1.853   1.166  10.670  2.3832 -1.4755 -0.2280
 8798TIP3    H250590   1.743   1.095  10.594  1.6479  0.8442 -1.4526
 8799TIP3   OH250591   7.325   0.237  11.633  0.0910  0.1368  0.0416
 8799TIP3    H150592   7.251   0.252  11.574  0.9587  0.7358 -0.9396
 8799TIP3    H250593   7.386   0.183  11.582 -0.1033 -1.2427  1.2033
 8800TIP3   OH250594   5.538   6.539  12.197 -0.3024 -0.3105  0.0069
 8800TIP3    H150595   5.529   6.610  12.260 -0.3334  0.8008 -1.2093
 8800TIP3    H250596   5.587   6.577  12.124 -0.6954 -1.4063 -0.8680
 8801TIP3   OH250597   2.276   7.131  10.036  0.3551 -0.2238  0.2272
 8801TIP3    H150598   2.366   7.119  10.065  0.4480 -0.9124 -0.3240
 8801TIP3    H250599   2.228   7.152  10.117  0.9467 -0.1662  0.5712
 8802TIP3   OH250600   1.276   2.786  10.885  0.0117  0.0931  0.2088
 8802TIP3    H150601   1.277   2.868  10.934  3.1373 -1.3735  2.9835
 8802TIP3    H250602   1.310   2.809  10.799 -0.0600  1.8438  0.6020
 8803TIP3   OH250603   2.779   1.834  11.026  0.0170  0.4320 -0.2649
 8803TIP3    H150604   2.722   1.908  11.046  1.2023  1.4435 -0.4591
 8803TIP3    H250605   2.828   1.863  10.948  1.7224  0.1748  0.6620
 8804TIP3   OH250606   5.821   6.560   9.886  0.2392  0.3898 -0.0113
 8804TIP3    H150607   5.729   6.584   9.872  0.9589  2.9278 -1.0368
 8804TIP3    H250608   5.860   6.638   9.924  2.4625  0.2609 -1.8105
 8805TIP3   OH250609   5.396   4.862  10.701 -0.3331 -0.0005 -0.3848
 8805TIP3    H150610   5.399   4.812  10.782 -1.4900  1.9584  0.9516
 8805TIP3    H250611   5.488   4.871  10.674  0.1372 -0.0040  1.1506
 8806TIP3   OH250612   6.446   6.921  12.233 -0.4114 -0.1811 -0.1813
 8806TIP3    H150613   6.448   6.954  12.322  1.9874 -0.8581  0.0734
 8806TIP3    H250614   6.417   6.830  12.242  1.2767 -0.7208  0.1324
 8807TIP3   OH250615   0.447   2.376  12.772 -0.6357  0.4206 -0.4161
 8807TIP3    H150616   0.461   2.339  12.684 -1.4225  0.9527 -0.7734
 8807TIP3    H250617   0.398   2.457  12.756 -1.1599  0.2996  0.5562
 8808TIP3   OH250618   6.093   2.081  10.836 -0.0267  0.1566 -0.1248
 8808TIP3    H150619   6.187   2.101  10.829 -0.6880  3.2922 -2.1086
 8808TIP3    H250620   6.067   2.061  10.746 -1.3573 -0.2774  0.3427
 8809TIP3   OH250621   2.283   1.064  11.281 -0.4813 -0.0398  0.8365
 8809TIP3    H150622   2.369   1.060  11.239 -0.9038  0.7761 -0.1769
 8809TIP3    H250623   2.300   1.094  11.370  0.1565  1.9436  0.0972
 8810TIP3   OH250624   4.497   7.174  10.327 -0.1244 -0.0332  0.5622
 8810TIP3    H150625   4.486   7.080  10.335 -3.4862  0.2374  0.2927
 8810TIP3    H250626   4.416   7.211  10.360  0.9409  2.7958  0.3146
 8811TIP3   OH250627   6.011   2.883  10.783 -0.4021 -0.2884 -0.5041
 8811TIP3    H150628   5.959   2.803  10.786  0.9238 -1.1911 -0.7346
 8811TIP3    H250629   5.954   2.951  10.818 -0.8591 -1.7070  1.6794
 8812TIP3   OH250630   4.111   1.385  10.956 -0.1834  0.0905 -0.6765
 8812TIP3    H150631   4.113   1.433  11.039  0.0543 -0.1162 -0.5605
 8812TIP3    H250632   4.167   1.437  10.898 -0.2873  0.1935 -0.6863
 8813TIP3   OH250633   6.496   0.566  10.766 -0.6566  0.0746 -0.5537
 8813TIP3    H150634   6.505   0.515  10.847  2.4275 -0.8561 -1.3488
 8813TIP3    H250635   6.402   0.576  10.755 -1.4556 -4.2074  0.4891
 8814TIP3   OH250636   3.658   6.736   9.784 -0.5031  0.5396  0.2657
 8814TIP3    H150637   3.678   6.807   9.723 -1.0392 -0.2507 -0.8682
 8814TIP3    H250638   3.563   6.722   9.774 -0.0976 -1.6899 -1.0781
 8815TIP3   OH250639   7.437   4.752  12.786  0.0474  0.4193  0.1648
 8815TIP3    H150640   7.478   4.696  12.720 -0.8292  1.1492 -1.0364
 8815TIP3    H250641   7.343   4.731  12.780  0.0447 -0.2691  1.9393
 8816TIP3   OH250642   2.159   1.393  11.908 -0.4088 -0.4374  0.8077
 8816TIP3    H150643   2.089   1.437  11.957 -0.9589 -0.5718  0.1429
 8816TIP3    H250644   2.146   1.300  11.926 -0.0629 -0.4314  1.1181
 8817TIP3   OH250645   1.035   6.804  12.388 -0.0749 -0.0566 -0.0658
 8817TIP3    H150646   1.076   6.744  12.327  1.1781  0.9215 -0.2239
 8817TIP3    H250647   1.014   6.882  12.336 -1.0074 -0.0608  0.2834
 8818TIP3   OH250648   3.664   2.368  11.124  0.2024 -0.0254  0.1051
 8818TIP3    H150649   3.643   2.419  11.203 -2.4298 -0.0890 -0.4747
 8818TIP3    H250650   3.675   2.434  11.055  2.5730  0.0362  0.4324
 8819TIP3   OH250651   1.446   7.528  12.403 -0.4073 -0.0117  0.1961
 8819TIP3    H150652   1.397   7.459  12.449 -2.7316 -0.5110 -2.7301
 8819TIP3    H250653   1.472   7.488  12.320 -0.1972  2.0884 -0.8157
 8820TIP3   OH250654   3.818   7.157  10.311  0.3818 -0.5249  0.0886
 8820TIP3    H150655   3.751   7.197  10.255  0.3924 -0.7306 -0.0741
 8820TIP3    H250656   3.898   7.160  10.259  0.1522 -1.7599 -0.3907
 8821TIP3   OH250657   1.216   4.167  12.057 -0.0532 -0.2972 -0.7099
 8821TIP3    H150658   1.238   4.133  12.143  0.3793  0.1173 -0.6541
 8821TIP3    H250659   1.241   4.098  11.996 -0.4261 -0.6194 -0.5013
 8822TIP3   OH250660   1.613   0.452  12.873 -0.3336 -0.0409  0.2223
 8822TIP3    H150661   1.619   0.541  12.840  0.5436 -0.6471 -1.4106
 8822TIP3    H250662   1.680   0.447  12.942 -0.0975  0.4484  0.0308
 8823TIP3   OH250663   0.878   3.733  10.846  0.3535  0.2207 -0.1991
 8823TIP3    H150664   0.830   3.709  10.767 -1.2040 -0.6252  0.9487
 8823TIP3    H250665   0.902   3.824  10.832 -1.8287  0.7854 -0.7792
 8824TIP3   OH250666   5.465   1.288  10.724  0.1095  0.2689  0.1734
 8824TIP3    H150667   5.412   1.368  10.731  0.4731  0.5161  0.1545
 8824TIP3    H250668   5.550   1.313  10.759  0.6137  0.2654 -0.9902
 8825TIP3   OH250669   4.029   6.512  11.495  0.1431 -0.1868 -0.2619
 8825TIP3    H150670   4.055   6.432  11.449 -1.1864 -0.7748 -0.0143
 8825TIP3    H250671   4.063   6.501  11.584 -0.0073 -0.4629 -0.2385
 8826TIP3   OH250672   2.430   5.926  10.461 -0.0629 -0.1941  0.2627
 8826TIP3    H150673   2.439   5.865  10.388  0.6486  1.7373 -1.3432
 8826TIP3    H250674   2.337   5.923  10.484 -0.9279  1.1174 -2.5860
 8827TIP3   OH250675   5.006   1.799  10.584  0.3956  0.0539  0.0608
 8827TIP3    H150676   5.006   1.864  10.514  0.5162  0.2235  0.2193
 8827TIP3    H250677   4.945   1.834  10.649 -0.0171 -0.2919 -0.1336
 8828TIP3   OH250678   7.436   6.815  11.674 -0.5050  0.2823  0.4239
 8828TIP3    H150679   7.408   6.902  11.702  1.1896  0.8890  0.3074
 8828TIP3    H250680   7.445   6.822  11.579 -1.8404 -0.4925  0.2056
 8829TIP3   OH250681   7.155   4.561  12.888 -0.1094 -0.5999  0.5209
 8829TIP3    H150682   7.097   4.586  12.959  0.5439  0.6546  0.6596
 8829TIP3    H250683   7.147   4.633  12.824 -0.8321 -1.7877 -0.7870
 8830TIP3   OH250684   7.379   3.042  11.256 -0.1515  0.5289  0.0934
 8830TIP3    H150685   7.367   3.067  11.348  1.0114 -0.3022  0.4928
 8830TIP3    H250686   7.466   3.004  11.253 -0.5660 -0.3800 -1.1732
 8831TIP3   OH250687   6.100   3.430  10.533 -0.1150 -0.4887 -0.0779
 8831TIP3    H150688   6.093   3.335  10.528 -0.6163 -0.6334  2.2326
 8831TIP3    H250689   6.174   3.446  10.592 -0.3929  0.5337  0.0188
 8832TIP3   OH250690   0.970   6.095  11.997 -0.0566  0.3746  0.2456
 8832TIP3    H150691   0.968   6.011  12.044  1.1478  1.1042  1.6733
 8832TIP3    H250692   0.882   6.131  12.010 -0.7778 -0.8726 -0.8579
 8833TIP3   OH250693   1.381   6.170  11.371  0.2177  0.2731 -0.5838
 8833TIP3    H150694   1.435   6.127  11.305  0.6343  1.7174 -1.2396
 8833TIP3    H250695   1.407   6.262  11.366 -0.1061  0.4998  1.2644
 8834TIP3   OH250696   2.393   2.372  10.474  0.6116  0.2195 -0.0828
 8834TIP3    H150697   2.440   2.421  10.406 -1.2493  1.7782 -0.3558
 8834TIP3    H250698   2.357   2.296  10.429  1.0392  0.1925 -0.3803
 8835TIP3   OH250699   0.900   1.321  11.293  0.2361 -0.8177 -0.0031
 8835TIP3    H150700   0.830   1.345  11.354 -0.0247 -2.1727  0.2579
 8835TIP3    H250701   0.977   1.369  11.324 -0.5589  0.6915 -0.2931
 8836TIP3   OH250702   2.262   3.564  11.434 -0.2471 -0.2308 -0.2729
 8836TIP3    H150703   2.211   3.505  11.489  0.7838 -1.4183 -0.5550
 8836TIP3    H250704   2.196   3.616  11.388 -1.1844 -1.2167 -0.0842
 8837TIP3   OH250705   4.811   6.263  11.692  0.0905 -0.1569 -0.5237
 8837TIP3    H150706   4.891   6.223  11.659 -0.6629 -0.2768 -2.3314
 8837TIP3    H250707   4.835   6.352  11.715  0.8571 -0.3762 -0.4650
 8838TIP3   OH250708   5.437   6.440   9.995 -0.1324  0.4829  0.0970
 8838TIP3    H150709   5.363   6.436   9.935  0.5141 -0.6582 -0.6552
 8838TIP3    H250710   5.434   6.358  10.043  0.5965  0.4628  0.1233
 8839TIP3   OH250711   5.140   0.997  10.296  0.2732  0.1716  0.2159
 8839TIP3    H150712   5.199   0.938  10.249  0.3304 -0.1741  0.7128
 8839TIP3    H250713   5.068   1.012  10.235  0.0174 -0.8032  0.2551
 8840TIP3   OH250714   1.887   1.103  12.283 -0.4375 -0.3179  0.3092
 8840TIP3    H150715   1.841   1.020  12.269 -0.5115 -0.2756  0.3059
 8840TIP3    H250716   1.818   1.168  12.295 -0.6167  0.5360 -3.7322
 8841TIP3   OH250717   0.560   2.400  10.157  0.1719 -0.3373  0.0291
 8841TIP3    H150718   0.539   2.312  10.189 -1.0715 -0.2636 -0.5167
 8841TIP3    H250719   0.580   2.388  10.064  0.2532 -0.0827  0.0126
 8842TIP3   OH250720   0.551   6.010  10.263 -0.4171 -0.0995  0.1422
 8842TIP3    H150721   0.480   6.073  10.277 -0.1599  0.3693 -0.5807
 8842TIP3    H250722   0.573   6.020  10.170  0.1305 -0.7290  0.1993
 8843TIP3   OH250723   0.700   6.373   9.998 -0.1080 -0.1916 -1.0287
 8843TIP3    H150724   0.646   6.336   9.928 -1.3144 -2.9548  1.1307
 8843TIP3    H250725   0.660   6.457  10.018 -1.5781 -0.7201 -1.6500
 8844TIP3   OH250726   0.963   6.969  12.138  0.2172 -1.0190 -0.1271
 8844TIP3    H150727   0.904   7.045  12.137  1.1286 -0.2858  0.3094
 8844TIP3    H250728   1.043   7.000  12.094  1.1442 -1.2629  1.3151
 8845TIP3   OH250729   4.309   1.677  12.116  0.4405  0.2380  0.0990
 8845TIP3    H150730   4.235   1.628  12.081 -0.7778  1.4366  0.9412
 8845TIP3    H250731   4.271   1.736  12.181  1.8652  2.2809 -0.8395
 8846TIP3   OH250732   3.109   0.097   9.579 -0.0899 -0.2405 -0.0711
 8846TIP3    H150733   3.046   0.035   9.618  0.8354 -0.9179  0.3873
 8846TIP3    H250734   3.056   0.175   9.559 -0.6249  0.2129  2.6817
 8847TIP3   OH250735   2.129   7.475  11.448 -0.6926  0.5923 -0.6087
 8847TIP3    H150736   2.123   7.519  11.533 -0.1735  1.1709 -0.8587
 8847TIP3    H250737   2.181   7.396  11.465  2.6792  2.5133 -0.9999
 8848TIP3   OH250738   6.749   0.140  12.023 -0.2048  0.1021 -0.1403
 8848TIP3    H150739   6.789   0.159  11.939  1.1275  2.6612  0.9556
 8848TIP3    H250740   6.681   0.206  12.034 -0.5829 -0.3931  0.6571
 8849TIP3   OH250741   6.254   7.274  10.501 -0.2141  0.1250 -0.0441
 8849TIP3    H150742   6.194   7.249  10.571 -0.3175  0.2280 -0.0935
 8849TIP3    H250743   6.341   7.256  10.535 -0.2234  0.8681  0.3942
 8850TIP3   OH250744   1.990   1.923  10.940  0.4086  0.0693 -0.0961
 8850TIP3    H150745   1.998   1.958  11.028 -0.4900 -0.0969  0.0597
 8850TIP3    H250746   2.076   1.887  10.921  0.3317 -0.8083  1.1103
 8851TIP3   OH250747   4.825   6.563  11.685  0.3818  0.4637 -0.5523
 8851TIP3    H150748   4.815   6.634  11.621 -0.5012  0.2374 -0.6891
 8851TIP3    H250749   4.890   6.595  11.747  1.3088  0.6702 -1.5913
 8852TIP3   OH250750   0.537   2.016  11.286 -0.4621 -0.2061  0.4589
 8852TIP3    H150751   0.552   2.083  11.219 -0.4854 -0.1523  0.5083
 8852TIP3    H250752   0.454   2.039  11.326 -0.2166  0.0323  0.8332
 8853TIP3   OH250753   0.343   3.919  12.471 -0.2907 -0.6565  0.4634
 8853TIP3    H150754   0.268   3.976  12.453  1.1920  0.2861 -4.0328
 8853TIP3    H250755   0.308   3.830  12.464 -1.4979 -0.3110  1.6072
 8854TIP3   OH250756   5.739   0.954  10.736  0.5260  0.4433  0.0083
 8854TIP3    H150757   5.785   0.973  10.818  0.3934  0.6686  0.0299
 8854TIP3    H250758   5.763   1.026  10.678 -0.2500  0.8703  0.2020
 8855TIP3   OH250759   4.566   2.183  11.642  0.4317 -0.4508  0.5897
 8855TIP3    H150760   4.614   2.116  11.690  1.5302 -0.1029 -0.0007
 8855TIP3    H250761   4.560   2.148  11.552  1.2353  0.3472  0.2184
 8856TIP3   OH250762   7.001   0.807  10.500 -0.0199 -0.0713  0.1141
 8856TIP3    H150763   6.953   0.793  10.582  0.7168 -2.3502  0.2326
 8856TIP3    H250764   6.954   0.756  10.435  1.9785 -2.1574  0.1740
 8857TIP3   OH250765   0.643   3.369  11.468  0.0348  0.2283 -0.0905
 8857TIP3    H150766   0.566   3.318  11.493  1.1482 -0.9900  1.0589
 8857TIP3    H250767   0.634   3.383  11.374 -1.2766 -0.4206 -0.0779
 8858TIP3   OH250768   1.031   1.505  10.359  0.2354 -0.2875 -0.0877
 8858TIP3    H150769   1.086   1.498  10.437  0.6737 -0.4182 -0.4035
 8858TIP3    H250770   0.997   1.416  10.346 -0.0037 -0.2211  0.0701
 8859TIP3   OH250771   3.818   1.718  11.046 -0.2661  0.2493  0.1156
 8859TIP3    H150772   3.867   1.709  11.127  0.9005 -0.7534 -0.6731
 8859TIP3    H250773   3.760   1.642  11.044  0.5061 -0.3280 -0.5160
 8860TIP3   OH250774   5.630   4.656  10.433  1.0822 -0.4950 -0.2269
 8860TIP3    H150775   5.673   4.674  10.349 -0.7306 -0.0393 -1.1114
 8860TIP3    H250776   5.585   4.738  10.455  1.7348 -0.5245  1.3446
 8861TIP3   OH250777   3.919   3.074  10.656 -0.2904  0.1238 -0.0960
 8861TIP3    H150778   3.874   3.085  10.740 -1.1249  0.4753 -0.5779
 8861TIP3    H250779   4.005   3.040  10.680 -1.5982 -3.0565  0.7789
 8862TIP3   OH250780   4.787   3.212  11.091  0.0478 -0.1391 -0.3686
 8862TIP3    H150781   4.793   3.279  11.159  0.2205  0.6580 -1.1475
 8862TIP3    H250782   4.708   3.234  11.041 -0.9533 -1.6145  0.4800
 8863TIP3   OH250783   0.109   6.902  11.078  0.0773  0.0160 -0.2001
 8863TIP3    H150784   0.050   6.938  11.011 -1.6096  0.3354  1.3710
 8863TIP3    H250785   0.093   6.955  11.156  1.3054 -0.9153  0.7401
 8864TIP3   OH250786   6.592   3.145  10.929 -0.0554 -0.1498 -0.4641
 8864TIP3    H150787   6.640   3.063  10.918  0.5874  0.2273 -0.5708
 8864TIP3    H250788   6.517   3.123  10.984  0.5540 -0.6457  0.1789
 8865TIP3   OH250789   6.891   2.505  10.081 -0.0575 -0.1735 -0.1947
 8865TIP3    H150790   6.853   2.436  10.135  1.5321 -2.5180 -1.8636
 8865TIP3    H250791   6.826   2.521  10.012 -0.1489 -0.4977 -0.1845
 8866TIP3   OH250792   1.593   4.032  11.827 -0.2482  0.4324 -0.0867
 8866TIP3    H150793   1.663   4.011  11.889  0.2002  0.9585 -0.4102
 8866TIP3    H250794   1.591   3.958  11.767  2.0421  1.6943 -1.8731
 8867TIP3   OH250795   2.668   4.566  10.536 -0.1267  0.5748  0.5081
 8867TIP3    H150796   2.601   4.588  10.601 -1.2215 -1.6847  0.2143
 8867TIP3    H250797   2.725   4.504  10.581 -0.6801 -0.7299 -0.5398
 8868TIP3   OH250798   1.514   1.065  12.845 -0.2986 -0.5753 -0.2789
 8868TIP3    H150799   1.584   1.064  12.910  0.2037 -1.1410 -0.8164
 8868TIP3    H250800   1.434   1.047  12.896  0.4086 -3.9870 -0.1368
 8869TIP3   OH250801   1.990   4.739  12.263 -0.0851 -0.4143  0.3623
 8869TIP3    H150802   1.961   4.794  12.336 -0.3172 -1.3445  0.9903
 8869TIP3    H250803   1.964   4.650  12.288  0.2599 -0.8124 -0.6392
 8870TIP3   OH250804   2.759   4.281  10.228  0.6393 -0.3733  0.3292
 8870TIP3    H150805   2.816   4.322  10.163 -0.7991  1.5203  0.1799
 8870TIP3    H250806   2.799   4.196  10.245  0.9871 -1.0765 -3.2045
 8871TIP3   OH250807   6.105   3.106  11.945  0.0323  0.0754 -0.3242
 8871TIP3    H150808   6.084   3.141  12.031 -1.1662  2.6041 -1.5488
 8871TIP3    H250809   6.118   3.012  11.960 -1.2048  0.2410  2.4000
 8872TIP3   OH250810   1.438   6.300  10.617  0.1429 -0.3348 -0.0907
 8872TIP3    H150811   1.363   6.256  10.658 -0.4609  0.6692 -0.0865
 8872TIP3    H250812   1.440   6.266  10.527  1.1439 -2.1394  0.5706
 8873TIP3   OH250813   0.164   5.406  11.230  0.4378  0.1768 -0.1012
 8873TIP3    H150814   0.230   5.473  11.208  0.0157  0.5022 -0.3901
 8873TIP3    H250815   0.123   5.438  11.310 -0.8243  1.0592 -1.0693
 8874TIP3   OH250816   0.631   1.422  12.617  0.0175  0.2321  0.1763
 8874TIP3    H150817   0.676   1.480  12.555  0.7845 -1.6208 -1.0851
 8874TIP3    H250818   0.579   1.364  12.562 -1.3398  0.1801  1.4541
 8875TIP3   OH250819   4.751   4.319  10.989  0.3945 -0.1884 -0.7163
 8875TIP3    H150820   4.709   4.280  10.913 -0.0924 -0.9310 -0.0778
 8875TIP3    H250821   4.695   4.393  11.012 -0.2175 -0.7749 -0.2737
 8876TIP3   OH250822   1.145   7.106  11.525 -0.3416 -0.1860  0.3497
 8876TIP3    H150823   1.071   7.097  11.465 -0.2943  1.3130  0.0160
 8876TIP3    H250824   1.212   7.047  11.491 -0.2033  0.8520 -1.2975
 8877TIP3   OH250825   5.159   3.659  11.056 -0.5213  0.2356  0.1207
 8877TIP3    H150826   5.176   3.650  11.150  0.2412 -1.1764 -0.1274
 8877TIP3    H250827   5.231   3.712  11.024 -0.7762  0.7109  0.3253
 8878TIP3   OH250828   6.830   0.966  11.008 -0.4840  0.1275 -0.1959
 8878TIP3    H150829   6.863   0.924  11.087 -1.8787  0.9861  0.8741
 8878TIP3    H250830   6.783   0.897  10.961 -1.6195  0.1389  0.8881
 8879TIP3   OH250831   3.347   5.089  17.242  0.4275  0.2521  0.0807
 8879TIP3    H150832   3.414   5.021  17.241  0.8040  0.4950  2.6860
 8879TIP3    H250833   3.386   5.162  17.195  1.8999  0.2653  1.2540
 8880TIP3   OH250834   3.552   0.039  11.479 -0.2503  0.6043  0.0823
 8880TIP3    H150835   3.540  -0.043  11.432 -0.4734 -0.7503  2.3306
 8880TIP3    H250836   3.464   0.074  11.491 -0.2160  0.8184 -0.2978
 8881TIP3   OH250837   5.920   0.739  12.201  0.0593  0.3420 -0.4525
 8881TIP3    H150838   5.902   0.832  12.192 -0.0147  0.2550 -1.3688
 8881TIP3    H250839   5.955   0.713  12.115 -1.5329 -0.8235 -0.7924
 8882TIP3   OH250840   2.022   6.869  11.899 -0.1696 -0.9779 -0.3195
 8882TIP3    H150841   2.113   6.897  11.909 -0.1276 -1.5571  1.2324
 8882TIP3    H250842   2.021   6.781  11.935 -1.8726  0.0430  2.4291
 8883TIP3   OH250843   7.060   5.021  11.159  0.1498 -0.3033 -0.1490
 8883TIP3    H150844   7.124   5.001  11.091  0.5730  0.0982  0.1260
 8883TIP3    H250845   7.077   4.957  11.228 -0.5752 -1.0033 -0.5957
 8884TIP3   OH250846   3.637   4.694  10.122 -0.2072 -0.3690  0.5266
 8884TIP3    H150847   3.545   4.720  10.128 -0.0653 -0.1023  1.9231
 8884TIP3    H250848   3.635   4.601  10.102 -0.7962 -0.4929  1.1377
 8885TIP3   OH250849   2.670   5.504  12.287 -0.7300 -0.0359  0.0818
 8885TIP3    H150850   2.747   5.449  12.306  0.5931  1.7969  0.2940
 8885TIP3    H250851   2.655   5.490  12.193  1.4037  1.3423 -0.5444
 8886TIP3   OH250852   1.770   0.889  10.280 -0.0917  0.0518 -0.1088
 8886TIP3    H150853   1.721   0.971  10.277 -2.4023 -1.2341 -0.1138
 8886TIP3    H250854   1.758   0.851  10.193  0.4784 -0.5522  0.0661
 8887TIP3   OH250855   2.129   7.247  10.282  1.0177 -0.0538  0.2063
 8887TIP3    H150856   2.155   7.331  10.320  0.4029  0.6065 -0.7911
 8887TIP3    H250857   2.060   7.269  10.220  2.1401 -1.0597 -1.4591
 8888TIP3   OH250858   0.057   4.460  12.063  0.3244 -0.5260  0.1183
 8888TIP3    H150859  -0.030   4.499  12.054  0.9429  0.5550 -1.5531
 8888TIP3    H250860   0.114   4.515  12.010  2.2566 -0.5910  1.9965
 8889TIP3   OH250861   1.912   5.898  10.828  0.0677 -0.2296 -0.5291
 8889TIP3    H150862   1.896   5.855  10.912 -0.1467  0.3381 -0.2733
 8889TIP3    H250863   1.869   5.984  10.836  2.6363  1.1114 -0.0548
 8890TIP3   OH250864   1.882   3.334  11.113 -0.6989 -0.1532  0.5272
 8890TIP3    H150865   1.861   3.283  11.191  2.7058 -0.8552  1.1621
 8890TIP3    H250866   1.858   3.278  11.040 -0.2615 -1.2293  1.1818
 8891TIP3   OH250867   2.652   5.179  11.341  0.0283  0.4907 -0.1340
 8891TIP3    H150868   2.571   5.214  11.378 -0.7942 -1.4739  0.0707
 8891TIP3    H250869   2.663   5.226  11.258 -2.0376 -0.0420 -0.7780
 8892TIP3   OH250870   3.074   4.292  11.306 -0.1653  0.0518  0.3797
 8892TIP3    H150871   3.061   4.352  11.232 -0.1547  0.3595  0.6261
 8892TIP3    H250872   3.065   4.347  11.384 -2.7796 -0.6780  0.7086
 8893TIP3   OH250873   1.565   4.694  11.017  0.0579 -0.3060  0.6753
 8893TIP3    H150874   1.628   4.737  11.076 -0.2295  2.1706 -0.6944
 8893TIP3    H250875   1.485   4.746  11.025 -0.3758 -0.6763 -0.9523
 8894TIP3   OH250876   0.945   6.604  11.509  0.1388  0.1438 -0.0692
 8894TIP3    H150877   0.856   6.631  11.532 -0.3177 -0.1010 -1.4284
 8894TIP3    H250878   0.977   6.560  11.587 -0.8654  0.4057  0.5172
 8895TIP3   OH250879   0.905   2.770  11.038 -0.0962  0.3166 -0.5313
 8895TIP3    H150880   0.813   2.751  11.024 -0.0867 -0.3059  0.1525
 8895TIP3    H250881   0.950   2.687  11.022  0.2888  0.4874 -0.3655
 8896TIP3   OH250882   1.266   1.087  11.971 -0.2109  0.0066 -0.2568
 8896TIP3    H150883   1.286   1.031  12.046  0.9414 -0.3006 -0.7608
 8896TIP3    H250884   1.196   1.145  12.002  1.0078  0.6725  1.4641
 8897TIP3   OH250885   1.084   6.143  11.147  0.1478 -0.1110  0.3714
 8897TIP3    H150886   1.114   6.114  11.060 -2.4329 -0.5496 -0.4586
 8897TIP3    H250887   1.123   6.230  11.158  0.1168  0.1896 -1.4919
 8898TIP3   OH250888   6.954   0.005  11.004 -0.3009 -0.3566 -0.9565
 8898TIP3    H150889   6.964  -0.030  11.093 -1.7408 -0.8856 -0.9703
 8898TIP3    H250890   7.029  -0.030  10.956 -1.3453 -2.9989 -0.8106
 8899TIP3   OH250891   2.389   5.438  10.148 -0.1130 -0.3660  0.6341
 8899TIP3    H150892   2.409   5.522  10.105  0.5324 -0.5376  0.5950
 8899TIP3    H250893   2.318   5.459  10.208 -0.1157  0.1662  0.4549
 8900TIP3   OH250894   0.649   7.331  11.310 -0.0105 -0.2171  0.2055
 8900TIP3    H150895   0.738   7.356  11.337  0.8652 -0.7130 -2.0251
 8900TIP3    H250896   0.603   7.415  11.300  0.8047  0.1706 -0.4698
 8901TIP3   OH250897   0.141   3.435  11.453  0.6626  0.1544  0.1734
 8901TIP3    H150898   0.224   3.483  11.454 -0.4873  2.3216 -1.0033
 8901TIP3    H250899   0.093   3.468  11.529  0.4142 -0.2160  0.1823
 8902TIP3   OH250900   1.501   0.290  11.563 -0.0599 -0.7171 -0.0116
 8902TIP3    H150901   1.593   0.274  11.540 -0.4420 -2.0454 -0.6436
 8902TIP3    H250902   1.462   0.325  11.483 -0.1401 -0.2266  0.2350
 8903TIP3   OH250903   6.958   6.048  10.751 -0.1070  0.4320  0.2183
 8903TIP3    H150904   6.924   6.067  10.664  2.4194  0.6151 -0.8330
 8903TIP3    H250905   6.908   5.971  10.780 -2.0384  1.2763 -0.6893
 8904TIP3   OH250906   6.588   7.498  11.440  0.6947 -0.6658 -0.0344
 8904TIP3    H150907   6.525   7.558  11.401  1.0911 -1.4959 -2.1057
 8904TIP3    H250908   6.541   7.456  11.512  0.2546  1.6526  1.1178
 8905TIP3   OH250909   4.845   0.893  11.371  0.5828  0.3546  0.3392
 8905TIP3    H150910   4.900   0.845  11.434  0.2502 -0.0494  0.3298
 8905TIP3    H250911   4.904   0.957  11.331  0.9249  0.2614  0.6871
 8906TIP3   OH250912   5.927   7.026  12.096 -0.1331 -0.3502  0.3189
 8906TIP3    H150913   5.969   7.029  12.182 -1.6227  2.9045  1.0746
 8906TIP3    H250914   5.995   6.994  12.037  1.6687 -0.4310  2.3206
 8907TIP3   OH250915   6.228   4.698  10.146  0.0979 -0.2373 -0.4916
 8907TIP3    H150916   6.314   4.673  10.113 -0.9884 -1.5416 -2.5430
 8907TIP3    H250917   6.234   4.793  10.157  2.2457 -0.4643  0.9685
 8908TIP3   OH250918   1.132   1.246  11.598  0.4260  0.3347  0.3025
 8908TIP3    H150919   1.140   1.195  11.679  0.3059  1.1024  0.8058
 8908TIP3    H250920   1.118   1.336  11.628 -0.6289  0.4778 -0.5576
 8909TIP3   OH250921   1.219   6.228  11.577 -0.0301  0.1433 -0.2311
 8909TIP3    H150922   1.282   6.212  11.506 -0.5340 -1.5502 -0.3411
 8909TIP3    H250923   1.137   6.249  11.531 -0.7728 -2.4816 -0.2937
 8910TIP3   OH250924   3.994   1.193  10.730 -0.0431 -0.3823 -0.5680
 8910TIP3    H150925   4.000   1.216  10.822  1.5033  2.1182 -1.2089
 8910TIP3    H250926   4.008   1.098  10.728 -0.9832 -0.6329  1.7955
 8911TIP3   OH250927   0.578   3.635  10.946 -0.2047  0.2241 -0.0978
 8911TIP3    H150928   0.669   3.617  10.972  0.6640  0.4796 -2.6771
 8911TIP3    H250929   0.540   3.548  10.932 -0.1149  0.1319  0.2206
 8912TIP3   OH250930   3.171   5.664  10.685 -0.2992 -0.9590  0.3687
 8912TIP3    H150931   3.082   5.682  10.714 -0.0011 -0.7277  1.1493
 8912TIP3    H250932   3.166   5.670  10.589 -1.0044 -0.4155  0.4307
 8913TIP3   OH250933   6.433   0.772  11.085 -0.3044 -0.3930  0.0413
 8913TIP3    H150934   6.341   0.795  11.075 -0.7513 -2.2263 -0.5703
 8913TIP3    H250935   6.433   0.702  11.150  0.1948 -2.6936 -2.2625
 8914TIP3   OH250936   3.309   3.734  12.042  0.0559 -0.2166  0.1467
 8914TIP3    H150937   3.303   3.659  12.101  0.3133 -0.6419 -0.3593
 8914TIP3    H250938   3.280   3.701  11.958 -0.2936  0.3827  0.0254
 8915TIP3   OH250939   0.049   3.362  10.255  0.2698 -0.3471 -0.2926
 8915TIP3    H150940   0.076   3.397  10.170 -0.5333 -1.5359 -1.0656
 8915TIP3    H250941   0.074   3.430  10.318  0.7305  0.6276 -1.4884
 8916TIP3   OH250942   2.746   4.754  11.758 -0.3727 -0.1241  0.5512
 8916TIP3    H150943   2.667   4.794  11.794 -0.7627 -0.5001  0.1314
 8916TIP3    H250944   2.715   4.674  11.717 -0.1318  0.7856 -1.5452
 8917TIP3   OH250945   3.614   4.979  10.459 -0.1385 -0.0771 -0.4176
 8917TIP3    H150946   3.660   4.989  10.542  0.9491  0.7862 -1.1079
 8917TIP3    H250947   3.657   4.905  10.417 -0.3555 -0.1934 -0.4361
 8918TIP3   OH250948   0.052   7.457  12.429  0.2459 -0.0619  0.1896
 8918TIP3    H150949   0.035   7.548  12.403  0.1851  0.0484  0.6027
 8918TIP3    H250950  -0.012   7.405  12.381 -0.7069  0.2635  1.0869
 8919TIP3   OH250951   3.701   5.141  10.963 -0.2596 -0.1406  0.5557
 8919TIP3    H150952   3.660   5.223  10.935  1.3673  1.0184  1.3660
 8919TIP3    H250953   3.629   5.086  10.994 -1.7835 -0.3165 -2.9322
 8920TIP3   OH250954   6.769   2.302  10.255 -0.4895 -0.0700  0.4797
 8920TIP3    H150955   6.703   2.267  10.195  1.7838  0.5772 -2.6430
 8920TIP3    H250956   6.842   2.242  10.247  1.5941  2.4576 -1.0883
 8921TIP3   OH250957   0.770   2.046  10.233 -0.6821  0.3323  0.5384
 8921TIP3    H150958   0.788   2.044  10.327  1.8627  2.0052  0.1838
 8921TIP3    H250959   0.783   1.956  10.203 -0.2912  0.0267  1.5953
 8922TIP3   OH250960   7.158   7.108  11.994  0.4867 -0.1702  0.3356
 8922TIP3    H150961   7.109   7.179  11.951 -0.7140 -1.5946 -0.7765
 8922TIP3    H250962   7.198   7.060  11.921  0.2511 -1.3512  0.9696
 8923TIP3   OH250963   3.363   7.115  11.473  0.3447  0.1597 -0.2103
 8923TIP3    H150964   3.300   7.109  11.545 -0.2322 -0.6546 -0.7657
 8923TIP3    H250965   3.309   7.132  11.396  0.9341  0.8006 -0.4956
 8924TIP3   OH250966   1.600   1.284  12.504  0.0602  0.2003  0.0293
 8924TIP3    H150967   1.543   1.311  12.576 -0.3672 -0.0577 -0.2132
 8924TIP3    H250968   1.542   1.243  12.441  0.5567 -0.3084 -0.1009
 8925TIP3   OH250969   7.250   0.165  10.766 -0.7092 -0.0271 -0.2473
 8925TIP3    H150970   7.199   0.167  10.685 -0.3907  1.5265 -0.4377
 8925TIP3    H250971   7.251   0.073  10.792 -0.5552 -0.5961 -2.1767
 8926TIP3   OH250972   0.214   2.673  11.180  0.5493 -0.7527 -0.2276
 8926TIP3    H150973   0.211   2.668  11.085 -1.3815 -1.4489 -0.1767
 8926TIP3    H250974   0.188   2.763  11.201  0.3206 -0.7879 -0.3573
 8927TIP3   OH250975   0.490   0.634  12.060  0.0065 -0.0459  0.1034
 8927TIP3    H150976   0.438   0.569  12.107 -1.6853  0.4724 -0.9317
 8927TIP3    H250977   0.556   0.583  12.013 -0.1953 -0.8422  0.6659
 8928TIP3   OH250978   6.433   0.632  10.024  0.5324  0.1074 -0.2116
 8928TIP3    H150979   6.414   0.569  10.094 -0.6226  0.1088 -0.5001
 8928TIP3    H250980   6.355   0.686  10.019  0.9194  0.6083 -0.9872
 8929TIP3   OH250981   6.565   3.761  12.679 -0.5098  0.1754 -0.1294
 8929TIP3    H150982   6.626   3.797  12.743  0.8602 -0.1767 -1.1838
 8929TIP3    H250983   6.620   3.710  12.619 -1.9578 -0.8772 -0.6271
 8930TIP3   OH250984   4.235   3.099  10.498 -0.8231  0.2200  0.1106
 8930TIP3    H150985   4.327   3.116  10.518 -0.7869  1.1046 -0.7112
 8930TIP3    H250986   4.227   3.120  10.405 -0.7949 -4.3861 -1.1624
 8931TIP3   OH250987   5.338   6.566  10.681  0.0108 -0.2676 -0.2682
 8931TIP3    H150988   5.407   6.515  10.723 -0.4734  0.7906  1.9826
 8931TIP3    H250989   5.278   6.588  10.752 -0.7656  1.8614 -1.4839
 8932TIP3   OH250990   7.676   7.045  11.268 -0.3030  0.3751 -0.4698
 8932TIP3    H150991   7.691   7.084  11.354 -1.5581 -1.0436  0.4393
 8932TIP3    H250992   7.587   7.069  11.245  0.4138  1.8002 -2.0112
 8933TIP3   OH250993   3.757   0.972  12.416  0.2970  0.1019  0.1743
 8933TIP3    H150994   3.753   0.915  12.493  0.9237  0.6898  0.6584
 8933TIP3    H250995   3.745   1.061  12.450 -1.2361  0.2381 -0.6418
 8934TIP3   OH250996   7.418   5.960  11.729 -0.2075  0.0065  0.5347
 8934TIP3    H150997   7.421   5.916  11.644  1.8384  3.3792 -1.3646
 8934TIP3    H250998   7.341   6.017  11.724  0.7465  1.3062  0.2737
 8935TIP3   OH250999   2.906   7.189  10.570  0.4848  0.4925  0.4741
 8935TIP3    H151000   2.820   7.227  10.557  0.3307  0.2596  0.7996
 8935TIP3    H251001   2.967   7.262  10.560  0.3334  0.4622 -0.8117
 8936TIP3   OH251002   0.526   6.513  11.909  0.0786  0.1411  0.1480
 8936TIP3    H151003   0.567   6.477  11.987  0.6700  1.3030  0.4048
 8936TIP3    H251004   0.591   6.503  11.839 -1.2661 -2.9360 -0.8111
 8937TIP3   OH251005   5.828   0.505  10.772 -0.0827  0.2831 -0.1185
 8937TIP3    H151006   5.752   0.564  10.768 -0.6042 -0.4103 -0.7300
 8937TIP3    H251007   5.901   0.562  10.797 -0.7918  0.9709  0.4407
 8938TIP3   OH251008   5.564   2.206  11.430 -0.3019 -0.0775  0.0498
 8938TIP3    H151009   5.621   2.136  11.461 -0.5590  0.6926  2.4321
 8938TIP3    H251010   5.621   2.259  11.374  0.4723 -1.0009 -0.0676
 8939TIP3   OH251011   3.044   4.089  11.498  0.1655  0.2788  0.2839
 8939TIP3    H151012   3.140   4.080  11.500  0.1749 -0.9127 -2.2514
 8939TIP3    H251013   3.027   4.151  11.428 -0.9430  0.3333  0.5834
 8940TIP3   OH251014   5.342   0.839  10.839 -0.4678  0.1728  0.0512
 8940TIP3    H151015   5.355   0.868  10.749 -2.7480  0.6475 -0.1998
 8940TIP3    H251016   5.414   0.877  10.888 -0.5206  1.9709 -1.1734
 8941TIP3   OH251017   6.976   6.221  11.154  0.2381  0.1410 -0.0102
 8941TIP3    H151018   6.944   6.311  11.149 -0.4555 -0.0598  0.6349
 8941TIP3    H251019   6.902   6.168  11.126  0.1024 -0.3126  1.1434
 8942TIP3   OH251020   1.366   5.654  10.555  0.7727 -0.0824 -0.0584
 8942TIP3    H151021   1.314   5.661  10.476  0.0298  1.8292  0.5385
 8942TIP3    H251022   1.319   5.706  10.620  0.5218 -2.7947  2.1559
 8943TIP3   OH251023   4.037   4.231  11.563  0.0171  0.5076 -0.3688
 8943TIP3    H151024   3.994   4.219  11.648 -0.4011  0.3689 -0.5976
 8943TIP3    H251025   4.014   4.152  11.514  0.6222  0.3863 -0.4545
 8944TIP3   OH251026   3.453   0.801  12.095  0.2379 -0.3400 -0.4096
 8944TIP3    H151027   3.382   0.854  12.058  0.6550 -0.1711 -0.9857
 8944TIP3    H251028   3.470   0.734  12.029 -0.7356 -1.6303  0.6003
 8945TIP3   OH251029   5.464   0.146  12.153 -0.5287  0.3315  0.2034
 8945TIP3    H151030   5.488   0.074  12.212 -2.9575  1.3510  2.6663
 8945TIP3    H251031   5.519   0.219  12.181 -0.0325  0.1927 -0.4024
 8946TIP3   OH251032   5.356   4.623  10.322 -0.1365 -0.2342  0.0482
 8946TIP3    H151033   5.285   4.563  10.345  0.1213 -2.0059 -3.2064
 8946TIP3    H251034   5.434   4.584  10.362  0.1059 -2.5207 -2.3923
 8947TIP3   OH251035   3.170   4.573  10.236 -0.1711  0.1581 -0.4696
 8947TIP3    H151036   3.084   4.535  10.256 -0.3227  0.9140  0.4183
 8947TIP3    H251037   3.231   4.500  10.244 -0.6881 -0.3122 -0.7481
 8948TIP3   OH251038   0.706   3.596  10.681  0.0956  0.2870  0.5759
 8948TIP3    H151039   0.706   3.530  10.611  0.0505  0.3850  0.4842
 8948TIP3    H251040   0.688   3.546  10.760  0.0781  0.1853  0.5079
 8949TIP3   OH251041   4.386   5.307  11.292 -0.1345  0.0438 -0.1859
 8949TIP3    H151042   4.296   5.333  11.271 -0.2021 -0.7801 -0.9989
 8949TIP3    H251043   4.426   5.288  11.207  0.5621 -0.3791  0.2237
 8950TIP3   OH251044   0.814   1.086  11.188 -0.5897  0.1102  0.0938
 8950TIP3    H151045   0.775   1.110  11.104  2.8920 -0.2711 -1.8097
 8950TIP3    H251046   0.832   1.170  11.231  0.0144  0.4402 -0.7786
 8951TIP3   OH251047   4.775   4.935  11.194 -0.1595  0.5947  0.4128
 8951TIP3    H151048   4.864   4.964  11.209 -0.5258  2.4907 -0.7616
 8951TIP3    H251049   4.763   4.943  11.099 -1.4531 -0.0049  0.5039
 8952TIP3   OH251050   7.340   1.064  10.879  0.1450 -0.0323  0.3560
 8952TIP3    H151051   7.407   1.102  10.936 -0.6221  1.7165  0.1676
 8952TIP3    H251052   7.258   1.076  10.928 -0.2505 -0.4750 -0.1893
 8953TIP3   OH251053   5.440   5.517  12.313  0.1564  0.1710 -0.1584
 8953TIP3    H151054   5.475   5.550  12.230 -0.3605  0.1814 -0.3705
 8953TIP3    H251055   5.506   5.454  12.343  1.0849  1.2553  0.1715
 8954TIP3   OH251056   1.757   7.551  12.246 -0.0854  0.1747  0.4015
 8954TIP3    H151057   1.754   7.525  12.339  2.6654  0.5829  0.6964
 8954TIP3    H251058   1.805   7.634  12.246  1.3080 -0.5606 -1.4922
 8955TIP3   OH251059   2.784   4.667  11.402 -0.7970 -0.4959 -0.0713
 8955TIP3    H151060   2.740   4.631  11.479 -1.4005  2.0363  0.8712
 8955TIP3    H251061   2.751   4.757  11.395  1.3338  0.2620 -1.6432
 8956TIP3   OH251062   1.037   0.718  10.453 -0.0410  0.4929  0.1823
 8956TIP3    H151063   1.075   0.694  10.368  1.4260  2.6266  0.1600
 8956TIP3    H251064   1.035   0.636  10.503 -1.8002 -1.0155 -2.1593
 8957TIP3   OH251065   3.091   2.746  10.259  0.4393 -0.4509  0.0311
 8957TIP3    H151066   3.002   2.778  10.273  0.6313 -0.3597  1.1737
 8957TIP3    H251067   3.092   2.716  10.169 -1.1362 -1.6268  0.3584
 8958TIP3   OH251068   6.432   7.579  12.271 -0.3582 -0.3472  0.0803
 8958TIP3    H151069   6.483   7.596  12.350  0.8365  2.2181 -1.1085
 8958TIP3    H251070   6.497   7.553  12.206 -0.4736  2.5363 -1.3397
 8959TIP3   OH251071   2.565   1.490  11.710 -0.2346 -0.4370  0.3167
 8959TIP3    H151072   2.616   1.460  11.785 -0.2800 -0.7340  0.2295
 8959TIP3    H251073   2.565   1.586  11.718 -0.0449 -0.4564  0.5659
 8960TIP3   OH251074   5.837   4.954  10.431  0.0224 -0.1722  0.1581
 8960TIP3    H151075   5.779   4.949  10.507 -1.4310  1.9725 -0.7151
 8960TIP3    H251076   5.778   4.959  10.356  1.4108 -1.0663 -1.0383
 8961TIP3   OH251077   2.695   2.668  11.494 -0.0211  0.1716  0.5409
 8961TIP3    H151078   2.609   2.710  11.497  0.0113  0.2326  0.6412
 8961TIP3    H251079   2.729   2.689  11.407  0.3085  0.9877  0.8559
 8962TIP3   OH251080   0.829   3.348  11.678 -0.0291 -0.4631  0.2322
 8962TIP3    H151081   0.842   3.253  11.672  0.1571 -0.3486 -1.6863
 8962TIP3    H251082   0.765   3.368  11.610 -1.1213  0.6361  1.5313
 8963TIP3   OH251083   6.866   0.276  11.777  0.3989  0.1875 -0.3662
 8963TIP3    H151084   6.798   0.333  11.743  1.0107  0.3074 -1.4293
 8963TIP3    H251085   6.947   0.310  11.739  0.9979 -0.2617  0.4643
 8964TIP3   OH251086   4.379   5.277  12.311 -0.1489  0.0902  0.1709
 8964TIP3    H151087   4.397   5.366  12.281  0.7720 -0.2630 -0.3607
 8964TIP3    H251088   4.306   5.286  12.372  0.4977  1.3257  0.7951
 8965TIP3   OH251089   6.557   3.298  11.711 -0.6803 -0.6290  0.7245
 8965TIP3    H151090   6.508   3.268  11.635  0.4184 -1.9296  0.4942
 8965TIP3    H251091   6.644   3.319  11.677 -0.8722  1.1592  1.2123
 8966TIP3   OH251092   5.638   5.073  10.992  0.2728 -0.0795  0.2280
 8966TIP3    H151093   5.657   4.986  11.028 -1.7590 -1.3221 -1.4179
 8966TIP3    H251094   5.626   5.129  11.069  2.9015 -0.8872  1.3246
 8967TIP3   OH251095   6.698   0.112  10.180  0.2450  0.8933 -0.2459
 8967TIP3    H151096   6.719   0.091  10.090 -1.1722 -1.2937 -0.1285
 8967TIP3    H251097   6.728   0.036  10.231 -0.2087  1.4809  0.9478
 8968TIP3   OH251098   6.057   4.874  12.423 -0.7845  0.1618  0.2255
 8968TIP3    H151099   6.111   4.855  12.500 -2.3650 -0.6887  1.1873
 8968TIP3    H251100   6.078   4.965  12.401  1.3173 -0.2619  0.2828
 8969TIP3   OH251101   4.973   0.657  12.976 -0.0106  0.2446 -0.4261
 8969TIP3    H151102   5.046   0.630  13.032 -1.1626  1.1360  1.6346
 8969TIP3    H251103   5.013   0.676  12.891  1.8107 -1.2852  0.0274
 8970TIP3   OH251104   0.704   4.490  12.694 -0.6511  0.8585 -0.0716
 8970TIP3    H151105   0.712   4.554  12.765 -2.1635  0.4726  0.4769
 8970TIP3    H251106   0.611   4.470  12.689 -0.1567 -2.0449  0.4378
 8971TIP3   OH251107   7.131   3.001  10.133  0.5383  0.0795  0.0172
 8971TIP3    H151108   7.067   2.931  10.125  0.7146 -0.0801  0.0108
 8971TIP3    H251109   7.106   3.047  10.213 -0.1657  0.6063 -0.4865
 8972TIP3   OH251110   6.610   1.936  10.283  0.5552 -0.5169  0.4102
 8972TIP3    H151111   6.616   1.897  10.370  1.2862 -0.0876  0.5638
 8972TIP3    H251112   6.519   1.961  10.274  0.6329  0.1975  1.3987
 8973TIP3   OH251113   0.702   5.693  11.705 -0.1611 -0.2290  0.3581
 8973TIP3    H151114   0.621   5.740  11.685  0.3705  0.1043 -1.1891
 8973TIP3    H251115   0.751   5.694  11.623  1.5037 -0.2582  1.3095
 8974TIP3   OH251116   5.763   4.554  10.798  0.2372 -0.2401 -0.3070
 8974TIP3    H151117   5.812   4.601  10.730 -0.8497  0.1279 -0.8511
 8974TIP3    H251118   5.691   4.513  10.751 -1.3078  1.0891  0.8047
 8975TIP3   OH251119   1.504   1.458  12.274  0.0864 -0.5397  0.2525
 8975TIP3    H151120   1.426   1.413  12.240  1.4142 -1.6874 -1.4645
 8975TIP3    H251121   1.479   1.485  12.363 -2.7668  0.5164 -0.7566
 8976TIP3   OH251122   2.368   2.182  11.175 -0.0714  0.1116  0.5650
 8976TIP3    H151123   2.404   2.103  11.134 -1.2542 -1.0022  1.5948
 8976TIP3    H251124   2.338   2.153  11.261  1.6624  2.2150  1.9837
 8977TIP3   OH251125   6.269   1.310  10.796  0.2795 -0.0450 -0.7639
 8977TIP3    H151126   6.191   1.348  10.755 -1.1943 -0.6837  1.2341
 8977TIP3    H251127   6.302   1.379  10.853 -0.9163 -0.8190  0.9655
 8978TIP3   OH251128   5.090   2.041  12.160 -0.3861 -0.4500  0.6488
 8978TIP3    H151129   5.024   2.027  12.228 -1.9429  1.2285 -0.4472
 8978TIP3    H251130   5.044   2.027  12.078  1.1495 -1.1863 -0.1454
 8979TIP3   OH251131   4.255   6.542  11.975 -0.1877 -0.1649 -0.7165
 8979TIP3    H151132   4.275   6.611  12.038  0.2647  1.5465 -2.6274
 8979TIP3    H251133   4.159   6.537  11.974 -0.1975 -0.4521  0.2970
 8980TIP3   OH251134   1.275   3.751  12.516 -0.3341 -0.1630 -0.5133
 8980TIP3    H151135   1.344   3.693  12.550 -0.4492  0.9676  1.8152
 8980TIP3    H251136   1.322   3.821  12.472 -0.0512 -0.0742 -0.0698
 8981TIP3   OH251137   3.969   4.821  10.457 -0.3923 -0.1372  0.0938
 8981TIP3    H151138   3.986   4.904  10.501  0.4522 -0.9418  1.3246
 8981TIP3    H251139   3.899   4.780  10.507 -1.6585  0.3317 -1.2207
 8982TIP3   OH251140   1.180   5.679  12.085  0.1261  0.2307  0.7035
 8982TIP3    H151141   1.168   5.634  12.002 -2.0366  1.9079  0.0066
 8982TIP3    H251142   1.142   5.620  12.150  0.9587 -0.6699  0.3856
 8983TIP3   OH251143   6.294   0.792  11.936 -0.3443  0.4165 -0.1067
 8983TIP3    H151144   6.255   0.774  12.021 -2.0999  2.3199 -0.4358
 8983TIP3    H251145   6.295   0.707  11.892 -3.8428  0.0738  0.1260
 8984TIP3   OH251146   6.015   7.063  10.524 -0.4263  0.2487 -1.0271
 8984TIP3    H151147   5.947   7.002  10.498  0.8994 -0.8753 -2.0682
 8984TIP3    H251148   6.059   7.021  10.598 -0.5699  0.7317 -0.6681
 8985TIP3   OH251149   0.702   5.775  10.019  0.1523  0.2059  0.2997
 8985TIP3    H151150   0.688   5.869  10.015  0.4762  0.2467  0.0392
 8985TIP3    H251151   0.626   5.741  10.067  0.7427  0.7480  1.6510
 8986TIP3   OH251152   6.582   5.672  10.449  0.0624  0.1773 -0.4966
 8986TIP3    H151153   6.649   5.732  10.418 -0.0817  0.3153 -0.5418
 8986TIP3    H251154   6.507   5.688  10.392 -0.1524  0.3224 -0.1762
 8987TIP3   OH251155   4.464   2.875   9.793 -0.6568  0.2732  0.0777
 8987TIP3    H151156   4.416   2.951   9.761 -0.7061 -0.2151 -1.0481
 8987TIP3    H251157   4.422   2.800   9.751  0.5708 -0.2248 -0.3037
 8988TIP3   OH251158   0.301   2.875  10.477  1.0361 -0.6477  0.6724
 8988TIP3    H151159   0.301   2.861  10.382 -0.3173  0.2120  0.5248
 8988TIP3    H251160   0.262   2.961  10.489  0.6780 -0.9769  2.0421
 8989TIP3   OH251161   6.518   6.005  10.129 -0.6012 -0.0077  0.3134
 8989TIP3    H151162   6.541   5.961  10.047  1.3757  2.1122 -0.3649
 8989TIP3    H251163   6.586   5.977  10.191  1.0258  2.3925 -0.2833
 8990TIP3   OH251164   6.237   5.943  10.228 -0.6903 -0.1432 -0.4559
 8990TIP3    H151165   6.182   5.943  10.150 -2.1451  0.5392  0.5170
 8990TIP3    H251166   6.321   5.979  10.199 -0.9279 -0.7124 -1.8709
 8991TIP3   OH251167   4.436   5.419  10.882 -0.8064 -0.0514 -0.1363
 8991TIP3    H151168   4.474   5.451  10.964  2.3945 -1.9500 -0.7221
 8991TIP3    H251169   4.404   5.331  10.904 -3.2294  0.7245 -0.1888
 8992TIP3   OH251170   3.140   5.694  12.508  0.0662  0.2232 -0.3877
 8992TIP3    H151171   3.060   5.722  12.553 -0.8297 -3.3091  0.5310
 8992TIP3    H251172   3.108   5.652  12.429  1.3307  1.7415 -1.7623
 8993TIP3   OH251173   2.602   6.951  12.516 -0.5144  0.0241 -0.6250
 8993TIP3    H151174   2.579   7.028  12.464 -0.6768 -0.1217 -0.7749
 8993TIP3    H251175   2.673   6.909  12.467  0.8985  1.1006  0.4304
 8994TIP3   OH251176   2.275   7.225  11.868  0.2272  0.2280  0.3011
 8994TIP3    H151177   2.184   7.210  11.894 -0.0100  1.6797  0.3723
 8994TIP3    H251178   2.321   7.241  11.950  0.3471  0.5256  0.1743
 8995TIP3   OH251179   1.800   5.953  11.404  0.3087  0.1917 -0.1432
 8995TIP3    H151180   1.745   5.990  11.335 -1.0243 -3.0035 -0.9801
 8995TIP3    H251181   1.872   5.910  11.357  0.9122  0.3211  0.6469
 8996TIP3   OH251182   3.252   0.822  11.696  0.4552  0.3016 -0.0129
 8996TIP3    H151183   3.348   0.828  11.698  0.4831 -0.1636  0.1240
 8996TIP3    H251184   3.229   0.846  11.606  0.6935  0.4867 -0.0258
 8997TIP3   OH251185   2.966   2.884  12.812  0.0503 -0.1674  0.2298
 8997TIP3    H151186   3.038   2.936  12.849  0.6703 -0.5577 -0.3918
 8997TIP3    H251187   2.984   2.883  12.718 -0.5643 -0.5855  0.1123
 8998TIP3   OH251188   3.227   7.377   9.851  0.0127 -0.0689 -0.0076
 8998TIP3    H151189   3.195   7.397   9.939 -1.1679 -1.0224 -0.2028
 8998TIP3    H251190   3.151   7.344   9.805  0.5677  0.6219 -1.4745
 8999TIP3   OH251191   6.084   3.921  10.490  0.2515 -0.2384  0.0903
 8999TIP3    H151192   6.081   3.840  10.439 -1.6882 -1.0771  1.4479
 8999TIP3    H251193   6.032   3.983  10.440 -2.4262 -1.3231  1.3354
 9000TIP3   OH251194   5.832   0.269  12.068  0.5521  0.2980  0.0711
 9000TIP3    H151195   5.817   0.318  11.987  1.8375  1.1699  0.3197
 9000TIP3    H251196   5.837   0.178  12.040 -0.0391  0.4899 -0.6850
 9001TIP3   OH251197   2.359   0.419  10.346  0.3671  0.7034 -0.2393
 9001TIP3    H151198   2.372   0.404  10.252 -3.4608  0.1397 -0.8426
 9001TIP3    H251199   2.293   0.354  10.371 -0.4147  2.3593  2.3228
 9002TIP3   OH251200   4.389   5.945  12.418  0.2567  0.4173  0.0503
 9002TIP3    H151201   4.455   5.963  12.350  0.3586  0.8482  0.2547
 9002TIP3    H251202   4.314   5.999  12.393  0.0425  0.0600 -0.0860
 9003TIP3   OH251203   0.503   2.104  10.181  0.0009  0.0963  0.2795
 9003TIP3    H151204   0.595   2.082  10.201  0.1891  1.7158  1.3765
 9003TIP3    H251205   0.456   2.021  10.193  1.3956 -0.9338 -0.9890
 9004TIP3   OH251206   2.766   4.532   9.849 -0.3207 -0.6326 -0.2456
 9004TIP3    H151207   2.822   4.455   9.839 -2.4025 -2.3765  0.7773
 9004TIP3    H251208   2.680   4.504   9.818 -1.4148  0.8831  1.2000
 9005TIP3   OH251209   5.826   3.059  10.890 -0.5107  0.0572  0.0720
 9005TIP3    H151210   5.741   3.032  10.925 -0.1416 -0.4813  0.5668
 9005TIP3    H251211   5.840   3.146  10.928 -0.7682  0.0774  0.1247
 9006TIP3   OH251212   6.468   3.711  11.826 -0.0449  0.5175  0.4231
 9006TIP3    H151213   6.532   3.770  11.786 -1.2883  0.3174 -2.0442
 9006TIP3    H251214   6.514   3.672  11.900  2.2348  1.3554 -0.4752
 9007TIP3   OH251215   6.286   7.671  11.462 -0.1137 -0.0710  0.0625
 9007TIP3    H151216   6.316   7.752  11.502  0.8272 -0.6213  0.5086
 9007TIP3    H251217   6.223   7.635  11.524  0.2658 -0.2007  0.3790
 9008TIP3   OH251218   0.881   6.030  10.135  0.1845  0.4646  0.5589
 9008TIP3    H151219   0.853   5.966  10.201  0.7739 -0.0534  0.3131
 9008TIP3    H251220   0.804   6.044  10.080  0.9419 -2.7306 -1.5724
 9009TIP3   OH251221   4.600   6.317  12.459 -0.2109 -0.0566 -0.1857
 9009TIP3    H151222   4.521   6.300  12.407  0.3843 -0.6194 -0.9503
 9009TIP3    H251223   4.603   6.244  12.521 -1.1791  0.8757  0.9792
 9010TIP3   OH251224   4.616   5.046  10.744 -0.1249  0.2515  0.3771
 9010TIP3    H151225   4.523   5.053  10.766  0.0532 -1.0174  1.7025
 9010TIP3    H251226   4.617   5.023  10.651 -1.0774  1.3704  0.0638
 9011TIP3   OH251227   7.549   1.230  11.011 -0.1847  0.1111 -0.2357
 9011TIP3    H151228   7.479   1.294  11.024 -1.3581 -1.3303  0.8163
 9011TIP3    H251229   7.585   1.217  11.098 -2.0645 -2.9276  0.2174
 9012TIP3   OH251230   6.602   4.897  12.043  0.0311 -0.0528  0.1328
 9012TIP3    H151231   6.669   4.959  12.014  0.4280 -0.7219 -0.4025
 9012TIP3    H251232   6.542   4.889  11.968 -0.7601  0.6763  0.6690
 9013TIP3   OH251233   5.247   5.616  11.499 -0.2129 -0.0581  0.6459
 9013TIP3    H151234   5.230   5.524  11.521  1.1427 -0.3749  0.4813
 9013TIP3    H251235   5.314   5.644  11.561  0.2493  0.4554 -0.0710
 9014TIP3   OH251236   0.630   4.754  11.417  0.1288  0.1604 -0.4031
 9014TIP3    H151237   0.674   4.672  11.393 -2.3622 -1.5748  0.4582
 9014TIP3    H251238   0.580   4.777  11.338 -1.2610 -0.7245  0.1648
 9015TIP3   OH251239   6.865   0.628  10.308 -0.5702  0.2322 -0.7754
 9015TIP3    H151240   6.813   0.666  10.238  1.0324 -0.3808 -2.3626
 9015TIP3    H251241   6.866   0.535  10.290  1.9656  0.3299 -1.4751
 9016TIP3   OH251242   1.617   2.494  12.296 -0.0750 -0.7116  0.0574
 9016TIP3    H151243   1.564   2.558  12.343 -1.1389 -2.5864  1.5604
 9016TIP3    H251244   1.707   2.526  12.304 -0.6558  1.0038  0.0074
 9017TIP3   OH251245   3.926   4.784   9.904  0.3455  0.1148 -0.1464
 9017TIP3    H151246   4.005   4.837   9.904  0.3320  0.1354 -0.0095
 9017TIP3    H251247   3.856   4.844   9.933  0.2535  0.1365 -0.4135
 9018TIP3   OH251248   2.240   6.856   9.984  0.0546 -0.1182  0.1260
 9018TIP3    H151249   2.224   6.949  10.002 -0.7395 -0.6040  2.1382
 9018TIP3    H251250   2.325   6.838  10.023 -0.7146 -0.6751  1.6432
 9019TIP3   OH251251   7.368   7.544  10.652  0.0078 -0.0541  0.3450
 9019TIP3    H151252   7.381   7.479  10.583 -0.3230  1.7870 -1.5772
 9019TIP3    H251253   7.280   7.526  10.685 -1.6026  1.4573 -2.6586
 9020TIP3   OH251254   4.036   2.546  10.160  0.6580  0.6062 -0.2637
 9020TIP3    H151255   4.058   2.465  10.114  0.9669 -1.7420  3.5611
 9020TIP3    H251256   3.946   2.533  10.191  0.5741  1.9257  0.1217
 9021TIP3   OH251257   7.147   3.743  11.525 -0.2320 -0.1630 -0.4606
 9021TIP3    H151258   7.241   3.753  11.540 -0.4969 -0.3463  1.5519
 9021TIP3    H251259   7.118   3.829  11.493  0.1895  0.7796  1.5486
 9022TIP3   OH251260   4.291   6.399  12.417 -0.2389  0.6786  0.4714
 9022TIP3    H151261   4.240   6.336  12.366  0.1993 -0.2500  1.1578
 9022TIP3    H251262   4.238   6.416  12.495  1.2464 -1.8094  2.1882
 9023TIP3   OH251263   1.614   1.831  10.577 -0.8800  0.5530  0.1002
 9023TIP3    H151264   1.688   1.855  10.633 -1.0508  0.6541  0.2851
 9023TIP3    H251265   1.654   1.813  10.492 -0.5295 -0.3306  0.4426
 9024TIP3   OH251266   5.725   1.579  11.500 -0.2087  0.4993  0.4234
 9024TIP3    H151267   5.690   1.491  11.493  1.1762 -0.1168  0.9925
 9024TIP3    H251268   5.674   1.620  11.570  0.0072 -0.2805  1.0433
 9025TIP3   OH251269   4.245   6.921  11.803  0.2413 -0.3784  0.1131
 9025TIP3    H151270   4.234   6.923  11.898  0.9139 -0.7960  0.2130
 9025TIP3    H251271   4.177   6.862  11.772 -0.9348  0.9071  0.1657
 9026TIP3   OH251272   7.202   4.234  11.929  0.4090  0.9869 -0.0748
 9026TIP3    H151273   7.109   4.219  11.945  0.5334  1.6871  1.4946
 9026TIP3    H251274   7.233   4.276  12.009  2.4425 -0.7615  0.1211
 9027TIP3   OH251275   7.031   4.658  11.778  0.1492 -0.0768 -0.3673
 9027TIP3    H151276   7.058   4.589  11.838 -0.6931  0.3109  0.4828
 9027TIP3    H251277   6.969   4.711  11.829 -0.5072  0.3183 -1.5486
 9028TIP3   OH251278   6.770   2.284  10.910  0.0214  0.6865 -0.3598
 9028TIP3    H151279   6.747   2.191  10.913  1.4721  0.3100  0.2165
 9028TIP3    H251280   6.808   2.297  10.823  1.0907  0.3971  0.0536
 9029TIP3   OH251281   0.170   5.148  11.279  0.4826 -0.8525  0.2281
 9029TIP3    H151282   0.230   5.095  11.227  2.7403  0.3004  1.5031
 9029TIP3    H251283   0.191   5.238  11.257 -0.3240 -0.3911  1.2146
 9030TIP3   OH251284   1.924   6.123  11.065  0.3718 -0.4728  0.3076
 9030TIP3    H151285   1.997   6.110  11.005 -0.9630 -1.5925 -1.1535
 9030TIP3    H251286   1.873   6.043  11.058 -2.8212  1.5275 -1.3109
 9031TIP3   OH251287   5.546   7.517  10.558  0.4909 -0.3169  0.5759
 9031TIP3    H151288   5.535   7.495  10.651 -0.7525 -2.6303 -0.0431
 9031TIP3    H251289   5.474   7.471  10.514 -0.5264  2.7731 -1.3114
 9032TIP3   OH251290   2.853   1.465  11.301 -0.0257 -0.2183 -0.0179
 9032TIP3    H151291   2.822   1.431  11.385 -2.1270 -1.5232 -1.2312
 9032TIP3    H251292   2.892   1.389  11.258 -0.2613  0.0874 -0.7880
 9033TIP3   OH251293   3.629   3.376  10.468  0.6095 -0.3557 -0.0128
 9033TIP3    H151294   3.708   3.427  10.483 -0.6734  1.1126  2.3804
 9033TIP3    H251295   3.627   3.314  10.542 -1.4618  1.0627  1.2239
 9034TIP3   OH251296   7.150   4.567  10.950  0.0047 -0.0328  0.0940
 9034TIP3    H151297   7.241   4.584  10.976 -0.1354  1.4039 -0.2786
 9034TIP3    H251298   7.155   4.555  10.855 -0.2765  0.8412 -0.0431
 9035TIP3   OH251299   6.004   2.111  12.288 -0.2074 -0.9078  0.0579
 9035TIP3    H151300   5.952   2.190  12.303  1.2219 -0.2656  2.0087
 9035TIP3    H251301   6.042   2.090  12.373  0.1863 -3.1991 -0.6051
 9036TIP3   OH251302   2.060   2.746  10.961 -0.2838  0.3955 -0.4767
 9036TIP3    H151303   2.078   2.691  11.037  0.6810 -1.7535 -2.1512
 9036TIP3    H251304   2.066   2.836  10.995 -1.2995 -0.4639  2.2304
 9037TIP3   OH251305   6.234   4.628  11.872  0.1746 -0.1236  0.1722
 9037TIP3    H151306   6.248   4.539  11.906 -0.6647  1.1108  4.2773
 9037TIP3    H251307   6.139   4.637  11.868  0.2243 -0.0886 -2.5808
 9038TIP3   OH251308   2.089   2.833  10.091  0.0893 -0.6609 -0.0362
 9038TIP3    H151309   2.091   2.865  10.181 -0.3970 -1.7185  0.3628
 9038TIP3    H251310   2.050   2.746  10.097  0.7292 -1.0494 -1.1768
 9039TIP3   OH251311   1.074   0.128  10.732 -0.3690 -0.0157 -0.5609
 9039TIP3    H151312   1.033   0.068  10.794 -1.0093  0.0049 -0.9563
 9039TIP3    H251313   1.044   0.215  10.760 -0.8957 -0.0289 -1.0624
 9040TIP3   OH251314   2.661   4.893  11.338  0.2996  0.2759  0.8470
 9040TIP3    H151315   2.568   4.896  11.358 -0.4496 -0.5524 -1.9445
 9040TIP3    H251316   2.692   4.982  11.356 -1.1429  0.7148  1.3510
 9041TIP3   OH251317   1.646   5.029  10.939 -0.3988 -0.1479 -0.5478
 9041TIP3    H151318   1.710   5.049  10.870 -0.1574  0.2515 -0.2106
 9041TIP3    H251319   1.601   5.111  10.955 -0.3640 -0.2074 -0.1375
 9042TIP3   OH251320   0.401   1.677  10.683  0.2872  0.8869 -0.3844
 9042TIP3    H151321   0.496   1.676  10.680  0.3675  1.8308  0.9823
 9042TIP3    H251322   0.378   1.770  10.686 -0.8460  0.8536 -3.7696
 9043TIP3   OH251323   6.665   7.584  12.118 -0.2997 -0.3320 -0.3293
 9043TIP3    H151324   6.640   7.536  12.039 -0.6291 -0.3280 -0.2271
 9043TIP3    H251325   6.712   7.661  12.085  0.0193 -0.5972 -0.5004
 9044TIP3   OH251326   7.628   5.916   9.998  0.0899 -0.0034  0.2733
 9044TIP3    H151327   7.661   5.828  10.014 -0.3262 -0.1009  0.6222
 9044TIP3    H251328   7.560   5.905   9.931 -0.9426 -0.1579  1.3104
 9045TIP3   OH251329   7.571   7.113  10.314  0.5810  0.0095  0.2375
 9045TIP3    H151330   7.528   7.069  10.241 -0.6762  2.1459 -0.4148
 9045TIP3    H251331   7.538   7.069  10.392 -2.8074  1.3572 -0.2399
 9046TIP3   OH251332   5.860   6.007  10.614 -0.1440 -0.0564 -0.4050
 9046TIP3    H151333   5.828   6.082  10.563  0.2136  0.0222 -0.5134
 9046TIP3    H251334   5.930   6.043  10.668 -2.5498  0.6149  2.5433
 9047TIP3   OH251335   2.023   5.794  11.300  0.5106 -0.2086  0.2561
 9047TIP3    H151336   2.104   5.841  11.285  0.0728  0.6437  0.4822
 9047TIP3    H251337   2.040   5.739  11.377  0.8571 -0.0180  0.3148
 9048TIP3   OH251338   0.154   1.475  10.317 -0.7911  0.5247  0.3071
 9048TIP3    H151339   0.064   1.443  10.327 -0.8612  0.1828 -1.1370
 9048TIP3    H251340   0.209   1.402  10.346 -0.9860  0.3465  0.2318
 9049TIP3   OH251341   6.215   1.139   9.968  0.8242 -0.1121 -0.4068
 9049TIP3    H151342   6.247   1.099  10.049 -0.5304 -0.4650 -0.0332
 9049TIP3    H251343   6.288   1.194   9.938  2.2460 -1.8422 -0.2484
 9050TIP3   OH251344   0.338   3.453  12.220 -0.0139 -0.1067  0.8715
 9050TIP3    H151345   0.399   3.382  12.200 -1.7144 -1.8415  1.5320
 9050TIP3    H251346   0.279   3.455  12.145 -0.6517 -0.1822  1.3636
 9051TIP3   OH251347   2.813   0.027   9.837 -0.0945 -0.8485 -0.0183
 9051TIP3    H151348   2.819  -0.050   9.893  0.0816 -0.6736  0.2016
 9051TIP3    H251349   2.768  -0.005   9.759 -2.4360 -0.5848  1.1427
 9052TIP3   OH251350   3.745   4.577  12.484 -0.4432 -0.1184  0.3847
 9052TIP3    H151351   3.670   4.519  12.493 -1.8669  1.6164  0.1943
 9052TIP3    H251352   3.797   4.539  12.413 -1.7479 -0.7415 -0.2615
 9053TIP3   OH251353   3.144   1.934  11.718 -0.7922 -0.2277 -0.3894
 9053TIP3    H151354   3.194   1.953  11.798  0.2821 -1.4716 -0.7354
 9053TIP3    H251355   3.156   1.840  11.704 -2.5530 -0.3928 -0.9776
 9054TIP3   OH251356   7.414   4.577  11.954 -0.1208 -0.0975 -0.4805
 9054TIP3    H151357   7.408   4.558  11.861 -0.1991  0.6027 -0.6190
 9054TIP3    H251358   7.443   4.668  11.959  1.5512 -0.6171  0.1659
 9055TIP3   OH251359   0.489   0.912  11.324 -0.3915  0.3653  0.0943
 9055TIP3    H151360   0.409   0.961  11.341 -1.1324 -1.0349  0.7092
 9055TIP3    H251361   0.464   0.844  11.262  0.7807  1.1117 -1.2790
 9056TIP3   OH251362   0.168   0.806  10.370 -0.1576  0.4794  0.1040
 9056TIP3    H151363   0.152   0.842  10.457  0.3064 -0.9357  0.8037
 9056TIP3    H251364   0.104   0.735  10.361 -0.5604  0.9472 -0.9455
 9057TIP3   OH251365   1.958   4.588  12.530  0.3074 -0.4958 -0.3998
 9057TIP3    H151366   2.002   4.536  12.463  0.4087 -0.0778 -0.6616
 9057TIP3    H251367   2.013   4.580  12.608  0.3486 -0.7353 -0.4539
 9058TIP3   OH251368   6.235   0.299  11.585  0.5172  0.0209  0.4024
 9058TIP3    H151369   6.154   0.351  11.583  0.1936 -0.4670  0.5053
 9058TIP3    H251370   6.253   0.287  11.678  0.4813 -0.2136  0.3794
 9059TIP3   OH251371   5.766   1.848  10.328 -0.6444 -0.7551 -0.1329
 9059TIP3    H151372   5.694   1.840  10.391  0.3538  1.0998  1.3377
 9059TIP3    H251373   5.844   1.827  10.378  0.0668 -0.3549 -1.0505
 9060TIP3   OH251374   5.849   5.887  11.299  0.1956 -0.0327 -0.4785
 9060TIP3    H151375   5.926   5.859  11.250 -0.1289  0.4252 -1.2625
 9060TIP3    H251376   5.782   5.904  11.233 -0.3840  0.1893  0.1450
 9061TIP3   OH251377   1.330   2.168  10.819 -0.7213  0.0944 -0.1857
 9061TIP3    H151378   1.283   2.237  10.771 -1.3714  0.2256  0.6243
 9061TIP3    H251379   1.356   2.106  10.751  0.8972  1.6791 -1.1120
 9062TIP3   OH251380   3.296   0.156   9.946  0.1578  0.1149  0.2395
 9062TIP3    H151381   3.327   0.073   9.982 -1.4536 -0.5490  0.1608
 9062TIP3    H251382   3.304   0.145   9.851  0.2904  0.2068  0.2380
 9063TIP3   OH251383   2.269   4.239  10.126 -0.0304 -0.4414 -0.0255
 9063TIP3    H151384   2.344   4.183  10.105 -0.4288 -1.7261  1.7710
 9063TIP3    H251385   2.250   4.221  10.218  0.3716  3.3255  1.0062
 9064TIP3   OH251386   6.553   2.229  12.560 -0.0191  0.1691  0.0662
 9064TIP3    H151387   6.477   2.188  12.518  0.3863 -0.6949  0.1646
 9064TIP3    H251388   6.529   2.322  12.566 -1.3536 -0.1956  0.7216
 9065TIP3   OH251389   1.850   5.366  11.721  0.4357 -0.0965 -0.1356
 9065TIP3    H151390   1.818   5.454  11.742 -1.3307 -0.6004 -0.5346
 9065TIP3    H251391   1.885   5.333  11.804 -1.0454  0.1325  0.6238
 9066TIP3   OH251392   7.080   0.229  11.977  0.4345  0.2389  0.7769
 9066TIP3    H151393   6.990   0.238  11.946  0.2801  0.4922  1.2729
 9066TIP3    H251394   7.090   0.136  11.996  0.3755  0.1623  0.4325
 9067TIP3   OH251395   7.079   2.483  11.636  0.0978  0.3967 -0.1769
 9067TIP3    H151396   7.015   2.499  11.567  2.3358  2.8106 -1.9055
 9067TIP3    H251397   7.112   2.395  11.618 -1.3991 -0.1452 -0.3717
 9068TIP3   OH251398   3.203   7.207  10.509  0.3280  1.0162  0.0325
 9068TIP3    H151399   3.147   7.247  10.443 -0.8907  1.2953  1.1960
 9068TIP3    H251400   3.288   7.196  10.465 -0.3782  1.3926 -1.4837
 9069TIP3   OH251401   2.257   3.242  10.575 -0.4924  0.3326  0.4144
 9069TIP3    H151402   2.214   3.324  10.601  0.6369  0.9863  0.2560
 9069TIP3    H251403   2.242   3.183  10.649 -1.1621  0.7320  0.6055
 9070TIP3   OH251404   0.664   1.192  11.879  0.0796  0.5962 -0.0762
 9070TIP3    H151405   0.600   1.146  11.825 -0.9495  1.4107  0.4077
 9070TIP3    H251406   0.665   1.143  11.962  2.4560 -1.3044 -1.1208
 9071TIP3   OH251407   0.991   5.846  10.476 -0.5485 -0.1419  0.1488
 9071TIP3    H151408   0.898   5.823  10.470 -0.3347 -0.6062 -1.8562
 9071TIP3    H251409   0.993   5.942  10.469 -0.8938 -0.0808  0.7886
 9072TIP3   OH251410   5.385   6.221  10.176 -0.0635 -0.5105 -0.3243
 9072TIP3    H151411   5.470   6.210  10.220 -0.7312 -0.5392  1.0061
 9072TIP3    H251412   5.359   6.132  10.153  0.0735 -0.5448 -0.3498
 9073TIP3   OH251413   2.712   1.124  12.578 -0.1324  0.1109 -0.6538
 9073TIP3    H151414   2.719   1.183  12.654  1.5764  0.7707 -1.2912
 9073TIP3    H251415   2.791   1.070  12.583  0.5210  0.8247 -2.4784
 9074TIP3   OH251416   7.399   0.394  10.700 -0.2163  0.2540 -0.0255
 9074TIP3    H151417   7.372   0.458  10.766 -1.5629 -0.6226  0.3288
 9074TIP3    H251418   7.336   0.322  10.709 -0.9675  0.4254 -2.7647
 9075TIP3   OH251419   3.153   6.866  10.339 -0.9134 -0.1527  0.1226
 9075TIP3    H151420   3.127   6.778  10.365  0.8111 -0.6432  0.3260
 9075TIP3    H251421   3.227   6.853  10.280  2.5056  1.0862  3.6275
 9076TIP3   OH251422   7.326   1.935  11.747 -0.2219  0.4335  0.0839
 9076TIP3    H151423   7.280   1.873  11.691  1.2379  1.6260 -2.5961
 9076TIP3    H251424   7.256   1.991  11.783 -1.2526 -0.7617  0.0152
 9077TIP3   OH251425   6.520   5.282   9.837 -0.5095  0.1832 -0.4091
 9077TIP3    H151426   6.448   5.332   9.875  0.3246  0.7343  0.4921
 9077TIP3    H251427   6.540   5.328   9.755 -1.0079  0.1663 -0.5477
 9078TIP3   OH251428   2.765   5.185  10.283  0.3280  0.3156  0.2784
 9078TIP3    H151429   2.684   5.236  10.282  0.6300  0.8605  1.4081
 9078TIP3    H251430   2.754   5.125  10.356  0.2667 -0.7768 -0.6149
 9079TIP3   OH251431   3.281   5.585  10.306 -0.4876  0.0452  0.1633
 9079TIP3    H151432   3.245   5.587  10.217 -2.3934  0.3610  0.8868
 9079TIP3    H251433   3.214   5.628  10.359  1.1959  1.0145  1.5748
 9080TIP3   OH251434   2.251   6.802  12.217 -0.2678  0.0898 -0.1403
 9080TIP3    H151435   2.230   6.715  12.183 -1.9388  0.8734 -1.2379
 9080TIP3    H251436   2.191   6.814  12.291  1.0384 -0.2686  1.0248
 9081TIP3   OH251437   7.383   0.257  11.132  0.9491 -0.0638  0.0042
 9081TIP3    H151438   7.388   0.161  11.126 -2.3614 -0.3100 -0.9867
 9081TIP3    H251439   7.425   0.278  11.215  2.7649 -2.2135 -0.2502
 9082TIP3   OH251440   0.841   2.678   9.976 -0.4098 -0.2273  0.0182
 9082TIP3    H151441   0.871   2.737  10.045  0.4256  0.4289 -0.8710
 9082TIP3    H251442   0.864   2.590  10.007  2.9742  0.2403 -0.7666
 9083TIP3   OH251443   5.102   2.796  11.232 -0.2440 -0.1477 -0.2490
 9083TIP3    H151444   5.043   2.732  11.192 -0.0765  0.4093 -1.4286
 9083TIP3    H251445   5.052   2.878  11.233 -0.5511 -0.3208  1.4821
 9084TIP3   OH251446   4.929   2.251  11.481  1.1417 -0.1212 -0.3832
 9084TIP3    H151447   5.023   2.252  11.460  2.0715 -0.1817  3.0994
 9084TIP3    H251448   4.925   2.214  11.569 -1.9822  1.8260  0.4444
 9085TIP3   OH251449   2.246   0.957  13.187 -0.1653  0.2183 -0.1743
 9085TIP3    H151450   2.311   1.024  13.169  0.2145 -0.1017 -0.0163
 9085TIP3    H251451   2.296   0.883  13.220 -0.3268 -0.8318 -2.1091
 9086TIP3   OH251452   7.010   0.760   9.716 -0.3987 -0.1965  0.0157
 9086TIP3    H151453   7.021   0.676   9.672  0.9419 -0.4216  0.7422
 9086TIP3    H251454   6.916   0.778   9.709 -0.7272 -1.7813 -0.0853
 9087TIP3   OH251455   0.266   5.205  12.702 -0.7792  0.3785  0.5393
 9087TIP3    H151456   0.273   5.301  12.701  1.2865  0.2766 -1.0302
 9087TIP3    H251457   0.332   5.177  12.766 -1.7686 -0.0304  1.4223
 9088TIP3   OH251458   0.408   6.350  10.343  0.4737  0.6698 -0.3351
 9088TIP3    H151459   0.397   6.270  10.291  0.2404 -0.3467  1.2287
 9088TIP3    H251460   0.498   6.346  10.375  0.3794  0.8954 -0.0380
 9089TIP3   OH251461   1.175   6.836  10.588  0.9402 -0.1231  0.1990
 9089TIP3    H151462   1.247   6.895  10.567 -0.3219  1.2706 -0.3939
 9089TIP3    H251463   1.102   6.893  10.610 -0.7786 -1.3614 -1.8566
 9090TIP3   OH251464   0.788   0.129  11.957  0.4829  0.0718 -0.3244
 9090TIP3    H151465   0.725   0.073  12.004  0.1775  1.7646  1.3887
 9090TIP3    H251466   0.865   0.073  11.946 -0.0200 -0.9026  0.7891
 9091TIP3   OH251467   7.420   7.069  10.560 -0.0032 -0.0636  0.3137
 9091TIP3    H151468   7.483   6.997  10.559 -0.1699 -0.2986  2.2231
 9091TIP3    H251469   7.334   7.027  10.566 -0.0334  0.1962  3.1487
 9092TIP3   OH251470   3.543   0.763  10.045 -0.0638 -0.3896 -0.2245
 9092TIP3    H151471   3.473   0.705  10.015  1.0413 -2.5902  1.2017
 9092TIP3    H251472   3.571   0.809   9.966 -1.0377 -1.7574 -1.4243
 9093TIP3   OH251473   6.538   5.958  12.681  0.2648  0.3147 -0.2694
 9093TIP3    H151474   6.462   5.943  12.737  0.3827 -0.5623 -0.3358
 9093TIP3    H251475   6.500   5.989  12.598 -0.0050  0.1055 -0.2260
 9094TIP3   OH251476   3.794   6.693  11.838  0.7665  0.9288  0.2500
 9094TIP3    H151477   3.710   6.708  11.881  1.3222  1.1381  1.3036
 9094TIP3    H251478   3.775   6.629  11.770 -0.3349  1.3307  0.1563
 9095TIP3   OH251479   4.711   5.530  12.219  0.2565  0.4624  0.7140
 9095TIP3    H151480   4.798   5.552  12.251 -0.0148 -0.7760  2.4317
 9095TIP3    H251481   4.713   5.436  12.203 -0.5753  0.5266  0.1052
 9096TIP3   OH251482   3.203   7.355  12.000  0.5992 -0.3237 -0.0202
 9096TIP3    H151483   3.255   7.329  12.076  0.7831 -0.5891 -0.2371
 9096TIP3    H251484   3.156   7.433  12.029  1.5944  0.2943 -0.0297
 9097TIP3   OH251485   0.710   5.374  11.980  0.2604 -0.2454  0.3630
 9097TIP3    H151486   0.752   5.311  12.040 -0.4366 -1.3093 -0.2362
 9097TIP3    H251487   0.629   5.332  11.954  0.7646 -0.0322 -1.7215
 9098TIP3   OH251488   7.472   6.598  11.277  0.1602  0.0045 -0.1258
 9098TIP3    H151489   7.526   6.574  11.351 -0.3245 -1.1821 -0.1320
 9098TIP3    H251490   7.517   6.672  11.237  1.7425 -0.8899 -0.0891
 9099TIP3   OH251491   1.346   4.461  11.034 -0.2622  0.3038 -0.0297
 9099TIP3    H151492   1.399   4.541  11.030 -1.3420  1.0098 -0.8341
 9099TIP3    H251493   1.274   4.483  11.093 -0.4251 -0.1695 -0.0507
 9100TIP3   OH251494   7.502   3.334  10.971  0.1063 -0.0247 -0.2823
 9100TIP3    H151495   7.488   3.421  11.008  0.9502  0.7671 -1.7056
 9100TIP3    H251496   7.417   3.311  10.934  0.1149  0.6503 -0.7568
 9101TIP3   OH251497   6.081   1.685  11.196  0.1288  0.2897  0.0304
 9101TIP3    H151498   6.032   1.735  11.131  1.3148 -0.3064 -1.3827
 9101TIP3    H251499   6.152   1.744  11.223 -0.9881  0.9681  1.7117
 9102TIP3   OH251500   0.326   1.121  11.922  0.3061  0.4191  0.4099
 9102TIP3    H151501   0.366   1.135  11.836 -2.3646  1.0635 -0.8187
 9102TIP3    H251502   0.270   1.197  11.935 -2.2371 -1.4154  0.9421
 9103TIP3   OH251503   4.063   0.293  10.578 -0.2497  0.1529 -1.0608
 9103TIP3    H151504   4.094   0.221  10.632 -3.0017 -0.0762  0.4512
 9103TIP3    H251505   4.124   0.298  10.505  1.2011 -2.3235 -0.1232
 9104TIP3   OH251506   4.671   4.925  10.507  0.1024  0.0963 -0.1534
 9104TIP3    H151507   4.762   4.910  10.480  0.4954 -0.5172  1.4098
 9104TIP3    H251508   4.621   4.861  10.457  0.4717  0.6462 -1.2619
 9105TIP3   OH251509   1.062   3.390  11.320 -0.0436  0.0351  0.6924
 9105TIP3    H151510   1.040   3.394  11.413 -1.0107 -0.7901  0.5178
 9105TIP3    H251511   1.036   3.476  11.286 -1.1909 -0.2160  0.8874
 9106TIP3   OH251512   5.481   5.428  11.201 -0.2096 -0.2885 -0.3543
 9106TIP3    H151513   5.505   5.465  11.286 -0.7771  1.4772 -0.9396
 9106TIP3    H251514   5.548   5.361  11.185  1.5759  1.2642  0.2081
 9107TIP3   OH251515   2.910   6.002  10.780 -0.1925  0.6664 -0.1718
 9107TIP3    H151516   2.956   5.949  10.714  0.8162 -1.0832  1.8223
 9107TIP3    H251517   2.821   6.011  10.746 -0.4397 -2.4274 -0.6245
 9108TIP3   OH251518   7.620   0.640  11.342  0.5950  0.2457  0.1078
 9108TIP3    H151519   7.692   0.627  11.279  1.2724  1.3911  0.6225
 9108TIP3    H251520   7.546   0.668  11.288  1.0086  0.6644 -0.2568
 9109TIP3   OH251521   1.875   0.103  10.288  0.3017 -0.1987  0.0557
 9109TIP3    H151522   1.850   0.035  10.350 -0.6122  0.1253  0.0623
 9109TIP3    H251523   1.951   0.146  10.328  1.2193 -1.5304 -0.1897
 9110TIP3   OH251524   4.383   5.451  11.543 -0.6693  0.1035  0.2112
 9110TIP3    H151525   4.431   5.531  11.521 -0.8980  0.0585 -0.4842
 9110TIP3    H251526   4.395   5.394  11.467 -0.2487 -0.6507  0.8386
 9111TIP3   OH251527   3.711   7.110  10.592  0.5174 -0.1176 -0.6373
 9111TIP3    H151528   3.730   7.108  10.498  1.6804  3.3184 -0.6293
 9111TIP3    H251529   3.619   7.085  10.598  0.2103  0.2352 -2.7950
 9112TIP3   OH251530   1.730   4.720  12.475 -0.3631  0.4420  0.6572
 9112TIP3    H151531   1.733   4.691  12.384 -1.9688 -0.4454  0.8478
 9112TIP3    H251532   1.790   4.661  12.521 -0.9730 -0.3501  0.4668
 9113TIP3   OH251533   6.804   6.017  12.787  0.4025 -0.1488 -0.3841
 9113TIP3    H151534   6.808   6.015  12.691 -1.1192 -2.3962 -0.4546
 9113TIP3    H251535   6.730   5.962  12.810  0.8764  0.1320  2.1307
 9114TIP3   OH251536   1.448   6.668  10.466  0.4525 -0.4692  0.2555
 9114TIP3    H151537   1.394   6.661  10.545 -1.7270 -0.1692 -1.1084
 9114TIP3    H251538   1.432   6.585  10.420  1.2466 -0.4035 -0.1453
 9115TIP3   OH251539   6.697   7.452  10.058  0.3912  0.0837 -0.1374
 9115TIP3    H151540   6.767   7.454   9.993 -0.4217  0.5224 -1.0195
 9115TIP3    H251541   6.639   7.524  10.034 -1.8196 -1.8796 -1.1207
 9116TIP3   OH251542   5.650   3.974  11.463  0.4102  0.0157 -0.1842
 9116TIP3    H151543   5.673   4.052  11.412 -0.0772  0.4547  0.2656
 9116TIP3    H251544   5.675   3.996  11.553  1.9962 -1.0504 -0.3210
 9117TIP3   OH251545   2.993   6.805  12.034  0.2463  0.6123 -0.8641
 9117TIP3    H151546   2.966   6.772  12.120 -1.2329 -0.3871 -1.6606
 9117TIP3    H251547   2.946   6.887  12.024  2.3405  2.0421  0.2587
 9118TIP3   OH251548   1.608   7.231  12.038 -0.0770 -0.1019 -0.0376
 9118TIP3    H151549   1.622   7.234  11.943 -0.7675 -1.5641 -0.2171
 9118TIP3    H251550   1.623   7.139  12.061  3.6664  0.7853  1.9046
 9119TIP3   OH251551   3.469   0.787  10.458  0.1829  0.0627 -0.6910
 9119TIP3    H151552   3.466   0.708  10.513 -1.0123 -0.4898 -1.5090
 9119TIP3    H251553   3.531   0.844  10.502 -0.4669 -0.4991  1.0341
 9120TIP3   OH251554   6.172   0.147  12.036 -0.0418 -0.2062 -0.4632
 9120TIP3    H151555   6.243   0.096  11.998  0.6908  0.2198  0.2887
 9120TIP3    H251556   6.181   0.134  12.131  1.8658  3.3568  0.0005
 9121TIP3   OH251557   6.388   5.458  10.654 -0.2031  0.3546  0.8837
 9121TIP3    H151558   6.482   5.449  10.641  0.0256  1.5902  1.5287
 9121TIP3    H251559   6.351   5.458  10.565  0.3317 -0.7023  0.6516
 9122TIP3   OH251560   2.673   5.262  10.756 -0.4156  0.0476  0.0103
 9122TIP3    H151561   2.723   5.343  10.765  0.5876 -0.5796  0.2450
 9122TIP3    H251562   2.591   5.288  10.713 -0.0723  1.1611  0.0171
 9123TIP3   OH251563   7.351   7.601  11.993 -0.4962  0.0229  0.2295
 9123TIP3    H151564   7.377   7.509  11.987  0.8765  0.4006 -0.0451
 9123TIP3    H251565   7.379   7.628  12.080  0.5052  0.5642 -0.2430
 9124TIP3   OH251566   7.454   1.354  11.656  0.2984  0.4609 -0.4813
 9124TIP3    H151567   7.476   1.274  11.608 -0.2604  0.5783 -0.9488
 9124TIP3    H251568   7.519   1.358  11.726 -0.6454 -1.2638  0.5669
 9125TIP3   OH251569   6.375   0.368  12.273 -0.0631  0.1359 -0.2123
 9125TIP3    H151570   6.325   0.291  12.301 -1.0104  0.8869  0.2327
 9125TIP3    H251571   6.418   0.399  12.353  0.8336 -0.2962 -0.5208
 9126TIP3   OH251572   2.167   7.011  10.404 -0.0417  0.6119 -0.6379
 9126TIP3    H151573   2.125   7.076  10.347  0.0062 -0.5178 -2.0315
 9126TIP3    H251574   2.250   7.052  10.429  0.8571  0.4506 -3.0151
 9127TIP3   OH251575   3.380   6.205  11.937 -0.0709 -0.4435  0.7314
 9127TIP3    H151576   3.429   6.192  12.018 -0.5946 -0.9983  0.9703
 9127TIP3    H251577   3.444   6.242  11.875  0.1508  0.6852  1.6049
 9128TIP3   OH251578   1.938   3.254  12.058 -0.0603  0.3008 -0.1627
 9128TIP3    H151579   2.017   3.297  12.024  0.1486 -0.0997 -0.1930
 9128TIP3    H251580   1.931   3.284  12.148  0.6184 -0.3245  0.1095
 9129TIP3   OH251581   2.461   3.254  10.978  0.0810  1.0724  0.1190
 9129TIP3    H151582   2.493   3.174  11.020 -0.0655  0.2454 -1.2906
 9129TIP3    H251583   2.366   3.248  10.984 -0.1369 -0.6288 -2.9501
 9130TIP3   OH251584   5.383   0.561  10.340  0.0557  0.3103 -0.2614
 9130TIP3    H151585   5.441   0.578  10.265  0.0317  0.7130 -0.1911
 9130TIP3    H251586   5.398   0.634  10.399  0.4641 -0.2859  0.3779
 9131TIP3   OH251587   6.417   7.389  12.022  0.2195  0.1787 -0.1622
 9131TIP3    H151588   6.349   7.406  12.087  2.9236  2.6175  2.3556
 9131TIP3    H251589   6.433   7.295  12.027 -0.8088  0.0574  1.4465
 9132TIP3   OH251590   5.598   5.213  10.356  0.1324  0.3561  0.2108
 9132TIP3    H151591   5.529   5.256  10.306  0.2882 -0.4065 -0.6944
 9132TIP3    H251592   5.647   5.285  10.396 -1.5523  0.8871  1.3984
 9133TIP3   OH251593   7.397   5.188  12.236 -0.4803  0.1857  0.4893
 9133TIP3    H151594   7.458   5.126  12.276  1.1737  1.1545 -0.4034
 9133TIP3    H251595   7.429   5.274  12.263 -2.1191  0.7092  0.8665
 9134TIP3   OH251596   1.722   4.454  11.896 -0.4980 -0.2603  0.5956
 9134TIP3    H151597   1.676   4.370  11.888 -0.5712 -0.2564  0.9675
 9134TIP3    H251598   1.771   4.447  11.978  2.1110 -1.2145 -0.9362
 9135TIP3   OH251599   2.594   6.972  12.195 -0.6032 -0.2505  0.3893
 9135TIP3    H151600   2.569   7.045  12.252 -0.8564 -0.4194  0.5016
 9135TIP3    H251601   2.662   6.926  12.244 -0.0104  0.2587  0.0486
 9136TIP3   OH251602   5.626   6.122  10.236 -0.1918 -0.2984 -0.1163
 9136TIP3    H151603   5.634   6.034  10.200 -1.3093 -0.1647 -0.7740
 9136TIP3    H251604   5.710   6.164  10.218 -0.4552 -0.4817 -1.9951
 9137TIP3   OH251605   6.369   2.009   9.975  0.9487  0.3145  0.2950
 9137TIP3    H151606   6.364   1.982  10.066  1.9269  0.1045  0.3027
 9137TIP3    H251607   6.327   2.095   9.972  0.1693 -0.0449  0.7775
 9138TIP3   OH251608   5.398   3.792  10.961  0.0633 -0.1355 -1.0728
 9138TIP3    H151609   5.431   3.775  10.873 -0.6919 -0.3276 -1.3263
 9138TIP3    H251610   5.428   3.716  11.012  0.3026 -0.1381 -1.2144
 9139TIP3   OH251611   1.469   6.433  11.036 -0.1987  0.3435  0.6416
 9139TIP3    H151612   1.565   6.433  11.034 -0.1073 -3.1720 -0.3316
 9139TIP3    H251613   1.447   6.522  11.063  3.2729  1.6981 -0.3760
 9140TIP3   OH251614   7.131   2.020  10.921  0.3728  0.0822  0.5467
 9140TIP3    H151615   7.065   2.013  10.851  1.1745 -1.1624 -0.1155
 9140TIP3    H251616   7.214   2.006  10.877  0.8079 -2.4639  1.9644
 9141TIP3   OH251617   2.562   5.770  11.799  0.0915  0.3731  0.6080
 9141TIP3    H151618   2.592   5.686  11.765 -0.7842  0.9231 -1.7001
 9141TIP3    H251619   2.481   5.749  11.846  0.3972 -0.1861  0.9016
 9142TIP3   OH251620   0.780   6.785  12.201 -0.9070  0.3900 -0.0298
 9142TIP3    H151621   0.705   6.782  12.141 -0.3130 -0.6437 -0.7561
 9142TIP3    H251622   0.839   6.850  12.162 -1.1335  0.7378  0.1987
 9143TIP3   OH251623   0.268   7.375  11.795 -0.0412  0.2436  0.2583
 9143TIP3    H151624   0.254   7.433  11.720 -0.0517  1.6308  1.3014
 9143TIP3    H251625   0.194   7.392  11.853 -1.1294 -2.2873 -0.2614
 9144TIP3   OH251626   3.655   0.017  11.094 -0.3229  0.9385  0.0489
 9144TIP3    H151627   3.660   0.040  11.187  1.1156 -3.8230  1.4058
 9144TIP3    H251628   3.567  -0.020  11.084  0.0181  0.1700 -0.1209
 9145TIP3   OH251629   0.496   1.473  11.847  0.3456  0.0736  0.0894
 9145TIP3    H151630   0.465   1.463  11.938  3.4272 -0.9836  1.1349
 9145TIP3    H251631   0.470   1.562  11.823  0.3133  0.7490  2.3679
 9146TIP3   OH251632   2.204   4.161  10.380 -0.0272  0.0373 -0.2706
 9146TIP3    H151633   2.124   4.112  10.361 -0.7410  0.7356  0.7959
 9146TIP3    H251634   2.191   4.193  10.469  0.9996  1.0164 -0.4565
 9147TIP3   OH251635   3.289   5.336  10.808  0.0236 -0.3878 -0.4578
 9147TIP3    H151636   3.383   5.338  10.826  0.3876 -1.2171 -2.0846
 9147TIP3    H251637   3.282   5.326  10.713 -1.7345  0.7162 -0.5052
 9148TIP3   OH251638   2.554   2.370  12.061  0.1594  0.1458 -0.2186
 9148TIP3    H151639   2.573   2.279  12.085 -1.0374  0.1390  0.7682
 9148TIP3    H251640   2.467   2.368  12.022 -0.2074  0.9601  0.5114
 9149TIP3   OH251641   1.267   1.692  11.411 -0.6356  0.0781 -0.1801
 9149TIP3    H151642   1.314   1.636  11.350  0.5362 -1.1223  1.7549
 9149TIP3    H251643   1.330   1.761  11.434 -1.5253  1.3306 -1.2801
 9150TIP3   OH251644   0.225   2.426  11.347 -0.0299  0.1223 -0.7913
 9150TIP3    H151645   0.200   2.361  11.280  0.2627  0.2910 -1.0623
 9150TIP3    H251646   0.232   2.508  11.299  1.7827 -0.0427 -0.8743
 9151TIP3   OH251647   0.901   5.288  11.240 -0.5436 -0.4139 -0.6907
 9151TIP3    H151648   0.876   5.380  11.251 -1.2506 -0.6185 -0.5742
 9151TIP3    H251649   0.819   5.240  11.241 -0.0718 -1.2979  1.4978
 9152TIP3   OH251650   1.478   5.759  10.904  0.7017 -0.2427  0.1391
 9152TIP3    H151651   1.514   5.794  10.822 -2.4667  1.6694 -0.6094
 9152TIP3    H251652   1.509   5.819  10.971  0.2341  0.4416 -0.2483
 9153TIP3   OH251653   1.302   3.787  10.000  0.0670 -0.2925 -0.1027
 9153TIP3    H151654   1.391   3.816   9.985  0.0455 -0.5397 -0.7020
 9153TIP3    H251655   1.291   3.711   9.944  0.1308 -1.5072  1.4525
 9154TIP3   OH251656   3.962   5.108  10.905  0.0311 -0.3736 -0.3632
 9154TIP3    H151657   3.880   5.099  10.953  0.5176 -0.6522  0.4347
 9154TIP3    H251658   3.940   5.163  10.830 -0.1786  2.3657  1.5703
 9155TIP3   OH251659   5.759   1.918  10.725 -0.5886 -0.2459  0.2583
 9155TIP3    H151660   5.822   1.981  10.691 -0.7380 -0.6898 -0.9019
 9155TIP3    H251661   5.804   1.874  10.797  0.0721  0.1090  0.0640
 9156TIP3   OH251662   3.291   1.767  11.230 -0.7726  0.6951 -0.2219
 9156TIP3    H151663   3.207   1.734  11.196  0.9243 -2.3940 -1.8048
 9156TIP3    H251664   3.302   1.721  11.313 -0.4819  0.8519 -0.1755
 9157TIP3   OH251665   5.170   6.275   9.944 -0.1831 -0.0182  0.1533
 9157TIP3    H151666   5.113   6.327  10.001  0.3880  1.1803 -0.3225
 9157TIP3    H251667   5.183   6.193   9.991 -1.4794  0.0842  0.7280
 9158TIP3   OH251668   3.099   3.701  10.593  0.1983 -0.5045 -0.6696
 9158TIP3    H151669   3.014   3.670  10.562 -1.7326  2.7375  0.8146
 9158TIP3    H251670   3.091   3.699  10.689  0.8449  1.9122 -0.4924
 9159TIP3   OH251671   3.822   4.628  10.871  0.1093 -0.1361 -0.2250
 9159TIP3    H151672   3.824   4.534  10.851 -2.1368 -0.4202  0.5864
 9159TIP3    H251673   3.839   4.632  10.965  0.1002  0.2563 -0.2414
 9160TIP3   OH251674   4.176   1.094  11.842 -0.5673  0.6328  0.0694
 9160TIP3    H151675   4.260   1.115  11.883 -1.2640  2.3940  0.6982
 9160TIP3    H251676   4.197   1.032  11.773  1.2385  1.0012  0.2516
 9161TIP3   OH251677   4.004   3.027  11.582  0.2999 -0.6523  0.4732
 9161TIP3    H151678   3.984   3.078  11.503 -2.8292  1.6538  2.4985
 9161TIP3    H251679   4.098   3.036  11.593  0.3925  1.7268 -1.2737
 9162TIP3   OH251680   1.328   4.679  11.571 -0.3816  0.0719  0.1608
 9162TIP3    H151681   1.233   4.683  11.557 -0.3078  2.2018 -0.0838
 9162TIP3    H251682   1.362   4.633  11.494 -1.2126 -0.9183  0.3649
 9163TIP3   OH251683   2.716   1.376  10.614 -0.0007  0.2753  0.8559
 9163TIP3    H151684   2.690   1.447  10.673  0.0265  0.6142  0.4597
 9163TIP3    H251685   2.687   1.405  10.527  0.4180  0.0096  0.6273
 9164TIP3   OH251686   2.952   0.468  10.784  0.6299  0.2069 -0.1476
 9164TIP3    H151687   2.913   0.423  10.859 -0.0489  1.5416  0.3307
 9164TIP3    H251688   3.041   0.433  10.778 -0.7425 -3.5625 -1.7857
 9165TIP3   OH251689   2.373   7.385  10.522  0.3021 -0.8213 -0.1485
 9165TIP3    H151690   2.377   7.456  10.586 -0.2332 -0.3554 -0.6232
 9165TIP3    H251691   2.399   7.306  10.571  0.6148 -0.3522  0.4510
 9166TIP3   OH251692   5.083   6.134  10.381 -0.0839  0.1968  0.2883
 9166TIP3    H151693   4.999   6.118  10.424 -0.0879 -1.7322 -0.3519
 9166TIP3    H251694   5.147   6.094  10.440  0.2533  0.5266  0.1460
 9167TIP3   OH251695   2.246   7.545   9.920  0.7913  0.1822 -0.8883
 9167TIP3    H151696   2.163   7.571   9.881  0.6027 -1.2157 -1.4905
 9167TIP3    H251697   2.237   7.565  10.013 -0.8978 -1.5057 -0.6395
 9168TIP3   OH251698   0.089   7.420  11.989 -0.1200  0.1395 -0.1289
 9168TIP3    H151699   0.146   7.382  12.055 -1.7888 -1.3646  0.5179
 9168TIP3    H251700   0.066   7.506  12.023 -0.3288 -0.3023  0.8602
 9169TIP3   OH251701   3.089   3.297  11.222 -0.2663  0.1612 -0.1946
 9169TIP3    H151702   3.024   3.365  11.241 -1.9800 -1.3758 -0.3093
 9169TIP3    H251703   3.055   3.219  11.265  0.9919 -0.9447 -1.1483
 9170TIP3   OH251704   3.436   4.595  10.748  0.0015  0.0110 -0.0487
 9170TIP3    H151705   3.362   4.645  10.781  0.8822  1.5823 -0.3281
 9170TIP3    H251706   3.399   4.511  10.722 -1.8225  0.9932 -0.8497
 9171TIP3   OH251707   3.377   3.299  10.873  0.1114  0.0601 -0.1254
 9171TIP3    H151708   3.362   3.369  10.810 -0.3586 -0.5286 -0.6771
 9171TIP3    H251709   3.302   3.241  10.863  1.1512 -1.2502 -0.6623
 9172TIP3   OH251710   6.690   2.163  11.903  0.0903  0.6042  0.8293
 9172TIP3    H151711   6.600   2.185  11.924 -0.4406  0.5195 -1.1154
 9172TIP3    H251712   6.724   2.241  11.859  0.1980 -0.1567 -0.4940
 9173TIP3   OH251713   6.677   3.528  10.569 -0.5271 -0.7697 -0.2060
 9173TIP3    H151714   6.715   3.449  10.607  0.9129 -1.0252 -2.0463
 9173TIP3    H251715   6.661   3.506  10.478 -0.0546  1.0567 -0.7693
 9174TIP3   OH251716   0.925   0.131  11.458 -0.2822 -0.0882 -0.4665
 9174TIP3    H151717   1.013   0.111  11.425 -0.4689  0.3619 -1.2687
 9174TIP3    H251718   0.925   0.098  11.548  0.5760 -0.4500 -0.5878
 9175TIP3   OH251719   0.910   7.385  11.255 -0.3162 -0.2704 -0.6895
 9175TIP3    H151720   0.982   7.356  11.198 -0.1887 -0.4420 -0.4449
 9175TIP3    H251721   0.953   7.427  11.329 -0.4030 -1.4494  0.0621
 9176TIP3   OH251722   2.536   7.094  11.665  0.0061  0.2554  0.9924
 9176TIP3    H151723   2.510   7.008  11.697 -0.0128  0.0041  0.3219
 9176TIP3    H251724   2.553   7.145  11.744  3.1804 -1.2873  1.4944
 9177TIP3   OH251725   1.357   2.047  12.573 -0.4140 -0.4653 -0.2118
 9177TIP3    H151726   1.412   1.969  12.577  0.9433  0.4341 -0.7165
 9177TIP3    H251727   1.364   2.086  12.661 -0.3190 -0.3895 -0.2541
 9178TIP3   OH251728   4.684   2.800  11.942 -0.5989  0.3868 -0.3107
 9178TIP3    H151729   4.733   2.782  12.023  1.1678 -1.9301 -1.7577
 9178TIP3    H251730   4.595   2.820  11.972 -0.1638 -0.9931  2.1933
 9179TIP3   OH251731   0.701   6.612  11.106 -0.2714  0.5072 -0.1383
 9179TIP3    H151732   0.699   6.548  11.035 -0.2479 -1.3066  1.4377
 9179TIP3    H251733   0.616   6.602  11.149  0.5774 -0.0979  1.4796
 9180TIP3   OH251734   1.967   1.166  13.550  0.2894 -0.5462  0.1818
 9180TIP3    H151735   2.008   1.253  13.546  0.5889 -0.7173 -0.4942
 9180TIP3    H251736   2.021   1.112  13.493 -2.0139 -0.3261 -2.4130
 9181TIP3   OH251737   0.365   0.571  10.056 -0.0641 -0.0975  0.1678
 9181TIP3    H151738   0.354   0.651  10.107 -1.2431  0.2482 -0.5743
 9181TIP3    H251739   0.399   0.507  10.118  1.5759  1.1383  0.6171
 9182TIP3   OH251740   7.670   3.726  10.845  0.3914 -0.0107  0.3433
 9182TIP3    H151741   7.751   3.720  10.794 -0.6192  3.1352 -1.9207
 9182TIP3    H251742   7.667   3.817  10.874 -1.5291 -0.4929  1.8709
 9183TIP3   OH251743   3.000   6.794  11.147  0.2266 -0.1570  0.3882
 9183TIP3    H151744   3.092   6.815  11.162  1.4233 -1.9174 -3.2236
 9183TIP3    H251745   2.980   6.727  11.212  1.2042  0.7408  1.6843
 9184TIP3   OH251746   5.263   4.438  10.021 -0.0285  0.6965 -0.4375
 9184TIP3    H151747   5.170   4.460  10.011 -0.3573 -0.0368  0.8007
 9184TIP3    H251748   5.267   4.343  10.007  0.6606  0.8225 -1.1831
 9185TIP3   OH251749   1.063   7.160  10.090 -0.2021  0.0558 -0.0300
 9185TIP3    H151750   1.143   7.189  10.046 -0.3168  0.6126  0.1228
 9185TIP3    H251751   1.038   7.080  10.043  0.2981  0.0189 -0.2435
 9186TIP3   OH251752   0.157   6.918  10.363 -0.0506 -0.1729 -0.0105
 9186TIP3    H151753   0.204   6.839  10.389 -0.2924  0.3255  2.0776
 9186TIP3    H251754   0.226   6.981  10.344  0.1387 -0.3722  0.0037
 9187TIP3   OH251755   6.202   1.449  11.221 -0.0350 -0.1843  0.3000
 9187TIP3    H151756   6.162   1.533  11.200  1.0706 -0.3074 -2.8024
 9187TIP3    H251757   6.186   1.437  11.315  0.9895  4.1525  1.2505
 9188TIP3   OH251758   0.135   6.058  11.345 -0.0451  0.6318  0.1509
 9188TIP3    H151759   0.137   6.009  11.427  0.6392 -1.9968 -1.3053
 9188TIP3    H251760   0.226   6.067  11.319 -0.2940  0.2901 -0.9109
 9189TIP3   OH251761   3.991   2.847  11.223  0.2874  0.6118  0.3636
 9189TIP3    H151762   3.950   2.829  11.138  1.7965 -1.0997 -0.0709
 9189TIP3    H251763   4.027   2.762  11.250  0.3848  1.2625  2.4431
 9190TIP3   OH251764   6.820   4.851  11.264 -0.2133  0.0564  0.2694
 9190TIP3    H151765   6.857   4.932  11.301  0.1358  0.4628 -0.9388
 9190TIP3    H251766   6.730   4.875  11.240 -0.5375 -0.2914  1.1040
 9191TIP3   OH251767   3.161   1.939  10.351 -0.6701 -0.5196 -0.1614
 9191TIP3    H151768   3.234   1.983  10.396  0.7271 -1.8374 -1.0258
 9191TIP3    H251769   3.168   1.847  10.378  0.5343 -1.4883 -3.2637
 9192TIP3   OH251770   3.102   2.309  10.570 -0.1786  0.7170  0.2047
 9192TIP3    H151771   3.118   2.311  10.475 -1.5888 -2.4786 -0.2170
 9192TIP3    H251772   3.007   2.318  10.579 -0.4671 -2.2656  0.9973
 9193TIP3   OH251773   3.001   3.409  10.346 -0.3306 -0.5359 -0.0336
 9193TIP3    H151774   2.944   3.403  10.269 -0.8487  0.5392  0.2564
 9193TIP3    H251775   2.946   3.446  10.415  0.3864 -0.6084  0.5982
 9194TIP3   OH251776   4.547   0.776  12.017  0.1992 -0.1690 -0.2156
 9194TIP3    H151777   4.468   0.765  12.070 -0.9102  2.6652 -1.1054
 9194TIP3    H251778   4.518   0.765  11.927  0.7724  0.9469 -0.5608
 9195TIP3   OH251779   3.033   4.530  11.431  0.9414  0.6061  0.1739
 9195TIP3    H151780   2.961   4.591  11.419 -0.0231  0.2865  3.2860
 9195TIP3    H251781   3.105   4.583  11.465  1.3516  0.5473 -0.5870
 9196TIP3   OH251782   4.906   4.263  11.803 -0.5771  0.5439  0.0508
 9196TIP3    H151783   4.909   4.243  11.897  0.9412  0.6772  0.0664
 9196TIP3    H251784   4.925   4.179  11.761  0.3059  0.7965 -0.0710
 9197TIP3   OH251785   7.209   1.313  12.213 -0.5830 -0.1783  0.2459
 9197TIP3    H151786   7.299   1.345  12.216 -0.9427  0.9352 -0.3078
 9197TIP3    H251787   7.161   1.369  12.273 -1.3928  0.9527 -1.3654
 9198TIP3   OH251788   6.104   1.358  12.589 -0.2241  0.0124 -0.1006
 9198TIP3    H151789   6.014   1.328  12.579 -0.3644  0.8121 -1.4941
 9198TIP3    H251790   6.104   1.447  12.551  1.1284  0.0297 -0.1015
 9199TIP3   OH251791   2.845   4.874   9.994  0.4931 -0.4332 -0.0631
 9199TIP3    H151792   2.822   4.817  10.067 -1.6098 -0.3176 -0.5695
 9199TIP3    H251793   2.842   4.818   9.917 -1.6485  0.2922 -0.5750
 9200TIP3   OH251794   6.698   2.910  11.553 -0.0329 -0.1204 -0.0044
 9200TIP3    H151795   6.666   2.999  11.539  3.0318  1.3551  1.5623
 9200TIP3    H251796   6.732   2.883  11.468  0.5849  0.9038 -0.0914
 9201TIP3   OH251797   2.277   2.623  10.157 -0.1824  0.2185 -0.0079
 9201TIP3    H151798   2.269   2.689  10.088  0.2479 -1.6159 -1.9179
 9201TIP3    H251799   2.193   2.577  10.155  1.0790 -2.2306 -1.9853
 9202TIP3   OH251800   3.272   0.675  10.309  0.5924  0.4044  0.5924
 9202TIP3    H151801   3.342   0.717  10.358  1.1261  0.8089 -0.4794
 9202TIP3    H251802   3.238   0.743  10.251 -0.2871  0.0502  0.6670
 9203TIP3   OH251803   4.525   4.999  11.791  0.0203  0.4876  0.5166
 9203TIP3    H151804   4.487   4.985  11.704  1.6366  0.4362 -0.2109
 9203TIP3    H251805   4.526   4.913  11.832  1.4299  0.0671 -0.3573
 9204TIP3   OH251806   2.730   3.579  11.772 -0.2526  0.3926 -0.3522
 9204TIP3    H151807   2.692   3.667  11.777  0.3329  0.6666 -0.6534
 9204TIP3    H251808   2.656   3.521  11.789 -0.8346  0.9098 -1.0286
 9205TIP3   OH251809   2.581   2.079  12.064  0.2303 -0.0586 -0.3016
 9205TIP3    H151810   2.574   2.034  11.979 -0.8848  0.7394 -0.6572
 9205TIP3    H251811   2.675   2.088  12.078  0.4440 -0.1668 -1.4936
 9206TIP3   OH251812   7.503   3.084  10.851 -0.5543 -0.0017 -0.2412
 9206TIP3    H151813   7.511   3.018  10.920  1.4843  0.3953 -0.0358
 9206TIP3    H251814   7.510   3.168  10.896  2.7155  0.2671 -0.9907
 9207TIP3   OH251815   2.492   2.349  10.723 -0.3812 -0.0227 -0.2287
 9207TIP3    H151816   2.483   2.254  10.736 -0.6420  0.0111 -0.1490
 9207TIP3    H251817   2.445   2.365  10.641 -1.6865  0.2615  0.5428
 9208TIP3   OH251818   6.321   0.539  11.561 -0.3611 -0.2426 -0.2311
 9208TIP3    H151819   6.316   0.444  11.551 -0.7926 -0.3830  1.1216
 9208TIP3    H251820   6.291   0.556  11.651 -1.1775  1.2516 -0.7403
 9209TIP3   OH251821   0.751   0.944   9.859  0.1033 -0.4864  0.6224
 9209TIP3    H151822   0.730   0.959   9.767  1.9506  1.2047  0.4186
 9209TIP3    H251823   0.703   0.865   9.882  0.5304 -1.6314 -2.1189
 9210TIP3   OH251824   0.706   6.703  12.748 -0.2150  0.3788 -0.5881
 9210TIP3    H151825   0.765   6.632  12.772 -0.3963  0.7366  0.9959
 9210TIP3    H251826   0.714   6.709  12.653  1.5971 -0.1768 -0.5103
 9211TIP3   OH251827   3.230   4.451  11.017  0.0666 -0.4703  0.2365
 9211TIP3    H151828   3.320   4.484  11.007 -0.2338  0.3672  0.2010
 9211TIP3    H251829   3.181   4.526  11.051 -0.8962 -0.5359 -0.9277
 9212TIP3   OH251830   4.097   2.261  10.953 -0.7470  0.8301 -0.0868
 9212TIP3    H151831   4.134   2.201  11.018  1.1320  1.4751 -0.4979
 9212TIP3    H251832   4.079   2.342  11.002 -1.0787  0.7145 -0.0123
 9213TIP3   OH251833   1.937   1.472  12.114  0.4930 -0.0717 -0.2715
 9213TIP3    H151834   1.925   1.562  12.144  2.0260  0.3347 -0.7657
 9213TIP3    H251835   1.911   1.474  12.022  0.3001 -0.1860 -0.2184
 9214TIP3   OH251836   1.950   3.283  10.579  0.2281  0.2811  0.3392
 9214TIP3    H151837   1.970   3.313  10.668 -2.2303  0.7008  0.8126
 9214TIP3    H251838   1.932   3.364  10.531  0.5112 -0.0148 -0.2651
 9215TIP3   OH251839   7.008   7.281  10.385  0.0184 -0.3988  0.0449
 9215TIP3    H151840   7.063   7.215  10.343 -1.4887 -1.2354 -0.6803
 9215TIP3    H251841   6.978   7.337  10.313  1.8731  1.6091  0.7257
 9216TIP3   OH251842   2.354   1.052  12.508 -0.3762 -0.0620  0.0093
 9216TIP3    H151843   2.270   1.039  12.465 -0.9488  0.3897  0.9467
 9216TIP3    H251844   2.419   1.026  12.443 -1.1836  0.8956 -1.2143
 9217TIP3   OH251845   1.924   7.610  12.551 -0.1248 -0.1066  0.0238
 9217TIP3    H151846   1.840   7.565  12.548 -0.2947  0.2215 -0.1654
 9217TIP3    H251847   1.911   7.690  12.500  0.6069 -0.5636 -0.9225
 9218TIP3   OH251848   4.288   0.692  12.793 -0.3241 -0.2591 -0.5927
 9218TIP3    H151849   4.380   0.685  12.821 -0.0854  1.1719 -0.9442
 9218TIP3    H251850   4.238   0.688  12.874  0.2099  1.2214 -0.1537
 9219TIP3   OH251851   4.782   0.786  11.065 -0.5788 -0.2603 -0.5810
 9219TIP3    H151852   4.858   0.843  11.058 -0.1200 -1.0229 -2.3530
 9219TIP3    H251853   4.734   0.819  11.141  2.2241 -0.6269  1.5165
 9220TIP3   OH251854   0.674   0.982   9.567  0.0699  0.5487  0.2772
 9220TIP3    H151855   0.733   1.056   9.553 -0.1610  0.9388  1.3173
 9220TIP3    H251856   0.588   1.022   9.581  0.3865  0.2942  3.5860
 9221TIP3   OH251857   4.161   4.631  10.458  0.0842 -0.4792  0.3813
 9221TIP3    H151858   4.148   4.636  10.553  0.9082  0.0890  0.4794
 9221TIP3    H251859   4.089   4.682  10.421 -0.1869 -0.6265  0.7023
 9222TIP3   OH251860   1.941   5.855  10.556  0.0037 -0.1283 -0.1287
 9222TIP3    H151861   1.881   5.921  10.523 -1.3926 -1.7766 -1.0957
 9222TIP3    H251862   1.939   5.865  10.651 -1.2133  0.3687 -0.1923
 9223TIP3   OH251863   4.845   3.676  11.055 -0.2637  0.1789  0.2087
 9223TIP3    H151864   4.927   3.657  11.009 -0.0993  0.4483  0.3894
 9223TIP3    H251865   4.872   3.724  11.133 -0.2534 -2.5601  2.0451
 9224TIP3   OH251866   0.142   5.501  10.259  0.0754 -0.4047 -0.1367
 9224TIP3    H151867   0.106   5.448  10.189 -0.7246 -0.3737  0.2350
 9224TIP3    H251868   0.111   5.459  10.339 -0.3776  0.4829  0.1632
 9225TIP3   OH251869   4.175   1.952  10.517 -0.3286 -0.9625  0.8545
 9225TIP3    H151870   4.195   1.879  10.457 -0.9787 -1.4044  1.1559
 9225TIP3    H251871   4.250   2.010  10.511 -0.4031 -0.9707 -0.4383
 9226TIP3   OH251872   1.579   4.995   9.957  0.0886  0.3013 -0.1978
 9226TIP3    H151873   1.498   4.945   9.944  0.3751  0.4308 -3.0361
 9226TIP3    H251874   1.642   4.930   9.989 -0.6520 -0.1994  0.2734
 9227TIP3   OH251875   7.601   3.054  10.398 -0.0951 -0.1858  0.2495
 9227TIP3    H151876   7.518   3.101  10.412 -0.7398 -1.2009 -0.0406
 9227TIP3    H251877   7.650   3.068  10.479 -0.6702  0.1766  0.5507
 9228TIP3   OH251878   0.650   4.971  10.594  0.4013  0.1137  0.1872
 9228TIP3    H151879   0.566   4.969  10.639  0.5254  0.3693  0.4334
 9228TIP3    H251880   0.635   5.025  10.516 -0.1647 -1.4071 -0.8106
 9229TIP3   OH251881   3.154   4.424  10.756 -0.0354  0.1371 -0.4070
 9229TIP3    H151882   3.175   4.445  10.847  2.8229 -0.0198 -0.9137
 9229TIP3    H251883   3.188   4.336  10.743 -0.4607  0.1285 -1.6140
 9230TIP3   OH251884   3.626   1.827  12.858 -0.1110 -0.0134 -0.5597
 9230TIP3    H151885   3.624   1.737  12.890 -0.5437  0.4447  0.7828
 9230TIP3    H251886   3.537   1.842  12.826 -0.2160  0.1286 -0.2052
 9231TIP3   OH251887   0.520   3.913  11.025 -0.4061 -0.6524  0.1702
 9231TIP3    H151888   0.534   3.819  11.016 -1.3494 -0.7377 -0.6062
 9231TIP3    H251889   0.567   3.952  10.951  0.2326 -0.4749  0.6582
 9232TIP3   OH251890   1.673   4.760  11.452  0.1552 -0.2751 -0.6070
 9232TIP3    H151891   1.679   4.692  11.385  0.4277 -0.9250  0.0606
 9232TIP3    H251892   1.681   4.713  11.535  0.5476  0.5949 -0.1350
 9233TIP3   OH251893   5.678   3.887  10.273  0.2467 -0.2078  0.4315
 9233TIP3    H151894   5.607   3.928  10.224 -0.5113 -1.5100  0.3949
 9233TIP3    H251895   5.755   3.899  10.217 -0.4329 -0.8737 -0.6955
 9234TIP3   OH251896   3.760   3.176  10.902  0.2807 -0.7023  0.2515
 9234TIP3    H151897   3.730   3.198  10.989  0.7708  2.2005 -0.2276
 9234TIP3    H251898   3.842   3.224  10.891 -0.7259  0.6182 -2.4527
 9235TIP3   OH251899   2.287   4.348  10.967 -0.2854 -0.1663  0.4449
 9235TIP3    H151900   2.294   4.254  10.982 -0.0365 -0.5298 -1.6498
 9235TIP3    H251901   2.195   4.361  10.943  0.1423 -0.2469 -1.3311
 9236TIP3   OH251902   5.367   0.288  10.226  0.4684  0.3567 -0.5812
 9236TIP3    H151903   5.356   0.380  10.249 -0.6477  0.3479 -0.9883
 9236TIP3    H251904   5.452   0.264  10.262  1.0943  1.7328 -1.0609
 9237TIP3   OH251905   4.948   3.339  11.659  0.2473 -0.3302 -0.3369
 9237TIP3    H151906   4.983   3.345  11.748  1.1288 -0.8306 -0.6330
 9237TIP3    H251907   4.979   3.419  11.615 -1.4159  0.6552  0.1917
 9238TIP3   OH251908   0.424   3.637  11.297 -0.7364 -0.1811 -0.5758
 9238TIP3    H151909   0.343   3.607  11.257 -1.4557 -0.7853  1.2901
 9238TIP3    H251910   0.493   3.591  11.249 -1.5569 -0.7668 -1.2102
 9239TIP3   OH251911   2.012   3.581  10.911  0.0012  0.3838 -0.1587
 9239TIP3    H151912   2.023   3.674  10.929 -1.2069  0.3743  0.8074
 9239TIP3    H251913   1.922   3.572  10.881 -0.5786 -0.6991  1.7146
 9240TIP3   OH251914   0.257   7.170  12.137  0.5045  0.4276  0.1026
 9240TIP3    H151915   0.251   7.203  12.227 -0.5090  1.1141 -0.2035
 9240TIP3    H251916   0.203   7.091  12.137  1.3065 -0.1283  0.3356
 9241TIP3   OH251917   0.969   6.719  11.178  0.1320  0.1575  0.7681
 9241TIP3    H151918   0.978   6.745  11.087 -0.9323  0.0198  0.6138
 9241TIP3    H251919   0.900   6.653  11.178  0.1111  0.1668  1.6780
 9242TIP3   OH251920   3.403   3.457  10.644 -0.4057 -0.5037 -0.4361
 9242TIP3    H151921   3.318   3.450  10.602  0.5533 -2.3553 -2.2420
 9242TIP3    H251922   3.466   3.441  10.574  1.3688 -0.7471  1.1330
 9243TIP3   OH251923   0.465   0.315  11.168 -0.4317  0.0347 -0.0563
 9243TIP3    H151924   0.521   0.351  11.237  1.3589  1.7418 -2.2487
 9243TIP3    H251925   0.382   0.296  11.212  1.2061 -0.8693  2.9530
 9244TIP3   OH251926   5.777   4.501  12.275  0.7722 -0.6410  0.0020
 9244TIP3    H151927   5.827   4.434  12.228  0.7107 -0.0635 -0.9089
 9244TIP3    H251928   5.698   4.456  12.305 -0.1166 -0.5929 -2.1043
 9245TIP3   OH251929   4.946   1.069  11.851  0.2069 -0.3341  0.1532
 9245TIP3    H151930   4.863   1.108  11.824 -0.2047 -0.7775  0.7440
 9245TIP3    H251931   4.937   0.976  11.832  1.3191 -0.1330 -1.5736
 9246TIP3   OH251932   3.954   2.600  11.364 -0.1332  0.2347 -0.2280
 9246TIP3    H151933   3.964   2.656  11.442  0.1869  2.2912 -1.6506
 9246TIP3    H251934   3.867   2.561  11.373 -0.3778  0.9813  0.8318
 9247TIP3   OH251935   2.011   4.946  10.011  0.2783  0.2240  0.0808
 9247TIP3    H151936   2.008   4.909   9.923  0.1510  0.5387 -0.0472
 9247TIP3    H251937   2.060   5.028  10.001  0.3457  0.2146  0.3200
 9248TIP3   OH251938   3.460   2.653  10.406 -0.2394 -0.5241 -0.4547
 9248TIP3    H151939   3.531   2.633  10.466  0.1921  0.2244 -0.7107
 9248TIP3    H251940   3.416   2.569  10.393  0.4978 -0.9632 -0.1728
 9249TIP3   OH251941   2.090   0.545  10.108 -0.1053 -0.3733  0.3516
 9249TIP3    H151942   2.011   0.515  10.152  0.9777 -0.6508  2.1960
 9249TIP3    H251943   2.090   0.640  10.122 -1.0622 -0.0789 -1.3408
 9250TIP3   OH251944   3.605   3.346  11.799  0.3653  0.5773  0.6312
 9250TIP3    H151945   3.661   3.278  11.762 -0.1109  0.0794  0.8107
 9250TIP3    H251946   3.666   3.415  11.825  0.8060  0.4543 -0.0389
 9251TIP3   OH251947   3.524   2.484  11.750 -0.3608 -0.8242  0.7097
 9251TIP3    H151948   3.571   2.563  11.724  1.2650 -1.5964  1.1193
 9251TIP3    H251949   3.496   2.502  11.840  1.5448 -1.3031  1.4559
 9252TIP3   OH251950   7.649   2.744  10.796  0.1313  0.2245 -0.5895
 9252TIP3    H151951   7.639   2.774  10.886  0.1387 -0.5775 -0.3199
 9252TIP3    H251952   7.561   2.717  10.770  0.7267 -3.2217  0.5086
 9253TIP3   OH251953   1.008   1.068  10.724 -0.1811 -0.3856 -0.5891
 9253TIP3    H151954   1.000   1.097  10.634 -0.3789 -2.0932 -1.1677
 9253TIP3    H251955   1.011   1.148  10.776  1.0052  0.6649 -2.1877
 9254TIP3   OH251956   1.870   5.842  11.086 -0.2401  0.0135 -0.2683
 9254TIP3    H151957   1.932   5.850  11.159  0.8157 -0.0043 -1.1332
 9254TIP3    H251958   1.789   5.810  11.126  0.3909 -0.2243  0.8536
 9255TIP3   OH251959   4.519   4.189  12.433  0.0027  0.0187  0.4064
 9255TIP3    H151960   4.549   4.137  12.508 -1.8776  1.5134  2.2944
 9255TIP3    H251961   4.554   4.276  12.449 -0.8825  0.4856 -0.1457
 9256TIP3   OH251962   0.255   3.048  10.982  0.0049  0.8151  0.3307
 9256TIP3    H151963   0.241   2.961  10.946 -1.4258  1.3118 -0.4032
 9256TIP3    H251964   0.349   3.054  10.996  0.2611 -0.3947 -0.7606
 9257TIP3   OH251965   3.348   6.435  10.868  0.1860 -0.4785 -0.4243
 9257TIP3    H151966   3.343   6.458  10.775 -0.4643 -2.2005 -0.8507
 9257TIP3    H251967   3.370   6.517  10.911 -1.7564  0.9024 -1.8617
 9258TIP3   OH251968   2.345   1.401  10.172  0.1325  0.5017 -0.0707
 9258TIP3    H151969   2.322   1.340  10.242  0.4938 -1.2295 -1.3598
 9258TIP3    H251970   2.426   1.366  10.135 -0.0696  1.3115 -1.3721
 9259TIP3   OH251971   6.122   4.316  11.657  0.7011  0.0069  0.3127
 9259TIP3    H151972   6.110   4.313  11.752 -0.3159 -1.4308  0.1774
 9259TIP3    H251973   6.096   4.404  11.633 -0.9268 -0.1948  1.1755
 9260TIP3   OH251974   7.678   1.732  10.784  0.1616  0.0279 -0.3628
 9260TIP3    H151975   7.650   1.674  10.713 -0.6993 -0.2382  0.1755
 9260TIP3    H251976   7.749   1.783  10.746  0.1983 -0.6100 -1.1923
 9261TIP3   OH251977   6.061   0.322  10.028 -0.0654 -0.2328  0.2169
 9261TIP3    H151978   5.967   0.313  10.016 -0.1963 -0.7844  1.5097
 9261TIP3    H251979   6.100   0.274   9.955 -0.7119  2.4218 -2.0598
 9262TIP3   OH251980   0.688   2.546   9.804 -0.1302 -0.4605 -0.3811
 9262TIP3    H151981   0.743   2.613   9.845 -1.1983 -0.8971  1.9378
 9262TIP3    H251982   0.599   2.582   9.808 -0.4336 -1.0914 -1.1741
 9263TIP3   OH251983   0.540   5.710  12.241 -0.2028 -0.6279 -0.4037
 9263TIP3    H151984   0.629   5.678  12.253  0.0038  0.3835  0.9777
 9263TIP3    H251985   0.551   5.800  12.211 -0.7755 -0.8868 -1.4277
 9264TIP3   OH251986   5.616   7.334  10.045  0.4612 -0.1079 -0.3754
 9264TIP3    H151987   5.631   7.325   9.951  1.3036  0.2904 -0.2848
 9264TIP3    H251988   5.651   7.420  10.067 -0.1376 -0.0082  0.2286
 9265TIP3   OH251989   5.915   3.988  10.165  0.3000  0.1274 -0.4346
 9265TIP3    H151990   6.006   3.972  10.141  0.8057  1.2506  0.6227
 9265TIP3    H251991   5.909   4.083  10.176  0.1490 -0.2103  3.7656
 9266TIP3   OH251992   6.023   1.436  10.702  0.3557 -0.5686 -0.1214
 9266TIP3    H151993   5.946   1.491  10.711  1.1254  0.2415  2.2557
 9266TIP3    H251994   6.084   1.488  10.650 -0.5520 -1.1425 -1.8594
 9267TIP3   OH251995   2.372   1.604  12.982  0.3324 -1.0000  0.2670
 9267TIP3    H151996   2.284   1.638  12.992 -0.6887 -3.3664  0.0634
 9267TIP3    H251997   2.408   1.650  12.906 -0.0997  1.1093  1.2951
 9268TIP3   OH251998   1.809   2.303  10.952  0.4143 -0.3662  0.0770
 9268TIP3    H151999   1.862   2.282  10.875 -0.1020  0.5655 -0.5416
 9268TIP3    H252000   1.768   2.220  10.976 -1.6472 -0.1649 -2.3673
 9269TIP3   OH252001   3.756   6.956   9.983  0.7267  0.1838 -0.9607
 9269TIP3    H152002   3.830   6.923   9.931 -0.4455 -0.3651 -2.3486
 9269TIP3    H252003   3.710   6.878  10.011  0.5947  0.5311 -0.1845
 9270TIP3   OH252004   6.175   7.330  11.139  0.4961 -0.5115 -0.2395
 9270TIP3    H152005   6.183   7.270  11.212 -0.9139  0.4041  0.7239
 9270TIP3    H252006   6.081   7.336  11.122  0.6787  0.5324 -1.0436
 9271TIP3   OH252007   1.691   5.380  10.788 -0.2212 -0.5150  0.3333
 9271TIP3    H152008   1.693   5.434  10.867 -1.6152 -1.7844  1.3034
 9271TIP3    H252009   1.598   5.374  10.765  0.0017 -1.5514 -0.3946
 9272TIP3   OH252010   6.851   5.109  11.402 -0.1301  0.1296  0.5411
 9272TIP3    H152011   6.854   5.205  11.394 -2.0684  0.1739 -0.1672
 9272TIP3    H252012   6.940   5.085  11.429  1.1223  1.9076 -1.6311
 9273TIP3   OH252013   6.077   4.879  10.766 -0.0497  0.0702  0.3511
 9273TIP3    H152014   6.053   4.951  10.824 -0.3598  1.5645 -1.5035
 9273TIP3    H252015   6.015   4.886  10.693  0.0577 -1.9622 -0.0015
 9274TIP3   OH252016   0.731   6.705  10.351 -0.2047 -0.2321  0.0580
 9274TIP3    H152017   0.750   6.719  10.258  0.4050 -0.4226  0.1460
 9274TIP3    H252018   0.776   6.777  10.395  0.0848 -0.5283  0.2521
 9275TIP3   OH252019   2.101   3.791  10.377 -0.0131 -0.6325 -0.1417
 9275TIP3    H152020   2.040   3.812  10.448  0.4200 -0.7183  0.2604
 9275TIP3    H252021   2.119   3.876  10.336 -0.2589 -0.5805 -0.1442
 9276TIP3   OH252022   4.123   3.152  10.043  0.4456 -0.5786 -0.8472
 9276TIP3    H152023   4.129   3.071  10.093  1.2802 -0.5027 -0.8139
 9276TIP3    H252024   4.213   3.169  10.014  0.3404  0.4912 -0.5974
 9277TIP3   OH252025   4.780   1.613  10.083 -0.6795 -0.1108 -0.1540
 9277TIP3    H152026   4.841   1.683  10.102  1.1965 -0.8723 -2.8282
 9277TIP3    H252027   4.819   1.535  10.122 -1.0943 -0.2303  0.0316
 9278TIP3   OH252028   2.593   1.261  11.043 -0.3651 -0.8977 -0.3232
 9278TIP3    H152029   2.675   1.275  10.997  0.4693 -0.4123  1.2139
 9278TIP3    H252030   2.527   1.309  10.992  0.7295  0.6009 -0.3903
 9279TIP3   OH252031   2.686   5.931  10.589 -0.6217  0.2660 -0.2021
 9279TIP3    H152032   2.608   5.940  10.534  0.0078 -1.1335 -1.3844
 9279TIP3    H252033   2.653   5.897  10.672 -1.4609  1.3394 -0.0775
 9280TIP3   OH252034   1.244   3.768  11.033 -0.0852 -0.0599  0.5319
 9280TIP3    H152035   1.223   3.785  11.124  1.2465  1.3116  0.6198
 9280TIP3    H252036   1.314   3.830  11.012  1.4830 -2.0914 -0.6625
 9281TIP3   OH252037   0.238   1.637  11.934  0.3900  0.3191 -0.3620
 9281TIP3    H152038   0.241   1.711  11.995  0.0500  0.0745 -0.0421
 9281TIP3    H252039   0.205   1.564  11.987 -1.3524  0.4506 -1.2121
 9282TIP3   OH252040   7.538   5.930  10.402 -0.2695 -0.6862  0.0409
 9282TIP3    H152041   7.544   5.909  10.496 -0.1769 -3.0237 -0.4280
 9282TIP3    H252042   7.625   5.912  10.368 -0.4181 -0.2485 -0.5777
 9283TIP3   OH252043   1.445   6.912  10.312  0.3158 -0.8648 -0.4200
 9283TIP3    H152044   1.416   6.827  10.345 -0.0051 -0.6744 -0.2108
 9283TIP3    H252045   1.376   6.973  10.338  1.1125 -0.3279  0.5068
 9284TIP3   OH252046   6.804   4.231  10.818  0.0939  0.1959  0.1251
 9284TIP3    H152047   6.711   4.251  10.827  0.4470  1.0977  2.3393
 9284TIP3    H252048   6.848   4.297  10.871  1.7904 -2.0911  1.7360
 9285TIP3   OH252049   6.044   6.800  10.365 -0.2542 -0.1258  0.2292
 9285TIP3    H152050   6.060   6.875  10.309  0.1989  0.4396  1.0913
 9285TIP3    H252051   5.956   6.815  10.401 -0.3227 -0.2174  0.1039
 9286TIP3   OH252052   6.695   5.934  10.321  0.3562 -0.2646 -0.3207
 9286TIP3    H152053   6.780   5.977  10.327  0.1904  0.1464 -0.8261
 9286TIP3    H252054   6.647   5.964  10.398  0.5084 -0.1296 -0.2789
 9287TIP3   OH252055   1.239   4.399  10.591  0.4224  0.2387 -0.4001
 9287TIP3    H152056   1.309   4.464  10.588  0.6423  0.2269  2.1090
 9287TIP3    H252057   1.285   4.315  10.602  0.0691 -0.1372 -1.6033
 9288TIP3   OH252058   3.675   4.169  11.519 -0.1233 -0.2149  0.1750
 9288TIP3    H152059   3.591   4.154  11.477  0.3495  1.7035 -1.6000
 9288TIP3    H252060   3.659   4.241  11.581  0.1197 -0.1316  0.1440
 9289TIP3   OH252061   0.351   6.568  10.188  0.8041  0.7375 -0.0256
 9289TIP3    H152062   0.276   6.537  10.136  1.9494  0.9509 -1.9132
 9289TIP3    H252063   0.369   6.497  10.248  1.7784 -1.3027 -2.5458
 9290TIP3   OH252064   2.900   1.557  11.964  0.2889 -0.3211  0.5173
 9290TIP3    H152065   2.911   1.582  11.873  1.4676  0.7109  0.9118
 9290TIP3    H252066   2.842   1.481  11.962  1.2462 -1.0357 -1.1704
 9291TIP3   OH252067   2.712   0.841  10.151 -0.1346  0.1078  0.2807
 9291TIP3    H152068   2.744   0.751  10.163  0.1160 -0.2371 -2.3159
 9291TIP3    H252069   2.620   0.838  10.178 -0.5755 -1.3853 -1.2049
 9292TIP3   OH252070   7.595   6.083  12.426  0.1740  0.0812 -0.1481
 9292TIP3    H152071   7.607   5.988  12.421 -2.1299 -0.2757  0.0305
 9292TIP3    H252072   7.500   6.095  12.431  0.4129  2.4064 -0.1271
 9293TIP3   OH252073   4.349   2.906  11.308  0.6876 -0.5564  0.0663
 9293TIP3    H152074   4.398   2.971  11.257  0.1566 -0.3118 -0.1309
 9293TIP3    H252075   4.352   2.938  11.398 -0.5853  0.3764 -0.2020
 9294TIP3   OH252076   0.217   0.986  11.373 -0.2375 -0.1145  0.5544
 9294TIP3    H152077   0.123   0.981  11.354 -0.1739  0.9866 -0.1157
 9294TIP3    H252078   0.224   1.055  11.439  0.2133  0.6370 -0.2705
 9295TIP3   OH252079   4.891   0.344  10.978 -0.1257  0.2709 -0.4444
 9295TIP3    H152080   4.982   0.316  10.969  0.6476  2.4976  0.0263
 9295TIP3    H252081   4.884   0.423  10.925 -1.9274 -0.0901 -0.8176
 9296TIP3   OH252082   0.843   0.082  11.188  0.3743 -0.2926 -0.3063
 9296TIP3    H152083   0.753   0.113  11.178 -0.7058 -2.6710  1.0869
 9296TIP3    H252084   0.870   0.116  11.274  2.1742  3.2270 -2.0578
 9297TIP3   OH252085   6.832   1.111  10.739  0.0498  0.1366 -0.4895
 9297TIP3    H152086   6.762   1.176  10.730  0.1065  0.2443 -0.1661
 9297TIP3    H252087   6.817   1.073  10.825  1.0932  0.9980  0.0979
 9298TIP3   OH252088   3.122   6.225  11.285  0.0243  0.3482 -0.5041
 9298TIP3    H152089   3.070   6.173  11.346  2.0022 -2.9402 -1.3391
 9298TIP3    H252090   3.177   6.280  11.341 -0.1394 -0.5770  0.6146
 9299TIP3   OH252091   0.718   4.158  12.150 -0.5882  0.0048  0.0129
 9299TIP3    H152092   0.798   4.125  12.191 -0.0164  1.6416  0.2953
 9299TIP3    H252093   0.729   4.138  12.057  1.4932  2.5811 -0.4138
 9300TIP3   OH252094   0.705   1.497  10.938 -0.1238 -0.3881 -0.5310
 9300TIP3    H152095   0.634   1.544  10.982  1.6301  0.3968  1.6360
 9300TIP3    H252096   0.671   1.408  10.926 -0.9401 -0.4835  1.9668
 9301TIP3   OH252097   2.555   4.121  10.088  0.3048  0.6381 -0.3643
 9301TIP3    H152098   2.611   4.168  10.150 -1.7591  2.6381  0.1227
 9301TIP3    H252099   2.533   4.040  10.132  2.3118  0.0276 -0.3583
 9302TIP3   OH252100   5.371   7.439  11.406 -0.6019 -0.1874 -0.4941
 9302TIP3    H152101   5.413   7.523  11.424 -1.3597 -0.1495  1.2991
 9302TIP3    H252102   5.433   7.374  11.439 -0.3301 -0.3362 -1.2540
 9303TIP3   OH252103   3.139   0.555  13.112 -0.3305  0.1548 -0.1126
 9303TIP3    H152104   3.215   0.592  13.158  1.5675 -0.4302 -2.6157
 9303TIP3    H252105   3.172   0.479  13.066 -2.4713 -0.1570 -1.2894
 9304TIP3   OH252106   1.941   1.426  10.244  0.1023 -0.8549  0.2142
 9304TIP3    H152107   1.941   1.509  10.291  0.0694 -1.3619  1.1367
 9304TIP3    H252108   2.010   1.436  10.178  0.5525 -0.3298  0.7529
 9305TIP3   OH252109   5.681   2.313  10.740 -0.1566 -0.2526 -0.3058
 9305TIP3    H152110   5.639   2.267  10.813  0.1341  0.3046  0.2229
 9305TIP3    H252111   5.612   2.371  10.706 -0.4682 -0.9285 -0.8570
 9306TIP3   OH252112   6.132   6.684  11.151  0.6120 -0.2277 -0.3500
 9306TIP3    H152113   6.047   6.670  11.192  0.9358 -0.9908  0.0738
 9306TIP3    H252114   6.112   6.698  11.058  0.0308 -0.4688 -0.2624
 9307TIP3   OH252115   0.138   1.664  11.378 -0.2545  0.2958 -0.0027
 9307TIP3    H152116   0.161   1.694  11.466 -2.6551  0.5457  0.5972
 9307TIP3    H252117   0.171   1.574  11.374 -0.6968  0.0508  1.3961
 9308TIP3   OH252118   1.356   0.010  10.178 -0.0173 -0.1708 -0.0544
 9308TIP3    H152119   1.303   0.088  10.163  1.0996  0.4428 -1.0548
 9308TIP3    H252120   1.437   0.043  10.218 -0.8665 -1.2303  2.7605
 9309TIP3   OH252121   0.784   2.387  10.992  0.0116  0.6309  0.6524
 9309TIP3    H152122   0.785   2.467  10.939 -1.7495 -0.8357 -1.8026
 9309TIP3    H252123   0.830   2.322  10.938 -1.0426 -0.6933  1.2925
 9310TIP3   OH252124   4.201   0.457  10.764 -0.6205  0.0289 -0.2473
 9310TIP3    H152125   4.288   0.438  10.730  0.0574  0.3195  1.2682
 9310TIP3    H252126   4.143   0.400  10.714  0.7456 -2.1869  0.5612
 9311TIP3   OH252127   0.272   7.319   9.940 -0.5121 -0.4401  0.6533
 9311TIP3    H152128   0.202   7.359   9.991 -0.4802  1.8108 -0.8928
 9311TIP3    H252129   0.352   7.361   9.972 -0.6270  2.3288 -2.1000
 9312TIP3   OH252130   6.990   6.728  11.540  0.0097 -0.4290 -0.1152
 9312TIP3    H152131   7.083   6.743  11.553  0.0825 -1.1864  0.3048
 9312TIP3    H252132   6.981   6.712  11.446  0.1241  0.7873 -0.3410
 9313TIP3   OH252133   3.480   4.504  10.456 -0.1546 -0.0313 -0.0474
 9313TIP3    H152134   3.528   4.461  10.526  0.3645 -0.0054 -0.3797
 9313TIP3    H252135   3.392   4.519  10.492  0.2316  0.3663  0.7464
 9314TIP3   OH252136   7.258   6.559  12.288  0.5943 -0.2986 -0.0182
 9314TIP3    H152137   7.342   6.563  12.334  0.4670 -1.6274  0.3813
 9314TIP3    H252138   7.283   6.542  12.197  0.8060  1.0837 -0.2301
 9315TIP3   OH252139   4.149   2.554  10.515  0.1190 -0.0770  0.0260
 9315TIP3    H152140   4.233   2.582  10.552  0.7497 -0.0177 -1.3576
 9315TIP3    H252141   4.096   2.634  10.514  0.6810  0.3053 -0.6869
 9316TIP3   OH252142   0.890   1.794   9.786 -0.0148 -0.1665  0.0429
 9316TIP3    H152143   0.795   1.780   9.775 -0.0924 -3.0102  2.8323
 9316TIP3    H252144   0.898   1.840   9.869  1.0542 -0.9348  0.3858
 9317TIP3   OH252145   2.219   7.006  11.267  0.6884 -0.4170  0.0374
 9317TIP3    H152146   2.246   6.916  11.249 -2.0803 -1.6456  1.4111
 9317TIP3    H252147   2.263   7.028  11.349  0.3247 -1.0560  0.4145
 9318TIP3   OH252148   3.588   1.425  11.574 -0.3488  0.5883  0.0181
 9318TIP3    H152149   3.516   1.483  11.552 -0.8533  0.8817  2.2697
 9318TIP3    H252150   3.547   1.340  11.589  0.1066  0.1622 -1.0366
 9319TIP3   OH252151   6.614   0.924  11.228  0.3144 -0.5765  0.6367
 9319TIP3    H152152   6.617   1.013  11.194  0.0685  0.3083  2.7599
 9319TIP3    H252153   6.553   0.878  11.170 -0.8112  1.0893  0.4269
 9320TIP3   OH252154   0.362   1.863  10.206 -0.0971 -0.2943 -0.4682
 9320TIP3    H152155   0.315   1.853  10.289  1.0942  0.3436  0.3120
 9320TIP3    H252156   0.303   1.826  10.141 -1.7147  0.5428  0.4595
 9321TIP3   OH252157   4.174   1.387  10.597 -0.1536  0.4642 -0.0462
 9321TIP3    H152158   4.088   1.344  10.601 -0.7446  1.5293 -0.7155
 9321TIP3    H252159   4.230   1.325  10.551 -1.3503  0.8997 -2.2538
 9322TIP3   OH252160   7.471   0.048  11.440  0.2303  0.1571  0.1468
 9322TIP3    H152161   7.419   0.030  11.362  2.3209 -0.2657 -1.2342
 9322TIP3    H252162   7.549   0.093  11.407  1.5671 -0.7636  1.8711
 9323TIP3   OH252163   1.026   4.118  10.307 -0.2981  0.0118  0.0506
 9323TIP3    H152164   0.995   4.178  10.375 -0.0686  2.1298 -1.5990
 9323TIP3    H252165   1.111   4.088  10.339  0.3612  1.9318  0.2128
 9324TIP3   OH252166   4.447   1.771  10.097 -0.1918  0.1987  0.2357
 9324TIP3    H152167   4.503   1.775  10.019  0.7921 -1.3046  0.8285
 9324TIP3    H252168   4.497   1.818  10.165 -0.1698 -0.1523  0.4633
 9325TIP3   OH252169   1.571   7.049  12.724  0.6330 -0.1318 -0.0027
 9325TIP3    H152170   1.590   6.983  12.657  0.2274  0.4049 -0.6548
 9325TIP3    H252171   1.640   7.038  12.789  1.3202 -0.3166 -0.7598
 9326TIP3   OH252172   5.055   5.657  11.914 -0.4632  0.1432 -0.0062
 9326TIP3    H152173   5.043   5.745  11.950  1.0897  0.4169 -0.0849
 9326TIP3    H252174   5.072   5.602  11.990 -1.6858 -0.1613  0.0672
 9327TIP3   OH252175   7.619   4.030  11.969  0.3732  0.1559 -0.6021
 9327TIP3    H152176   7.591   3.944  11.936  0.3627  0.5706 -1.7102
 9327TIP3    H252177   7.663   4.071  11.895  0.6802  0.9789  0.0238
 9328TIP3   OH252178   6.570   2.581  11.950  0.0902 -0.5172  0.1907
 9328TIP3    H152179   6.509   2.629  11.895  1.1640  0.4926 -0.1739
 9328TIP3    H252180   6.521   2.564  12.031  0.0838  2.6205  0.9921
 9329TIP3   OH252181   5.692   5.827  11.508  0.3661  0.1434 -0.1275
 9329TIP3    H152182   5.746   5.833  11.429  0.6224 -0.3575  0.0073
 9329TIP3    H252183   5.609   5.866  11.483  1.3039  2.4646  0.1360
 9330TIP3   OH252184   0.884   7.633  11.697 -0.4870 -0.2170 -0.0211
 9330TIP3    H152185   0.823   7.559  11.699 -0.3457 -0.3286  0.1882
 9330TIP3    H252186   0.950   7.611  11.762  0.4552 -0.6710 -1.0905
 9331TIP3   OH252187   6.409   3.308  10.216 -0.0095  0.1138 -0.2785
 9331TIP3    H152188   6.392   3.291  10.308  1.2852  0.0392 -0.0308
 9331TIP3    H252189   6.475   3.243  10.191 -0.5081 -0.0177 -1.3292
 9332TIP3   OH252190   0.369   0.420  10.521  0.1547 -0.2838 -0.5345
 9332TIP3    H152191   0.394   0.332  10.549 -0.2910 -0.5619 -0.9641
 9332TIP3    H252192   0.274   0.422  10.532 -0.2270 -0.8088 -2.9650
 9333TIP3   OH252193   6.405   5.457  11.386 -0.4227  0.0401  0.1627
 9333TIP3    H152194   6.399   5.460  11.290 -0.4260 -0.0147  0.1612
 9333TIP3    H252195   6.339   5.519  11.416 -1.1626 -0.7160  0.1433
 9334TIP3   OH252196   4.384   1.386  11.798 -0.0683  0.0684 -0.7128
 9334TIP3    H152197   4.412   1.422  11.882 -0.9658 -0.5721 -0.1196
 9334TIP3    H252198   4.414   1.295  11.800 -0.6248 -0.1214 -0.8139
 9335TIP3   OH252199   6.600   1.868  11.330 -0.1482 -0.5783  0.0550
 9335TIP3    H152200   6.616   1.904  11.417  2.0937 -1.1047 -0.0658
 9335TIP3    H252201   6.665   1.911  11.274 -1.8834  0.1383 -1.5056
 9336TIP3   OH252202   0.124   0.151  10.832 -0.1187 -0.7766  0.2369
 9336TIP3    H152203   0.100   0.146  10.924 -0.8146  1.4546  0.2339
 9336TIP3    H252204   0.042   0.137  10.785 -0.0206 -0.5021 -0.0155
 9337TIP3   OH252205   0.433   7.573  10.008 -0.1592 -0.0441  0.2668
 9337TIP3    H152206   0.447   7.622  10.090 -1.6957  0.2084  0.4024
 9337TIP3    H252207   0.344   7.597   9.981 -0.3618 -1.5860 -0.4945
 9338TIP3   OH252208   6.651   5.433  13.008 -0.0567  0.1801  0.0859
 9338TIP3    H152209   6.737   5.445  12.969 -0.3042 -0.7816 -0.8119
 9338TIP3    H252210   6.615   5.355  12.965 -2.0307  1.4566 -0.7503
 9339TIP3   OH252211   0.983   3.610  11.928 -0.4118 -0.2027  0.4132
 9339TIP3    H152212   0.909   3.549  11.937  0.1304 -1.0314 -0.4871
 9339TIP3    H252213   1.032   3.600  12.009  0.5688 -2.2422 -0.3555
 9340TIP3   OH252214   2.752   7.282  11.565  0.1214  0.0992  0.0488
 9340TIP3    H152215   2.734   7.296  11.658 -2.1794  1.1148 -0.4753
 9340TIP3    H252216   2.730   7.191  11.550  3.8221 -1.1588  1.0887
 9341TIP3   OH252217   6.838   5.085  11.930  0.0811  0.0887  0.8532
 9341TIP3    H152218   6.899   5.021  11.966 -1.4976 -1.9856  0.0615
 9341TIP3    H252219   6.829   5.061  11.838 -0.2845  1.6980  0.4392
 9342TIP3   OH252220   2.445   6.612  11.240  0.1820  0.2368  0.1607
 9342TIP3    H152221   2.487   6.694  11.213 -1.3297  0.9666 -0.0931
 9342TIP3    H252222   2.468   6.603  11.332 -0.7959  1.7555  0.6054
 9343TIP3   OH252223   4.887   1.448  11.324  0.4012  0.2265 -0.3732
 9343TIP3    H152224   4.932   1.434  11.240 -1.6905  0.0522 -1.5220
 9343TIP3    H252225   4.898   1.541  11.342  0.4325  0.3698 -1.1107
 9344TIP3   OH252226   2.172   2.981  10.332 -0.2000  0.2793 -0.4131
 9344TIP3    H152227   2.211   3.063  10.302  0.5257  0.5110  1.0625
 9344TIP3    H252228   2.096   3.008  10.384 -1.3116 -0.1020 -1.7918
 9345TIP3   OH252229   6.132   1.160  11.707 -0.2292  0.2540  0.6780
 9345TIP3    H152230   6.088   1.222  11.649 -0.0108 -0.4764 -0.2949
 9345TIP3    H252231   6.205   1.127  11.655 -1.3847 -2.1747  0.5039
 9346TIP3   OH252232   3.437   7.314  11.823  0.2133 -0.4369  0.3876
 9346TIP3    H152233   3.466   7.371  11.752 -0.0703 -1.5030 -0.6276
 9346TIP3    H252234   3.341   7.318  11.819  0.1825  0.8785  1.8879
 9347TIP3   OH252235   1.832   2.484  11.414  0.0288  0.0127 -0.4800
 9347TIP3    H152236   1.779   2.415  11.374  0.5884 -0.6417 -0.0952
 9347TIP3    H252237   1.906   2.439  11.453  0.8834  0.9208 -1.0017
 9348TIP3   OH252238   7.538   1.841  10.980  0.4388  0.3902  0.1861
 9348TIP3    H152239   7.597   1.908  11.014  0.1708  0.3581  0.7357
 9348TIP3    H252240   7.591   1.790  10.919  1.5919 -0.8723  2.1144
 9349TIP3   OH252241   3.464   3.449  11.545  0.4396 -0.2235  0.0922
 9349TIP3    H152242   3.423   3.423  11.462 -0.3716  3.9134 -1.0210
 9349TIP3    H252243   3.554   3.418  11.538 -0.0488 -1.4533 -1.5462
 9350TIP3   OH252244   1.685   7.238  11.764 -0.0667 -0.5778 -0.1722
 9350TIP3    H152245   1.703   7.149  11.735  0.9298 -0.8456  1.1483
 9350TIP3    H252246   1.761   7.288  11.734 -0.0445 -0.4311  0.1278
 9351TIP3   OH252247   0.873   3.527  12.353  0.5413  0.3123  0.0018
 9351TIP3    H152248   0.884   3.434  12.334  1.9716  0.6726 -1.1865
 9351TIP3    H252249   0.950   3.549  12.407 -0.2818  0.6250  1.0790
 9352TIP3   OH252250   0.045   2.045  12.285 -0.1356  0.4470  0.4003
 9352TIP3    H152251  -0.037   2.015  12.247  0.4165 -0.1779 -0.3019
 9352TIP3    H252252   0.037   2.141  12.287 -0.5867  0.4264 -0.3349
 9353TIP3   OH252253   1.182   3.243  11.567 -0.0203  0.4476  0.1028
 9353TIP3    H152254   1.224   3.193  11.637  1.0328  2.5291  1.0566
 9353TIP3    H252255   1.145   3.177  11.509 -0.2462 -1.3764  2.2021
 9354TIP3   OH252256   7.562   2.826  12.173  0.0493  0.5671  0.0234
 9354TIP3    H152257   7.567   2.922  12.170 -1.1647  0.6581  0.3813
 9354TIP3    H252258   7.497   2.808  12.240 -1.8353 -0.4277 -1.9488
 9355TIP3   OH252259   0.352   3.580  10.309  0.1384 -0.0237  0.1553
 9355TIP3    H152260   0.314   3.630  10.236 -3.3220 -0.5865  1.3714
 9355TIP3    H252261   0.292   3.596  10.382  2.6927 -0.6196  2.5236
 9356TIP3   OH252262   2.052   5.729  11.792  0.2427 -0.1002  0.2395
 9356TIP3    H152263   1.966   5.759  11.763  0.1394 -0.2473  0.3930
 9356TIP3    H252264   2.105   5.728  11.712  0.5188  1.4041  0.3818
 9357TIP3   OH252265   1.346   0.130  11.228 -0.1220 -0.2544  0.6095
 9357TIP3    H152266   1.268   0.079  11.204 -1.0218  0.9049  0.9631
 9357TIP3    H252267   1.334   0.150  11.321  0.3600  0.3426  0.5489
 9358TIP3   OH252268   4.506   0.870  12.660 -0.1797  0.6845 -0.0935
 9358TIP3    H152269   4.435   0.830  12.710  1.6578 -2.0276  0.5903
 9358TIP3    H252270   4.492   0.841  12.570  1.3957 -2.2864  0.4616
 9359TIP3   OH252271   7.621   7.292  10.663 -0.0297 -0.4929  0.3537
 9359TIP3    H152272   7.628   7.348  10.585 -1.3333 -1.6310 -0.6100
 9359TIP3    H252273   7.562   7.222  10.638 -1.7255 -0.1047  2.8380
 9360TIP3   OH252274   3.281   0.650  10.920 -0.0480 -0.1078 -0.8284
 9360TIP3    H152275   3.259   0.558  10.906 -0.5446 -0.1165 -0.0834
 9360TIP3    H252276   3.206   0.699  10.883 -0.1034 -0.0325 -0.6184
 9361TIP3   OH252277   3.566   7.143   9.998  0.4134 -0.1458  0.3913
 9361TIP3    H152278   3.522   7.168   9.917  0.9110  1.9579  0.7034
 9361TIP3    H252279   3.625   7.072   9.973  0.1223  0.0631 -0.9568
 9362TIP3   OH252280   5.473   4.344  10.423 -0.7877  0.3434 -0.2341
 9362TIP3    H152281   5.536   4.342  10.351 -0.2055  0.1322  0.2622
 9362TIP3    H252282   5.403   4.285  10.396 -0.9788  0.9050 -0.9752
 9363TIP3   OH252283   6.679   5.293  11.067 -0.5298  0.4471  0.0274
 9363TIP3    H152284   6.713   5.309  11.155 -2.1137  0.2802  0.6988
 9363TIP3    H252285   6.719   5.210  11.041  0.2795  0.7050  0.4148
 9364TIP3   OH252286   4.454   0.254  12.694  0.0373  0.5195  0.3132
 9364TIP3    H152287   4.485   0.163  12.684 -0.3811 -0.0845  3.3916
 9364TIP3    H252288   4.522   0.307  12.652 -0.0576 -1.1650 -2.2205
 9365TIP3   OH252289   5.150   4.634  11.684  0.1791  0.1568  0.6103
 9365TIP3    H152290   5.198   4.573  11.740  0.4899  0.9522  1.2303
 9365TIP3    H252291   5.198   4.634  11.602 -1.0543 -2.0563 -0.1929
 9366TIP3   OH252292   6.799   0.497  10.543 -0.6101 -0.1081 -0.0244
 9366TIP3    H152293   6.848   0.567  10.500  0.2923 -0.4643  0.3962
 9366TIP3    H252294   6.837   0.416  10.509 -0.1406 -0.3925  1.1095
 9367TIP3   OH252295   0.673   6.896  11.093 -0.5083  0.0080 -0.1473
 9367TIP3    H152296   0.758   6.940  11.083 -0.5428  0.7955  2.3072
 9367TIP3    H252297   0.694   6.803  11.088  0.8915  0.1023  2.3600
 9368TIP3   OH252298   1.193   2.343  11.643  0.1743 -0.1307  0.2969
 9368TIP3    H152299   1.264   2.300  11.691  0.9438 -1.0932 -1.6100
 9368TIP3    H252300   1.125   2.276  11.634  0.5106 -0.3293 -0.9049
 9369TIP3   OH252301   3.167   3.323  10.573  0.2761 -0.2889  0.1473
 9369TIP3    H152302   3.215   3.248  10.536  1.4700  0.9850 -0.9986
 9369TIP3    H252303   3.127   3.365  10.498  0.9508  1.1202  0.5450
 9370TIP3   OH252304   6.019   3.290  11.292 -0.4088  0.4814 -0.2792
 9370TIP3    H152305   5.943   3.346  11.282 -0.2998  0.6728 -0.0380
 9370TIP3    H252306   5.990   3.222  11.353 -1.2970 -1.0802 -2.3070
 9371TIP3   OH252307   0.982   6.287  10.030  0.4115  0.6771 -0.2014
 9371TIP3    H152308   0.899   6.332  10.016  1.2050  2.1736 -0.2928
 9371TIP3    H252309   0.961   6.194  10.016 -1.7217  0.7343  1.9512
 9372TIP3   OH252310   0.764   7.128  12.013  0.4743  0.4765 -0.6198
 9372TIP3    H152311   0.679   7.085  12.012 -0.0176  1.2984  1.3279
 9372TIP3    H252312   0.792   7.128  11.921 -1.2809 -0.4282 -1.2016
 9373TIP3   OH252313   2.039   4.989  10.900  0.0444  0.7532  0.0410
 9373TIP3    H152314   1.948   4.975  10.876  0.3928  1.6925 -2.0289
 9373TIP3    H252315   2.035   5.024  10.990 -1.4387 -1.2799  0.8312
 9374TIP3   OH252316   0.313   7.133  11.657 -0.0088  0.3175 -0.2895
 9374TIP3    H152317   0.314   7.216  11.706 -0.5385 -0.7061  1.5669
 9374TIP3    H252318   0.241   7.083  11.697 -0.7562 -0.4493 -2.4336
 9375TIP3   OH252319   1.395   0.271  10.550  0.0946  0.2917 -0.3625
 9375TIP3    H152320   1.464   0.218  10.510  0.2821  0.1216  0.1854
 9375TIP3    H252321   1.433   0.358  10.556  0.2732  0.1921 -0.0354
 9376TIP3   OH252322   6.472   5.313  12.108  0.4457 -0.4633 -0.3949
 9376TIP3    H152323   6.451   5.231  12.064  0.0511  0.3701 -1.8674
 9376TIP3    H252324   6.540   5.352  12.053  0.7852  0.0899  0.4051
 9377TIP3   OH252325   6.082   5.503  10.089  0.3007 -0.4725 -0.2785
 9377TIP3    H152326   6.007   5.557  10.065  1.2111  0.3682 -1.3928
 9377TIP3    H252327   6.045   5.416  10.107 -1.1014  0.3141  0.8000
 9378TIP3   OH252328   7.054   4.172  11.158  0.2839  0.2523  0.9076
 9378TIP3    H152329   7.038   4.251  11.106 -0.7497 -0.3265  0.3098
 9378TIP3    H252330   6.968   4.146  11.189  0.4185 -1.3222  0.0621
 9379TIP3   OH252331   6.951   0.619  11.002 -0.0600  0.0797 -1.1277
 9379TIP3    H152332   6.880   0.591  10.944 -0.3793  1.0598 -1.2348
 9379TIP3    H252333   6.995   0.538  11.027  0.2760 -0.3560 -2.9700
 9380TIP3   OH252334   1.594   6.431  11.609  0.7552  0.9251 -0.3482
 9380TIP3    H152335   1.523   6.446  11.545  0.8311  1.5261 -0.2994
 9380TIP3    H252336   1.662   6.387  11.559  0.4551  0.5777 -0.4597
 9381TIP3   OH252337   3.970   5.716  11.382 -0.2253  0.1665 -1.0581
 9381TIP3    H152338   3.948   5.671  11.301  2.0240 -0.6744 -1.2764
 9381TIP3    H252339   3.998   5.646  11.441  0.6553  0.9951 -0.4536
 9382TIP3   OH252340   6.308   2.724  11.523 -0.3618  0.4211 -0.7706
 9382TIP3    H152341   6.244   2.791  11.497  0.9151  1.9183 -0.1729
 9382TIP3    H252342   6.353   2.701  11.441 -3.1024 -2.4265 -1.7279
 9383TIP3   OH252343   2.289   1.915  11.082  0.1277 -0.0041 -0.6316
 9383TIP3    H152344   2.280   1.826  11.117  0.2966  0.1488 -0.1830
 9383TIP3    H252345   2.280   1.905  10.988  1.3258 -0.6749 -0.7010
 9384TIP3   OH252346   1.783   1.915  10.270  0.2081  0.0417 -0.3689
 9384TIP3    H152347   1.730   1.837  10.254 -2.0802  1.5662 -0.6682
 9384TIP3    H252348   1.839   1.892  10.344 -1.1144 -1.5597  0.1849
 9385TIP3   OH252349   6.270   5.179  12.622 -0.3506  0.6380 -0.2445
 9385TIP3    H152350   6.315   5.218  12.548 -0.1677  0.2157 -0.3592
 9385TIP3    H252351   6.246   5.091  12.592  0.0193  0.3395  0.3092
 9386TIP3   OH252352   3.078   2.240  11.471  0.3232  0.0370  0.3084
 9386TIP3    H152353   3.066   2.255  11.565 -0.8297  1.4012 -0.0184
 9386TIP3    H252354   2.999   2.277  11.431  0.2263 -1.5998 -1.1221
 9387TIP3   OH252355   2.081   2.305  10.423  0.1513 -0.1877 -1.0592
 9387TIP3    H152356   2.139   2.318  10.348  0.4232  1.7371 -0.5832
 9387TIP3    H252357   2.012   2.371  10.411 -0.0007 -0.0987  0.1629
 9388TIP3   OH252358   6.417   6.259  10.122 -0.4798 -0.0224  0.1017
 9388TIP3    H152359   6.487   6.324  10.127 -0.1858 -0.3211 -0.0548
 9388TIP3    H252360   6.462   6.175  10.128 -0.6556 -0.2686 -1.4357
 9389TIP3   OH252361   1.407   7.294  10.369 -0.6170  0.2248  0.3051
 9389TIP3    H152362   1.431   7.254  10.285 -1.5323 -2.0567  1.0352
 9389TIP3    H252363   1.365   7.223  10.417 -1.7591  1.9674  2.0107
 9390TIP3   OH252364   4.872   6.496  12.129 -0.0782 -0.2977 -0.1710
 9390TIP3    H152365   4.885   6.407  12.160  1.4039  0.7178  2.4198
 9390TIP3    H252366   4.960   6.526  12.104 -0.3879  0.7182 -0.1060
 9391TIP3   OH252367   7.503   1.610  11.549  0.0381  0.9721  0.2775
 9391TIP3    H152368   7.533   1.611  11.458  0.8384  0.4956  0.5281
 9391TIP3    H252369   7.495   1.517  11.570  1.8943  1.0205  1.3502
 9392TIP3   OH252370   2.942   2.560  10.865  0.0307 -0.0224  0.0615
 9392TIP3    H152371   2.986   2.527  10.787 -0.0208  1.4155 -0.6086
 9392TIP3    H252372   2.849   2.562  10.842 -0.0609 -0.2056  0.4024
 9393TIP3   OH252373   5.734   1.614  11.218  0.3872  0.3811 -0.4543
 9393TIP3    H152374   5.644   1.644  11.203  0.5217  0.6365 -0.7464
 9393TIP3    H252375   5.744   1.616  11.314  0.5193  1.6178 -0.4866
 9394TIP3   OH252376   3.482   6.971  10.493  0.1409 -0.1749  0.3879
 9394TIP3    H152377   3.404   6.927  10.526  0.7682 -1.8421 -0.2271
 9394TIP3    H252378   3.459   6.998  10.404  0.2215 -0.6139  0.2272
 9395TIP3   OH252379   6.435   6.986  12.506 -0.1336 -0.8055 -0.1039
 9395TIP3    H152380   6.366   6.982  12.572 -0.4292 -0.9112 -0.4121
 9395TIP3    H252381   6.460   7.079  12.503 -1.2152 -0.5033 -0.9346
 9396TIP3   OH252382   1.411   1.141  12.332  0.1838 -0.1176  0.0480
 9396TIP3    H152383   1.413   1.056  12.377 -1.9713  1.4130  3.4261
 9396TIP3    H252384   1.325   1.144  12.290 -0.1823  0.7358  0.8193
 9397TIP3   OH252385   6.292   3.216  11.692 -0.1047 -0.0128 -0.0031
 9397TIP3    H152386   6.318   3.255  11.775 -0.5227 -1.1565  0.6975
 9397TIP3    H252387   6.294   3.122  11.708  0.9257 -0.3093 -1.6410
 9398TIP3   OH252388   6.203   4.245  12.275 -0.4260 -0.0910  0.0438
 9398TIP3    H152389   6.177   4.154  12.258 -0.7158  0.1569 -0.9142
 9398TIP3    H252390   6.244   4.242  12.362  1.5477 -1.5420 -0.8510
 9399TIP3   OH252391   6.835   4.290  10.199 -0.1536  0.2977 -0.6065
 9399TIP3    H152392   6.862   4.229  10.268 -0.1797 -0.2488 -1.0713
 9399TIP3    H252393   6.826   4.236  10.121  0.6650  1.0402 -1.2367
 9400TIP3   OH252394   7.256   5.243  11.015  0.4638  0.6415 -0.5746
 9400TIP3    H152395   7.277   5.306  10.946 -3.2836  0.9442 -1.6355
 9400TIP3    H252396   7.161   5.247  11.024  0.3005 -2.9283  1.2319
 9401TIP3   OH252397   5.451   7.186  11.735 -0.2272 -0.1696  0.1390
 9401TIP3    H152398   5.489   7.274  11.741 -1.2822  0.2661  0.7211
 9401TIP3    H252399   5.524   7.131  11.706  0.6845  0.7391  0.6177
 9402TIP3   OH252400   3.022   3.647  10.992  0.4789  0.5753 -0.7058
 9402TIP3    H152401   2.997   3.576  10.933  3.9323 -1.0334 -0.5101
 9402TIP3    H252402   3.013   3.609  11.080  0.6365  0.9905 -0.5106
 9403TIP3   OH252403   3.382   4.975  10.634 -0.1041  0.5735  0.0613
 9403TIP3    H152404   3.446   4.935  10.576 -1.2226  0.4286 -1.1280
 9403TIP3    H252405   3.326   5.028  10.577 -1.2678  0.4084  0.9791
 9404TIP3   OH252406   4.812   3.979  10.801  0.5323  0.5249  0.5954
 9404TIP3    H152407   4.757   3.901  10.815  1.9727 -0.3124  1.9664
 9404TIP3    H252408   4.756   4.052  10.828 -0.4657 -0.1294  0.3785
 9405TIP3   OH252409   5.722   1.819  11.696  0.2585  0.0717 -0.1634
 9405TIP3    H152410   5.690   1.889  11.638 -0.0265  1.6944  1.8127
 9405TIP3    H252411   5.656   1.813  11.765  0.7670 -1.5097  0.2339
 9406TIP3   OH252412   1.748   1.532  12.632 -0.1203  0.3602 -0.1385
 9406TIP3    H152413   1.813   1.521  12.563 -0.3095 -1.0197 -0.1169
 9406TIP3    H252414   1.780   1.478  12.704 -0.7181  0.5529  0.2777
 9407TIP3   OH252415   5.386   2.820  11.643  0.4352  0.1870 -0.1782
 9407TIP3    H152416   5.367   2.756  11.712 -0.1482  1.5966  1.0085
 9407TIP3    H252417   5.309   2.818  11.586  0.9356 -1.0100 -0.8520
 9408TIP3   OH252418   1.742   7.146  10.178 -0.0711  0.1718  0.0548
 9408TIP3    H152419   1.649   7.163  10.160 -0.1715  0.2631  0.6123
 9408TIP3    H252420   1.742   7.061  10.222 -0.0029  0.6293  0.9675
 9409TIP3   OH252421   4.416   6.333  12.003  0.2248  0.3702  0.2624
 9409TIP3    H152422   4.373   6.265  11.952  0.2570  0.8268 -0.3864
 9409TIP3    H252423   4.355   6.406  12.003  1.5793  1.6563 -2.0878
 9410TIP3   OH252424   5.341   1.582  11.253  0.2813  0.4686  0.5333
 9410TIP3    H152425   5.377   1.670  11.245  1.0307  0.2306  1.1344
 9410TIP3    H252426   5.398   1.539  11.316 -0.2824 -0.3436  0.5001
 9411TIP3   OH252427   6.560   6.344  11.985 -0.0453  0.3063  0.7183
 9411TIP3    H152428   6.467   6.328  11.967  0.2646 -1.6803  0.6561
 9411TIP3    H252429   6.580   6.425  11.939 -1.6180  0.4699  0.2638
 9412TIP3   OH252430   0.293   3.219  10.041  0.3580  0.0699 -0.3009
 9412TIP3    H152431   0.233   3.166  10.093 -0.9653  0.6801 -1.1596
 9412TIP3    H252432   0.266   3.309  10.057  2.0264  0.4561  0.4676
 9413TIP3   OH252433   5.881   3.131  11.482 -0.3364 -0.0542  0.0613
 9413TIP3    H152434   5.804   3.158  11.532 -0.7826  0.6198 -0.9505
 9413TIP3    H252435   5.954   3.137  11.544 -0.9869  0.0245  0.8303
 9414TIP3   OH252436   4.571   6.172  11.075  0.0980  1.1076 -0.1720
 9414TIP3    H152437   4.640   6.209  11.130 -0.0093  0.2354  0.5603
 9414TIP3    H252438   4.617   6.128  11.004  0.3234  0.2302  0.5030
 9415TIP3   OH252439   2.189   2.418  10.646 -0.0605  0.4326 -0.2818
 9415TIP3    H152440   2.153   2.372  10.571  0.4710 -0.4082 -0.0277
 9415TIP3    H252441   2.273   2.452  10.616  1.0587 -1.5353  0.4562
 9416TIP3   OH252442   4.238   6.537  11.257  0.0304 -0.5475 -0.3531
 9416TIP3    H152443   4.169   6.560  11.319  0.7072 -1.9185  0.9833
 9416TIP3    H252444   4.192   6.494  11.184 -0.6184 -0.5273  0.0392
 9417TIP3   OH252445   2.418   1.031  11.593  0.0531  0.5539  0.5720
 9417TIP3    H152446   2.424   1.126  11.588 -1.8600  0.6778 -0.0092
 9417TIP3    H252447   2.324   1.012  11.586  0.2518 -1.3008  2.1246
 9418TIP3   OH252448   3.047   3.585   4.605 -0.4052 -0.2970  0.2403
 9418TIP3    H152449   3.057   3.497   4.641 -1.7422  0.0788  1.6647
 9418TIP3    H252450   2.960   3.613   4.634 -0.0766  1.4365 -0.3188
 9419TIP3   OH252451   2.985   4.197   9.705 -0.1357 -0.0159 -0.0186
 9419TIP3    H152452   2.968   4.104   9.722  1.6365 -0.2481  0.6303
 9419TIP3    H252453   2.899   4.233   9.681 -1.1503 -1.4870  1.2246
 9420TIP3   OH252454   6.821   0.259  10.407 -0.1725 -0.5398 -0.4240
 9420TIP3    H152455   6.772   0.233  10.329  0.2377 -2.2495 -0.1506
 9420TIP3    H252456   6.913   0.253  10.381 -0.0521 -0.0280 -0.1327
 9421TIP3   OH252457   0.924   4.162  11.970  0.6895  0.0855  0.5090
 9421TIP3    H152458   0.946   4.209  12.051 -2.0801 -0.9151  1.9736
 9421TIP3    H252459   0.964   4.076  11.981  3.0737  0.9382 -0.7573
 9422TIP3   OH252460   7.631   1.947   9.804  0.1609  0.0475 -0.5115
 9422TIP3    H152461   7.645   1.856   9.776  1.4789 -0.1956  0.8087
 9422TIP3    H252462   7.700   1.996   9.759  0.4220  0.1312 -0.0242
 9423TIP3   OH252463   7.257   0.178  10.475 -0.0600  0.2339 -0.3124
 9423TIP3    H152464   7.222   0.262  10.444 -1.0262  0.1018  0.3866
 9423TIP3    H252465   7.180   0.129  10.505  0.3478 -1.3407 -1.6765
 9424TIP3   OH252466   7.298   0.643  10.361  0.1895  0.0726  0.0466
 9424TIP3    H152467   7.349   0.721  10.340  0.1434  0.0264 -0.2411
 9424TIP3    H252468   7.237   0.634  10.288  0.7676 -0.7263 -0.3487
 9425TIP3   OH252469   2.143   1.259  11.085 -0.0523 -0.1065 -0.5851
 9425TIP3    H152470   2.107   1.332  11.135 -0.2905 -0.3047 -0.4662
 9425TIP3    H252471   2.192   1.207  11.149 -1.8246 -1.3431 -0.1583
 9426TIP3   OH252472   6.973   7.351  11.985  0.0884 -0.1768 -0.6779
 9426TIP3    H152473   6.897   7.357  11.927 -1.8558  0.8108  1.8130
 9426TIP3    H252474   6.938   7.368  12.073  3.0780 -0.4474  0.6773
 9427TIP3   OH252475   3.506   6.449  11.473 -0.0157 -0.3041 -0.0714
 9427TIP3    H152476   3.414   6.424  11.487 -0.8239  2.1327 -0.6024
 9427TIP3    H252477   3.538   6.386  11.408 -1.3703 -1.0541 -0.0629
 9428TIP3   OH252478   6.396   5.821  12.412 -0.3114 -0.0765  0.5165
 9428TIP3    H152479   6.382   5.913  12.433 -0.2820  0.5313 -1.8724
 9428TIP3    H252480   6.340   5.804  12.337  2.1137 -1.0744 -1.1947
 9429TIP3   OH252481   0.090   7.069  12.434  0.4491  0.3768 -0.2457
 9429TIP3    H152482   0.125   7.017  12.506  0.9563 -1.0572 -1.4746
 9429TIP3    H252483   0.040   7.139  12.477  2.5428  0.9019  1.5197
 9430TIP3   OH252484   0.236   2.090  11.308  0.0568  0.7334  0.2872
 9430TIP3    H152485   0.165   2.041  11.349  1.0071 -0.9343  0.0670
 9430TIP3    H252486   0.192   2.154  11.252 -1.3631 -1.3005 -1.1016
 9431TIP3   OH252487   7.560   1.552  11.292  0.1606  0.5378 -0.5161
 9431TIP3    H152488   7.509   1.629  11.267  0.9934  1.7733  1.3596
 9431TIP3    H252489   7.651   1.576  11.272  0.4764  0.2403  0.5113
 9432TIP3   OH252490   5.485   1.843  11.534  0.0961 -0.2597  0.1197
 9432TIP3    H152491   5.504   1.771  11.594  0.1444 -0.6610 -0.3732
 9432TIP3    H252492   5.457   1.915  11.591  0.6537 -0.4653  0.6613
 9433TIP3   OH252493   6.275   0.082  10.679  0.3962 -1.0575  0.1685
 9433TIP3    H152494   6.294   0.073  10.585  0.2212  0.4342 -0.0376
 9433TIP3    H252495   6.356   0.057  10.722  1.6414  1.4206 -0.5437
 9434TIP3   OH252496   6.195   3.415  12.006 -0.0433  0.0448 -0.1979
 9434TIP3    H152497   6.224   3.437  11.917  0.3025  0.8289  0.1043
 9434TIP3    H252498   6.193   3.319  12.007  0.7771  0.0098 -0.7980
 9435TIP3   OH252499   2.201   4.747  12.070  0.1462 -0.0811  0.4735
 9435TIP3    H152500   2.194   4.656  12.039 -0.7774 -0.2640  1.1751
 9435TIP3    H252501   2.137   4.753  12.141  1.3633  0.6675  1.5526
 9436TIP3   OH252502   7.123   4.762  11.293 -0.2241 -0.2785  0.3406
 9436TIP3    H152503   7.057   4.734  11.230  0.8975 -2.6775  0.0932
 9436TIP3    H252504   7.206   4.756  11.244  0.5621 -1.2331  1.7110
 9437TIP3   OH252505   4.870   0.836  10.723 -0.4188 -0.6675 -0.1748
 9437TIP3    H152506   4.887   0.907  10.785 -1.2084 -0.2206 -0.4476
 9437TIP3    H252507   4.936   0.848  10.654 -1.8150  1.1450 -1.3094
 9438TIP3   OH252508   0.381   2.743  10.237 -0.5163  0.1932  0.0970
 9438TIP3    H152509   0.386   2.778  10.148  0.0950  1.0186  0.4532
 9438TIP3    H252510   0.359   2.650  10.224  4.4646 -1.0766 -1.2311
 9439TIP3   OH252511   0.601   4.060  10.823  0.6482 -0.1493 -0.1363
 9439TIP3    H152512   0.568   4.138  10.868  0.0071 -0.3746 -0.2165
 9439TIP3    H252513   0.694   4.079  10.808  0.2750  1.0222 -1.0642
 9440TIP3   OH252514   4.036   6.800   9.954  0.3534 -0.6950  0.6126
 9440TIP3    H152515   4.032   6.890   9.921 -0.0459 -1.0732 -0.3932
 9440TIP3    H252516   4.128   6.788   9.979  0.5469 -0.2166  0.1391
 9441TIP3   OH252517   0.427   1.732  12.763  0.1382 -0.0909 -0.0575
 9441TIP3    H152518   0.516   1.718  12.731  0.5936  0.1242  1.0850
 9441TIP3    H252519   0.432   1.813  12.813 -0.4244 -0.7133  1.0347
 9442TIP3   OH252520   5.724   2.321  10.085  0.5777  0.3382 -0.3865
 9442TIP3    H152521   5.683   2.352  10.004 -1.3781 -1.0675  0.0096
 9442TIP3    H252522   5.753   2.232  10.065  0.6105  0.1977  0.2806
 9443TIP3   OH252523   0.256   6.904  11.455  0.1393  0.1990  0.0277
 9443TIP3    H152524   0.303   6.957  11.518 -1.7181  1.3028  0.5552
 9443TIP3    H252525   0.298   6.923  11.371  1.6836 -0.1624  0.6954
 9444TIP3   OH252526   1.654   5.721  10.546 -0.1770 -0.0000  0.1163
 9444TIP3    H152527   1.569   5.682  10.527 -0.1061  0.2745 -0.8166
 9444TIP3    H252528   1.709   5.696  10.472  0.1785  0.9636  0.0362
 9445TIP3   OH252529   2.706   5.615  10.523 -0.2093  0.4066  0.4067
 9445TIP3    H152530   2.679   5.611  10.432 -0.9785 -2.6105  0.6392
 9445TIP3    H252531   2.627   5.589  10.572  0.4146  1.1709  1.8687
 9446TIP3   OH252532   3.016   0.837  11.471  0.1044 -0.3450 -0.5194
 9446TIP3    H152533   3.037   0.896  11.399  1.0388  0.0733  0.0862
 9446TIP3    H252534   2.930   0.801  11.448 -0.5511  1.3318 -0.8392
 9447TIP3   OH252535   1.485   2.980  12.355  0.0799  0.1186  0.3570
 9447TIP3    H152536   1.559   2.943  12.403  0.4031 -1.2007 -1.0460
 9447TIP3    H252537   1.420   3.002  12.422  0.9626 -0.5374  1.4564
 9448TIP3   OH252538   1.457   5.270  11.028 -0.2853  0.1356 -0.8558
 9448TIP3    H152539   1.522   5.338  11.008  1.0809 -1.0160 -0.4861
 9448TIP3    H252540   1.452   5.269  11.124 -0.3794 -0.2112 -0.8627
 9449TIP3   OH252541   2.365   5.497  11.323  0.6236 -0.1156  0.3483
 9449TIP3    H152542   2.413   5.451  11.254 -0.4798  0.8746 -1.1617
 9449TIP3    H252543   2.296   5.436  11.348 -0.5163  0.4213 -1.2806
 9450TIP3   OH252544   0.571   3.899  11.793 -0.1687 -0.7251  0.0579
 9450TIP3    H152545   0.562   3.941  11.878 -0.6156  0.9439 -0.7775
 9450TIP3    H252546   0.531   3.813  11.804 -0.2080 -0.5408  1.5243
 9451TIP3   OH252547   7.248   1.590   9.964  0.0014 -0.0265  0.3722
 9451TIP3    H152548   7.279   1.533  10.034  0.3054 -1.1133 -0.6173
 9451TIP3    H252549   7.325   1.606   9.909  0.0297  1.7231  0.8606
 9452TIP3   OH252550   1.510   0.024  10.472 -0.1984 -0.3210 -0.1614
 9452TIP3    H152551   1.450  -0.050  10.474 -0.9110  0.2510  0.7482
 9452TIP3    H252552   1.572   0.007  10.543 -0.0174 -0.3314 -0.3229
 9453TIP3   OH252553   1.206   6.379  11.104  0.0784  1.0019 -0.2434
 9453TIP3    H152554   1.286   6.419  11.071 -0.0498  1.1305 -0.4011
 9453TIP3    H252555   1.139   6.446  11.094 -0.2947  0.5152 -1.1845
 9454TIP3   OH252556   1.864   0.587  10.757  0.0636  0.4791  0.2582
 9454TIP3    H152557   1.864   0.674  10.717 -2.0448 -0.2468 -1.4754
 9454TIP3    H252558   1.858   0.527  10.683 -0.9264 -1.0432  1.5274
 9455TIP3   OH252559   5.878   0.890  11.515  0.6299 -0.2035 -0.5482
 9455TIP3    H152560   5.955   0.874  11.570  0.2595 -0.4959 -0.1047
 9455TIP3    H252561   5.831   0.807  11.516 -1.2131  0.7544  1.5815
 9456TIP3   OH252562   1.455   3.532  11.854  0.4426  0.2659 -0.0566
 9456TIP3    H152563   1.457   3.444  11.891  0.1584  0.2537 -0.0633
 9456TIP3    H252564   1.524   3.580  11.899  1.1844 -0.2026 -0.6659
 9457TIP3   OH252565   3.597   5.370  11.436 -0.9366  0.0706  0.2169
 9457TIP3    H152566   3.681   5.385  11.480 -1.8005 -0.3415  2.1144
 9457TIP3    H252567   3.613   5.393  11.344  0.7474  1.7023  0.8710
 9458TIP3   OH252568   6.469   6.837  10.088  0.2313 -0.6294 -0.3382
 9458TIP3    H152569   6.438   6.896  10.156  1.1988 -1.2262  0.6614
 9458TIP3    H252570   6.491   6.894  10.014  0.7909  0.2236  0.4668
 9459TIP3   OH252571   7.140   0.658  11.516  0.3653  0.2080  0.0692
 9459TIP3    H152572   7.045   0.671  11.516  0.4624  1.0520  1.0402
 9459TIP3    H252573   7.176   0.744  11.535  1.2458 -0.4699  1.7184
 9460TIP3   OH252574   7.473   2.303  11.375  0.4845 -0.1290 -0.0618
 9460TIP3    H152575   7.399   2.357  11.347 -0.5658 -0.4058  1.9692
 9460TIP3    H252576   7.539   2.366  11.404  1.6161  0.1671 -2.8950
 9461TIP3   OH252577   2.938   7.227  12.084 -0.0448  0.5149 -0.0861
 9461TIP3    H152578   2.898   7.314  12.079 -0.5309  0.3040  0.0475
 9461TIP3    H252579   3.023   7.241  12.124 -0.4066  0.8410  0.5759
 9462TIP3   OH252580   2.664   1.376  12.749  0.2985 -0.1537  0.2312
 9462TIP3    H152581   2.630   1.381  12.839  0.6901 -1.2536  0.4564
 9462TIP3    H252582   2.758   1.361  12.760  0.0093 -2.8823 -0.2917
 9463TIP3   OH252583   3.876   1.465  11.779 -0.3848  0.0300 -0.1797
 9463TIP3    H152584   3.858   1.390  11.837  0.9336  0.3601  0.6983
 9463TIP3    H252585   3.896   1.425  11.695 -3.4955 -0.4283 -0.8397
 9464TIP3   OH252586   5.848   1.539  12.040 -0.3779 -0.4069  0.7825
 9464TIP3    H152587   5.890   1.521  12.124 -0.3016 -1.0869  0.5972
 9464TIP3    H252588   5.904   1.605  11.999  0.2182 -0.9176  0.7703
 9465TIP3   OH252589   3.182   1.065  11.241 -0.0303 -0.0541 -0.6665
 9465TIP3    H152590   3.216   1.143  11.196 -0.8996  0.9041  0.2636
 9465TIP3    H252591   3.242   1.053  11.315 -0.7965  0.7358  0.1143
 9466TIP3   OH252592   7.351   0.082   9.748  0.4297 -0.6370  0.3512
 9466TIP3    H152593   7.340   0.033   9.830  0.0326  0.9151  1.2665
 9466TIP3    H252594   7.284   0.046   9.690  0.3637 -1.3941  0.8777
 9467TIP3   OH252595   1.744   2.739  11.533 -0.8007  0.2345  0.0531
 9467TIP3    H152596   1.812   2.779  11.479 -0.2534  1.4395  1.5655
 9467TIP3    H252597   1.756   2.645  11.519  1.3932  0.3859  0.4770
 9468TIP3   OH252598   4.486   5.254   9.904  0.5672  0.2002  0.5207
 9468TIP3    H152599   4.552   5.187   9.886  1.0163  0.2885  1.7604
 9468TIP3    H252600   4.519   5.332   9.860  0.7515 -0.0230  0.2521
 9469TIP3   OH252601   4.517   3.463  12.358 -0.1986 -0.2003 -0.1577
 9469TIP3    H152602   4.503   3.507  12.274 -0.9971 -0.4032 -0.1383
 9469TIP3    H252603   4.442   3.405  12.367 -1.1842  1.2416  1.5963
 9470TIP3   OH252604   3.571   1.513  10.300  0.4058 -0.2467  0.1301
 9470TIP3    H152605   3.652   1.463  10.304 -0.3611 -1.5867 -0.2280
 9470TIP3    H252606   3.599   1.605  10.295  1.8400 -0.5766  1.5190
 9471TIP3   OH252607   3.306   1.991  11.937 -0.3270 -0.1592 -0.0102
 9471TIP3    H152608   3.294   2.017  12.028  1.9493  2.2100 -0.2632
 9471TIP3    H252609   3.356   1.910  11.941  2.1149  1.2809  0.9808
 9472TIP3   OH252610   6.422   0.896  10.453  0.6386  0.0589 -0.5416
 9472TIP3    H152611   6.455   0.933  10.535  1.3659  0.3983 -0.9761
 9472TIP3    H252612   6.465   0.811  10.446 -1.5635 -1.2579  0.8079
 9473TIP3   OH252613   1.915   5.169  12.428 -0.3026  0.4269 -0.7038
 9473TIP3    H152614   1.920   5.080  12.462  0.0136  0.3268 -1.0094
 9473TIP3    H252615   2.006   5.197  12.418 -0.3950  1.1681  0.3614
 9474TIP3   OH252616   0.449   4.338  10.759 -0.2172  0.1872 -0.1027
 9474TIP3    H152617   0.382   4.400  10.788 -0.9678 -0.4442 -0.4600
 9474TIP3    H252618   0.519   4.393  10.724 -1.4704  0.8380 -1.7392
 9475TIP3   OH252619   1.132   5.034  10.506  0.5807 -0.2474 -0.3763
 9475TIP3    H152620   1.042   5.054  10.531  0.9449  1.0111  0.0268
 9475TIP3    H252621   1.170   4.996  10.585  0.4477 -0.6202 -0.4927
 9476TIP3   OH252622   6.530   0.281  10.559  0.0858  0.3633  0.1732
 9476TIP3    H152623   6.531   0.248  10.469 -1.2779  1.8171 -0.4075
 9476TIP3    H252624   6.438   0.288  10.582  0.4013  0.5088  1.5154
 9477TIP3   OH252625   6.811   7.634  10.782 -0.8328  0.1792 -0.3888
 9477TIP3    H152626   6.783   7.718  10.746 -0.2395  0.1227 -1.0176
 9477TIP3    H252627   6.844   7.654  10.869 -2.8013  0.2464  0.3868
 9478TIP3   OH252628   0.365   0.067  11.883 -0.0279 -0.6670  0.1785
 9478TIP3    H152629   0.408   0.148  11.907 -1.8592 -0.1391  1.9178
 9478TIP3    H252630   0.384   0.007  11.955  1.1825 -1.7670 -1.0178
 9479TIP3   OH252631   2.646   7.279  12.078  0.1620  0.4853  0.1352
 9479TIP3    H152632   2.704   7.355  12.086  1.7113 -0.4400 -1.5470
 9479TIP3    H252633   2.650   7.236  12.163  1.2214  0.9409  0.3243
 9480TIP3   OH252634   4.408   2.541  11.413 -0.0288  0.3204  0.5603
 9480TIP3    H152635   4.384   2.477  11.480 -1.5484 -1.1026 -1.2675
 9480TIP3    H252636   4.476   2.499  11.362 -0.7423  0.3048 -0.4010
 9481TIP3   OH252637   7.401   3.827  12.933  0.1405 -0.1603 -0.3888
 9481TIP3    H152638   7.374   3.918  12.946 -1.0027 -0.2840 -1.6275
 9481TIP3    H252639   7.487   3.834  12.891  0.6390  0.3021  0.6597
 9482TIP3   OH252640   1.028   4.734  10.174 -0.4588 -0.4231 -0.0766
 9482TIP3    H152641   0.956   4.750  10.236  0.3092  1.6199  0.3880
 9482TIP3    H252642   1.040   4.819  10.131  1.2504 -0.9058 -0.6028
 9483TIP3   OH252643   5.730   7.180  11.988  0.3019  0.1155 -0.3539
 9483TIP3    H152644   5.790   7.116  12.026  0.7485  0.6656 -0.1180
 9483TIP3    H252645   5.775   7.264  11.999 -0.9660  0.6745  0.7829
 9484TIP3   OH252646   1.208   2.700  11.903  0.4247  0.2257  0.2961
 9484TIP3    H152647   1.285   2.756  11.890 -0.3451  1.0165 -1.0350
 9484TIP3    H252648   1.136   2.762  11.916 -0.0220 -0.5064  1.4165
 9485TIP3   OH252649   3.836   5.374  11.551 -0.3337 -0.2807 -0.3118
 9485TIP3    H152650   3.912   5.428  11.576 -0.6148 -0.0895  0.1365
 9485TIP3    H252651   3.856   5.287  11.584 -0.3715 -0.1968 -0.0641
 9486TIP3   OH252652   4.061   4.237  10.402 -0.7441 -0.5322  0.1104
 9486TIP3    H152653   4.036   4.325  10.431 -0.4048 -0.3220 -0.2190
 9486TIP3    H252654   4.049   4.238  10.308  2.2264  0.2118 -0.3645
 9487TIP3   OH252655   0.375   6.097  11.477 -0.1477  0.3982 -0.4392
 9487TIP3    H152656   0.323   6.159  11.529 -1.7104  0.9840 -2.5784
 9487TIP3    H252657   0.461   6.139  11.469 -0.7724  1.6766 -0.7387
 9488TIP3   OH252658   5.321   1.323  12.285 -0.1352  0.8451  0.1358
 9488TIP3    H152659   5.238   1.354  12.321  0.2451  1.3777  0.5592
 9488TIP3    H252660   5.295   1.252  12.226 -0.7812  0.0356  1.3390
 9489TIP3   OH252661   3.515   2.756  11.469 -0.3747  0.4650 -0.1233
 9489TIP3    H152662   3.457   2.758  11.393  0.4464  1.3600 -0.7515
 9489TIP3    H252663   3.567   2.676  11.458  1.3911  1.7655 -1.8191
 9490TIP3   OH252664   4.812   1.217  12.256 -0.1518  0.0927  0.1457
 9490TIP3    H152665   4.870   1.169  12.197  1.9136  2.1141  0.3889
 9490TIP3    H252666   4.849   1.203  12.343 -0.0883  1.2605  0.3300
 9491TIP3   OH252667   2.893   1.055  11.650  0.5146  0.9742 -0.1250
 9491TIP3    H152668   2.826   1.101  11.599 -0.5534  0.3644  0.6693
 9491TIP3    H252669   2.929   0.990  11.590 -1.0179 -0.0181 -0.0322
 9492TIP3   OH252670   4.253   5.521  12.053  0.6752  0.4379 -0.5182
 9492TIP3    H152671   4.183   5.499  12.115  1.8195 -1.4080  0.2177
 9492TIP3    H252672   4.332   5.525  12.107  1.7846 -1.6504 -1.8596
 9493TIP3   OH252673   1.084   1.065  12.388 -0.0611  0.4435 -0.4026
 9493TIP3    H152674   1.025   1.044  12.316 -2.1069  1.1185  0.9846
 9493TIP3    H252675   1.103   0.981  12.429 -0.3349  0.2480 -0.6678
 9494TIP3   OH252676   7.630   1.001  11.333  0.1598 -0.5500 -0.4465
 9494TIP3    H152677   7.553   0.981  11.279  0.4941 -1.4618 -0.6133
 9494TIP3    H252678   7.649   1.093  11.316  0.0369 -0.7286 -1.6133
 9495TIP3   OH252679   6.126   5.837  12.251  0.5184 -0.1076 -0.3479
 9495TIP3    H152680   6.062   5.902  12.282  0.6848 -0.3244  0.4774
 9495TIP3    H252681   6.129   5.850  12.156  1.5321  2.0187 -0.0831
 9496TIP3   OH252682   7.082   1.643  10.563  0.1265 -0.2753  0.1465
 9496TIP3    H152683   7.141   1.589  10.617 -1.2573 -0.8514  1.1394
 9496TIP3    H252684   7.051   1.584  10.495 -0.0498 -0.2387  0.1952
 9497TIP3   OH252685   1.507   2.579  10.101  0.5381 -0.4274 -0.0277
 9497TIP3    H152686   1.462   2.500  10.133  0.9679 -1.6102 -2.1609
 9497TIP3    H252687   1.458   2.604  10.023  2.3622 -0.6013 -1.2898
 9498TIP3   OH252688   6.131   0.342  11.858  0.4524 -0.4158  0.3075
 9498TIP3    H152689   6.155   0.268  11.915  1.5562 -1.1481 -1.0318
 9498TIP3    H252690   6.039   0.358  11.877 -0.3368 -3.2885 -0.5641
 9499TIP3   OH252691   1.447   2.535  10.836  0.2380 -0.3471 -0.0125
 9499TIP3    H152692   1.388   2.606  10.861  0.9695  0.6763 -1.0616
 9499TIP3    H252693   1.438   2.530  10.741  1.4143 -0.5347 -0.1290
 9500TIP3   OH252694   1.504   6.118  10.348 -0.1757  0.2352  0.0154
 9500TIP3    H152695   1.427   6.065  10.330 -0.0483 -0.0049  0.1643
 9500TIP3    H252696   1.525   6.161  10.265  0.9442 -1.5544 -0.6660
 9501TIP3   OH252697   4.213   3.756  11.127  0.5050  0.5407 -0.7092
 9501TIP3    H152698   4.268   3.834  11.130  0.4274  0.5797  0.9094
 9501TIP3    H252699   4.213   3.724  11.217 -0.5454 -0.5634 -1.0776
 9502TIP3   OH252700   3.865   0.014  10.618 -0.1359  0.2529  0.2403
 9502TIP3    H152701   3.873   0.016  10.713 -0.6772 -0.6599  0.3183
 9502TIP3    H252702   3.881   0.104  10.590  0.0115  0.5299  1.1934
 9503TIP3   OH252703   3.515   4.075  11.928 -0.5072 -0.1177 -0.6821
 9503TIP3    H152704   3.505   4.014  12.001 -1.3997  0.3988 -0.3634
 9503TIP3    H252705   3.610   4.085  11.918 -0.3686 -0.0272  0.5600
 9504TIP3   OH252706   4.237   7.286  11.215 -0.4688  0.3646 -0.4512
 9504TIP3    H152707   4.239   7.293  11.311  0.1419  0.5482 -0.4685
 9504TIP3    H252708   4.266   7.197  11.197 -0.1546  0.4688 -0.4736
 9505TIP3   OH252709   7.645   4.709  10.931  0.1338  0.0814  0.2030
 9505TIP3    H152710   7.615   4.618  10.934 -1.3764  0.3996 -2.4421
 9505TIP3    H252711   7.741   4.702  10.931  0.0701 -1.3702  1.7617
 9506TIP3   OH252712   1.126   3.701  10.496 -0.3356  0.5060  0.6606
 9506TIP3    H152713   1.096   3.617  10.463 -0.8776  1.1132 -0.4503
 9506TIP3    H252714   1.177   3.739  10.424 -1.7030  1.9452  0.4073
 9507TIP3   OH252715   1.101   7.668  11.231 -0.1613  0.5433 -0.5485
 9507TIP3    H152716   1.007   7.686  11.221  0.0140  2.2765  0.4908
 9507TIP3    H252717   1.128   7.631  11.147 -1.5177  1.2385 -1.3234
 9508TIP3   OH252718   6.343   5.544  12.431 -0.4886  0.1193  0.1908
 9508TIP3    H152719   6.420   5.489  12.448 -0.7097 -0.4575 -0.6001
 9508TIP3    H252720   6.370   5.632  12.457  1.4546  0.5075 -2.6017
 9509TIP3   OH252721   2.869   3.622  12.218 -0.4825  0.4460 -0.5325
 9509TIP3    H152722   2.926   3.639  12.292  0.4347 -0.4769 -0.9997
 9509TIP3    H252723   2.869   3.704  12.168 -0.2515  0.7209 -0.0851
 9510TIP3   OH252724   5.433   0.398  10.842 -0.4718 -0.1160  0.5295
 9510TIP3    H152725   5.358   0.453  10.820  0.6309  1.1098 -0.3501
 9510TIP3    H252726   5.480   0.448  10.910 -0.1720 -0.6161  0.6969
 9511TIP3   OH252727   1.093   6.594  10.917  0.1240 -0.0758 -0.3792
 9511TIP3    H152728   1.188   6.607  10.905  0.3336 -0.0100  1.0992
 9511TIP3    H252729   1.056   6.682  10.911  0.4303  0.1745  0.9293
 9512TIP3   OH252730   7.502   5.438  12.332  0.0682  0.3036  0.2367
 9512TIP3    H152731   7.571   5.455  12.396 -0.7848  2.3035  0.6818
 9512TIP3    H252732   7.488   5.523  12.289 -1.5299 -0.2671 -0.4284
 9513TIP3   OH252733   6.758   3.927  10.794 -0.4995  0.5967  0.4520
 9513TIP3    H152734   6.708   3.951  10.872 -0.0758  2.0624  0.3165
 9513TIP3    H252735   6.811   4.005  10.775 -0.6336  0.3005 -1.3325
 9514TIP3   OH252736   0.679   0.034  10.589  0.0143  0.1175  0.1373
 9514TIP3    H152737   0.658   0.079  10.507  0.9796  0.9161  0.2941
 9514TIP3    H252738   0.719   0.103  10.644  0.0266 -0.5648  1.0068
 9515TIP3   OH252739   5.522   2.359  11.729  0.4432  0.0251  0.4832
 9515TIP3    H152740   5.475   2.436  11.762  1.8500  0.0678  2.6223
 9515TIP3    H252741   5.541   2.380  11.638 -2.9589  0.2894 -0.2782
 9516TIP3   OH252742   6.164   5.914  11.970 -0.2225  0.0300  0.5279
 9516TIP3    H152743   6.096   5.897  11.905  0.6321  0.1701 -0.4137
 9516TIP3    H252744   6.236   5.856  11.945  0.7686  1.3326  0.3151
 9517TIP3   OH252745   5.871   0.177  11.417 -0.4765 -0.4972  0.0520
 9517TIP3    H152746   5.815   0.133  11.481  1.4852  0.0666  2.3077
 9517TIP3    H252747   5.915   0.106  11.371 -0.7378 -0.9106  0.4308
 9518TIP3   OH252748   5.553   2.889  10.513 -0.8620 -0.2519  0.4362
 9518TIP3    H152749   5.483   2.855  10.456  1.4483 -1.2777 -1.9783
 9518TIP3    H252750   5.595   2.811  10.549 -1.1602  0.3614  2.2191
 9519TIP3   OH252751   2.239   6.444  11.556 -0.4534  0.3755  0.3882
 9519TIP3    H152752   2.270   6.510  11.619  0.7718  0.3739 -0.1979
 9519TIP3    H252753   2.179   6.492  11.499 -0.6612  0.6504  0.8301
 9520TIP3   OH252754   4.640   4.664  11.243 -0.4508 -0.1096 -0.2321
 9520TIP3    H152755   4.699   4.620  11.305 -0.2974  0.0724 -0.2490
 9520TIP3    H252756   4.689   4.740  11.212  0.2215 -1.2181 -2.0283
 9521TIP3   OH252757   7.021   3.817  12.931 -0.2033 -0.7541  0.1478
 9521TIP3    H152758   7.094   3.757  12.944  0.7452 -0.2329 -2.1912
 9521TIP3    H252759   7.061   3.895  12.892 -1.6521  0.6857  1.3772
 9522TIP3   OH252760   4.903   4.670  11.407 -0.4363 -0.0594 -0.2892
 9522TIP3    H152761   4.989   4.713  11.409 -0.6295  0.4421 -1.7735
 9522TIP3    H252762   4.918   4.586  11.451  1.0984 -0.4330 -1.4016
 9523TIP3   OH252763   6.262   6.431  11.946  0.4854  0.6356 -0.0204
 9523TIP3    H152764   6.203   6.447  12.020  0.9312 -0.0197  0.4883
 9523TIP3    H252765   6.275   6.336  11.947  0.9115  0.6868 -0.6230
 9524TIP3   OH252766   5.441   2.014  10.659  0.5088 -0.2657  0.3605
 9524TIP3    H152767   5.372   1.955  10.627 -1.4924  1.8045  0.6238
 9524TIP3    H252768   5.516   1.996  10.603 -1.4888  0.1993 -2.6727
 9525TIP3   OH252769   1.452   7.479  12.104 -0.1559  0.4494  0.0734
 9525TIP3    H152770   1.517   7.411  12.087 -0.0539  0.6434 -0.3178
 9525TIP3    H252771   1.478   7.553  12.049 -0.0033  0.9789  0.8437
 9526TIP3   OH252772   7.103   4.885  10.062 -0.3696  0.4557  0.1466
 9526TIP3    H152773   7.008   4.875  10.067 -0.4965  1.8788  1.0856
 9526TIP3    H252774   7.135   4.797  10.042 -1.8541 -0.1229  0.1792
 9527TIP3   OH252775   4.826   2.178  10.952 -0.5566  0.3162  0.0159
 9527TIP3    H152776   4.874   2.256  10.925  1.8085 -0.3172  2.0315
 9527TIP3    H252777   4.778   2.205  11.030 -1.2190  0.2036 -0.3457
 9528TIP3   OH252778   0.592   3.050  11.837 -0.1542  0.2649 -0.0528
 9528TIP3    H152779   0.673   3.067  11.885 -0.6359  0.3060  0.7608
 9528TIP3    H252780   0.576   2.956  11.850 -0.8527  0.4866  0.7843
 9529TIP3   OH252781   0.432   1.158  11.669  0.1226  0.7162  0.3550
 9529TIP3    H152782   0.520   1.150  11.632 -0.6583 -0.2407 -1.4508
 9529TIP3    H252783   0.375   1.169  11.593 -1.3380  1.1822  1.4725
 9530TIP3   OH252784   6.807   6.726  10.568 -0.0336  0.3737  0.1047
 9530TIP3    H152785   6.760   6.788  10.512 -0.9660 -1.5527 -1.3569
 9530TIP3    H252786   6.892   6.714  10.525 -0.1472  0.0712 -0.0361
 9531TIP3   OH252787   1.650   0.289  10.414  0.4610  0.1053 -0.1692
 9531TIP3    H152788   1.633   0.219  10.351 -0.7093 -1.4594  1.7640
 9531TIP3    H252789   1.718   0.254  10.472 -0.1515  0.5392  0.8411
 9532TIP3   OH252790   3.765   0.816  10.755  0.4323  0.4149  0.0104
 9532TIP3    H152791   3.801   0.728  10.738 -1.4465 -0.2476 -0.7440
 9532TIP3    H252792   3.730   0.810  10.844 -2.3310 -0.5984 -1.0571
 9533TIP3   OH252793   7.382   5.768   9.876  0.0348  0.1923  0.0027
 9533TIP3    H152794   7.332   5.777   9.958  0.2781 -1.4173  0.3514
 9533TIP3    H252795   7.335   5.824   9.814 -1.3306 -0.1133  0.7150
 9534TIP3   OH252796   2.645   0.135  10.030  0.1882 -0.5724  0.1604
 9534TIP3    H152797   2.684   0.180  10.105 -0.1765  2.0461 -1.1165
 9534TIP3    H252798   2.718   0.121   9.970 -0.1678  1.2075 -0.7533
 9535TIP3   OH252799   5.570   0.696  13.294 -0.0960  0.2276 -0.3273
 9535TIP3    H152800   5.609   0.783  13.292  1.2499 -0.3525 -0.3744
 9535TIP3    H252801   5.575   0.665  13.204 -2.2123  0.7677 -0.6804
 9536TIP3   OH252802   1.761   1.020  13.440 -0.3829 -0.4321  0.3590
 9536TIP3    H152803   1.807   0.997  13.359 -0.4922  0.0704  0.1516
 9536TIP3    H252804   1.825   1.068  13.492 -0.0653 -1.4284  0.9175
 9537TIP3   OH252805   7.342   4.825  10.354  0.0776 -0.3529 -0.0483
 9537TIP3    H152806   7.367   4.765  10.283 -0.7223  0.6086 -1.1648
 9537TIP3    H252807   7.330   4.910  10.311 -0.2772  0.2846  1.2670
 9538TIP3   OH252808   3.823   0.857  10.398  0.6302  0.1546 -0.0968
 9538TIP3    H152809   3.876   0.893  10.469 -1.8752  0.4465  1.7756
 9538TIP3    H252810   3.738   0.899  10.409 -0.1156 -0.5017 -2.7625
 9539TIP3   OH252811   5.671   4.794  11.582  0.1306  0.1524 -1.1193
 9539TIP3    H152812   5.581   4.777  11.610  1.3394 -3.1994  1.4237
 9539TIP3    H252813   5.685   4.735  11.508  0.3488  0.4933 -1.3550
 9540TIP3   OH252814   5.790   7.557   9.803 -0.0504 -0.0496 -0.8327
 9540TIP3    H152815   5.722   7.584   9.866  2.0952 -1.0522  2.1488
 9540TIP3    H252816   5.762   7.470   9.774 -0.0237 -0.5440  0.5313
 9541TIP3   OH252817   3.173   1.003  13.176  0.3056  0.5008  0.3986
 9541TIP3    H152818   3.157   1.082  13.227  2.0660  0.7450  0.6302
 9541TIP3    H252819   3.235   1.030  13.109  1.5303 -0.8274  0.9429
 9542TIP3   OH252820   6.800   5.673  11.204  0.5027 -0.0561  0.0933
 9542TIP3    H152821   6.858   5.748  11.218  0.3159  0.1726 -0.3482
 9542TIP3    H252822   6.851   5.597  11.234  1.6527 -0.0564 -1.7441
 9543TIP3   OH252823   0.204   6.529  10.733  0.1701 -0.0735 -0.3416
 9543TIP3    H152824   0.119   6.500  10.767 -0.5142  1.8730 -0.2803
 9543TIP3    H252825   0.196   6.520  10.638  1.2388 -3.2736 -0.2338
 9544TIP3   OH252826   3.883   3.100  12.490 -0.5885 -0.1726  0.0284
 9544TIP3    H152827   3.817   3.116  12.557 -0.3895  0.5456  0.0597
 9544TIP3    H252828   3.853   3.021  12.445 -1.0337 -0.3215  0.5741
 9545TIP3   OH252829   2.096   0.900  12.139 -0.0902  0.3211  0.2423
 9545TIP3    H152830   2.145   0.899  12.221 -1.2249  0.6471  0.9484
 9545TIP3    H252831   2.027   0.835  12.152 -0.8935  1.0941 -0.0585
 9546TIP3   OH252832   2.664   6.534  12.108  0.3042 -0.3841 -0.0686
 9546TIP3    H152833   2.705   6.494  12.185 -0.6020  0.9617  1.1588
 9546TIP3    H252834   2.581   6.487  12.099 -1.0004  1.4510  1.6898
 9547TIP3   OH252835   4.375   5.298  10.145 -0.2892 -0.0250  0.0425
 9547TIP3    H152836   4.420   5.287  10.062  0.4785 -1.6356  0.6329
 9547TIP3    H252837   4.318   5.374  10.132 -1.2633 -1.0924 -2.4017
 9548TIP3   OH252838   0.343   1.412  12.069  0.2646  0.2108 -0.3075
 9548TIP3    H152839   0.273   1.360  12.107 -0.4798  2.3934  1.5628
 9548TIP3    H252840   0.419   1.354  12.069 -1.0581 -1.6024 -0.6282
 9549TIP3   OH252841   6.188   2.855  10.982  0.5263  0.2250 -1.0137
 9549TIP3    H152842   6.130   2.875  10.909 -1.2630  0.0812  0.2740
 9549TIP3    H252843   6.138   2.791  11.034  0.1208  2.8567  2.1364
 9550TIP3   OH252844   5.466   6.003  11.545  0.1802 -0.0488  0.4583
 9550TIP3    H152845   5.451   6.088  11.505  1.7186  0.4418  0.8553
 9550TIP3    H252846   5.444   6.014  11.637  2.6948  0.6899  1.0556
 9551TIP3   OH252847   3.842   6.653  12.380  0.0080  0.1431  0.1457
 9551TIP3    H152848   3.937   6.649  12.366 -0.3385 -1.9989 -2.4505
 9551TIP3    H252849   3.822   6.572  12.426 -0.5633  0.7362  0.9602
 9552TIP3   OH252850   1.361   7.272  11.355  0.5340 -0.2161 -0.1074
 9552TIP3    H152851   1.360   7.177  11.364 -1.7268 -0.3518 -1.1714
 9552TIP3    H252852   1.295   7.303  11.417  2.3071  0.8369  1.3414
 9553TIP3   OH252853   1.109   1.152  10.248 -0.3556 -0.4546  0.4386
 9553TIP3    H152854   1.145   1.090  10.184  0.9429  0.9607 -0.2537
 9553TIP3    H252855   1.015   1.133  10.249 -0.2234 -1.3657 -0.9347
 9554TIP3   OH252856   1.420   0.366  11.839  0.2339 -0.2503 -0.2495
 9554TIP3    H152857   1.448   0.457  11.835 -0.9617  0.1281 -0.4791
 9554TIP3    H252858   1.480   0.319  11.781  0.6617  0.4401 -0.3665
 9555TIP3   OH252859   7.086   4.044  11.708 -0.0093 -0.8783  0.0016
 9555TIP3    H152860   7.172   4.004  11.721  0.2518 -0.6062 -0.8299
 9555TIP3    H252861   7.106   4.131  11.673 -0.6461 -1.4053 -1.7570
 9556TIP3   OH252862   5.084   2.752  10.493  0.2724  0.3988 -0.9657
 9556TIP3    H152863   5.096   2.709  10.578 -1.0129 -0.0806 -0.9948
 9556TIP3    H252864   5.093   2.846  10.511 -0.0563  0.3014 -0.2844
 9557TIP3   OH252865   0.574   3.486  12.011  0.2691  0.3476 -0.1530
 9557TIP3    H152866   0.643   3.420  12.012  1.3441  1.3553 -2.4823
 9557TIP3    H252867   0.608   3.558  12.063 -0.5780 -0.5331  1.7170
 9558TIP3   OH252868   5.917   6.645  11.312  0.2746  0.2592 -0.3152
 9558TIP3    H152869   5.881   6.556  11.304 -0.4532  0.6108 -1.0678
 9558TIP3    H252870   5.845   6.702  11.288  0.2432  1.1442  1.7007
 9559TIP3   OH252871   6.826   4.864  10.493  0.2037 -0.0966  0.7001
 9559TIP3    H152872   6.849   4.796  10.429  0.7158  0.2728  0.4870
 9559TIP3    H252873   6.738   4.892  10.468 -1.6134 -3.1928  2.9243
 9560TIP3   OH252874   6.631   2.472  11.381 -0.4483  0.0748 -0.0538
 9560TIP3    H152875   6.699   2.476  11.314  0.1964  0.5232  0.6052
 9560TIP3    H252876   6.579   2.550  11.366 -0.4802  0.0234 -0.2124
 9561TIP3   OH252877   1.982   0.791  12.527 -0.2099 -0.9642  0.1479
 9561TIP3    H152878   1.935   0.825  12.603  0.8486  0.3659  0.2303
 9561TIP3    H252879   1.978   0.696  12.537  1.9756 -0.8681  3.2020
 9562TIP3   OH252880   4.413   2.829  10.422  0.1288  0.1826  0.3388
 9562TIP3    H152881   4.407   2.924  10.411  0.4102  0.0728 -0.8657
 9562TIP3    H252882   4.325   2.797  10.399 -0.0827  0.1733  1.1269
 9563TIP3   OH252883   6.067   1.965  10.037  0.1594  0.0082 -0.3513
 9563TIP3    H152884   6.104   1.898   9.980  2.6854  2.3080 -1.5826
 9563TIP3    H252885   6.118   1.958  10.118  0.5108  0.5350 -0.5287
 9564TIP3   OH252886   3.381   5.840  11.559  0.4659  0.0600 -0.3228
 9564TIP3    H152887   3.306   5.838  11.619 -0.3808  0.8899 -1.3047
 9564TIP3    H252888   3.404   5.748  11.545 -1.5660 -0.3500 -1.4052
 9565TIP3   OH252889   0.077   5.362  10.040  0.7904  0.4558 -0.0223
 9565TIP3    H152890   0.128   5.287  10.009  0.0075  0.0499 -0.3595
 9565TIP3    H252891   0.001   5.366   9.981 -0.9379 -0.5651  1.9941
 9566TIP3   OH252892   7.586   6.870  10.463 -0.2837 -0.0894  0.1643
 9566TIP3    H152893   7.673   6.863  10.424  0.4437  0.0350  1.7043
 9566TIP3    H252894   7.526   6.861  10.388  1.0305 -0.0362 -0.9460
 9567TIP3   OH252895   1.111   7.455  10.776  0.1418  0.4907 -0.0939
 9567TIP3    H152896   1.017   7.453  10.790  0.0312  1.3824 -0.6283
 9567TIP3    H252897   1.121   7.463  10.681  0.7489  0.4429 -0.0370
 9568TIP3   OH252898   2.726   2.817  12.909  0.1747 -0.2758 -0.3696
 9568TIP3    H152899   2.700   2.736  12.865  0.4775  0.3770 -1.8088
 9568TIP3    H252900   2.817   2.830  12.884  0.5278 -0.1472  0.9097
 9569TIP3   OH252901   1.940   4.701  11.035 -0.3111 -0.2633  0.5752
 9569TIP3    H152902   1.883   4.758  11.087  2.5180  2.6240  0.8105
 9569TIP3    H252903   2.011   4.677  11.095  1.1012  0.0919 -0.8892
 9570TIP3   OH252904   1.831   5.808  11.655 -0.1611 -0.0670  0.2100
 9570TIP3    H152905   1.809   5.868  11.583  0.1341  1.6991  1.5033
 9570TIP3    H252906   1.753   5.753  11.665  0.4052 -1.5119 -2.4866
 9571TIP3   OH252907   0.429   1.236  12.462  0.2131 -0.1762 -0.2165
 9571TIP3    H152908   0.446   1.145  12.484 -0.7722 -0.4842 -0.6742
 9571TIP3    H252909   0.334   1.242  12.454  0.1799  1.1079  0.7235
 9572TIP3   OH252910   2.728   2.104  12.455  0.0824  1.3077 -0.2064
 9572TIP3    H152911   2.724   2.142  12.543 -0.0141  0.9279 -0.0418
 9572TIP3    H252912   2.795   2.036  12.461 -2.7200 -1.6816  0.8046
 9573TIP3   OH252913   5.263   0.507  11.561  0.2939  0.2846  0.1754
 9573TIP3    H152914   5.251   0.465  11.646  1.3112  1.1566  0.7751
 9573TIP3    H252915   5.180   0.493  11.516 -0.1668 -0.4374  1.2022
 9574TIP3   OH252916   4.006   0.669  10.694 -0.0419  0.7500 -0.1397
 9574TIP3    H152917   4.014   0.758  10.729 -1.7843  0.4707  1.1442
 9574TIP3    H252918   4.094   0.633  10.698  0.6299  2.2993 -0.3519
 9575TIP3   OH252919   0.384   3.544  11.549 -0.2786 -0.5822 -0.0265
 9575TIP3    H152920   0.406   3.590  11.468  1.2607  0.1805  0.7926
 9575TIP3    H252921   0.394   3.452  11.527  0.5860 -0.3660 -0.5828
 9576TIP3   OH252922   0.902   5.584  10.055 -0.1458  0.2745  0.2864
 9576TIP3    H152923   0.898   5.558   9.963  0.3273  1.3412 -0.0494
 9576TIP3    H252924   0.835   5.652  10.064  0.0695  0.4453  0.6366
 9577TIP3   OH252925   6.581   7.569   9.743 -0.8953 -0.1639 -0.1147
 9577TIP3    H152926   6.551   7.600   9.828 -0.0743 -2.3718  1.0632
 9577TIP3    H252927   6.534   7.486   9.729  0.2103 -0.6803 -1.0092
 9578TIP3   OH252928   3.212   7.324  11.108 -0.6794 -0.1689 -0.4479
 9578TIP3    H152929   3.148   7.297  11.042 -1.9938  0.2059  0.6441
 9578TIP3    H252930   3.178   7.406  11.143 -0.6553 -0.9572  1.5427
 9579TIP3   OH252931   7.662   7.208  11.481 -0.4941  0.2017  0.1293
 9579TIP3    H152932   7.689   7.219  11.572  0.4095  0.5062 -0.1678
 9579TIP3    H252933   7.620   7.291  11.458  0.4708  0.6263 -0.1292
 9580TIP3   OH252934   3.235   1.228  11.958  0.0723 -0.3291  0.0612
 9580TIP3    H152935   3.233   1.248  12.051 -2.3179  2.3105 -0.4206
 9580TIP3    H252936   3.328   1.233  11.934  0.5579  0.7584  1.9582
 9581TIP3   OH252937   3.327   4.739  11.123 -0.4526 -0.2484  0.0313
 9581TIP3    H152938   3.292   4.801  11.187 -0.7626 -1.7015  1.3305
 9581TIP3    H252939   3.326   4.787  11.040 -0.1697  1.6503  1.0682
 9582TIP3   OH252940   6.656   0.751  10.922 -0.3194  0.0230 -0.0620
 9582TIP3    H152941   6.589   0.769  10.988  0.7314  0.7090  0.8444
 9582TIP3    H252942   6.611   0.696  10.857 -1.7401  0.4275  0.5331
 9583TIP3   OH252943   5.933   0.124  10.319 -0.2949 -0.0827 -0.2115
 9583TIP3    H152944   5.999   0.098  10.254  0.2875  0.7939  0.0158
 9583TIP3    H252945   5.903   0.041  10.356  2.1983 -0.4641  1.1764
 9584TIP3   OH252946   5.221   7.370  10.763 -0.5811  0.0803 -1.2046
 9584TIP3    H152947   5.128   7.351  10.774 -1.0403  2.4363 -0.2767
 9584TIP3    H252948   5.232   7.458  10.800  1.8851  0.1665 -1.9317
 9585TIP3   OH252949   0.216   1.908  12.102 -0.7018  0.1267 -0.1310
 9585TIP3    H152950   0.309   1.927  12.089 -0.4472 -1.3590 -0.7424
 9585TIP3    H252951   0.189   1.965  12.174  0.1380  2.1277 -1.3123
 9586TIP3   OH252952   3.444   3.729  12.620 -0.2248 -0.5958 -0.2033
 9586TIP3    H152953   3.497   3.793  12.571 -0.0788  0.1036  0.8404
 9586TIP3    H252954   3.364   3.721  12.568 -0.4125  0.7505 -0.1597
 9587TIP3   OH252955   0.139   4.164  11.820 -0.1619 -0.1680 -0.3410
 9587TIP3    H152956   0.192   4.169  11.900  0.9296 -1.9673 -0.9147
 9587TIP3    H252957   0.174   4.090  11.772 -0.8930  0.7901 -2.4631
 9588TIP3   OH252958   7.049   3.961  11.404 -0.3037  0.5899 -0.5938
 9588TIP3    H152959   6.976   3.977  11.344 -1.2932  0.1233  0.4432
 9588TIP3    H252960   7.028   4.013  11.482 -0.6480 -1.1738  0.5506
 9589TIP3   OH252961   0.547   0.876  10.437  0.6576 -0.0894  0.2781
 9589TIP3    H152962   0.528   0.811  10.505  0.5843  1.4116  1.7733
 9589TIP3    H252963   0.620   0.927  10.473  3.0849 -1.4381 -2.3597
 9590TIP3   OH252964   3.325   1.029  10.627 -0.3321 -0.0296  0.7146
 9590TIP3    H152965   3.407   0.984  10.607 -0.2512 -1.4001  3.6292
 9590TIP3    H252966   3.277   1.030  10.544  1.4639 -1.6888 -0.4261
 9591TIP3   OH252967   0.329   7.196  10.880  0.0681 -0.3998 -0.3962
 9591TIP3    H152968   0.397   7.136  10.849  0.3390 -1.0994  1.4572
 9591TIP3    H252969   0.372   7.249  10.947 -0.7671  0.3541 -0.4332
 9592TIP3   OH252970   2.538   1.326  11.316 -0.0980  0.3140  0.0499
 9592TIP3    H152971   2.618   1.328  11.368  0.5470 -2.5988 -0.6554
 9592TIP3    H252972   2.565   1.362  11.231  0.6322 -1.0135 -0.3131
 9593TIP3   OH252973   1.057   0.940  11.241  0.3389  0.1891  0.1465
 9593TIP3    H152974   0.964   0.963  11.249  0.2666 -0.1530  0.3300
 9593TIP3    H252975   1.075   0.942  11.147  0.2429  0.6323  0.1362
 9594TIP3   OH252976   7.666   1.406  10.838  0.4809  0.1049 -0.1525
 9594TIP3    H152977   7.756   1.389  10.867  0.2627 -0.7116  0.0734
 9594TIP3    H252978   7.615   1.335  10.876  0.1505 -0.9402 -2.4178
 9595TIP3   OH252979   7.557   7.282   9.942  0.0323  0.1912 -0.2708
 9595TIP3    H152980   7.493   7.351   9.930  1.4320  1.6219  0.1028
 9595TIP3    H252981   7.627   7.323   9.993  1.1223 -1.3705 -0.4384
 9596TIP3   OH252982   2.453   5.183  10.096  0.6299  0.4106 -0.4039
 9596TIP3    H152983   2.434   5.130  10.173  0.3902 -0.5852 -1.1424
 9596TIP3    H252984   2.410   5.267  10.114 -0.9410 -0.4073 -0.2281
 9597TIP3   OH252985   5.852   5.006  11.491 -0.0603 -0.3369  0.0245
 9597TIP3    H152986   5.766   4.964  11.500  0.1651 -1.0278 -0.9127
 9597TIP3    H252987   5.903   4.944  11.439  0.3791  0.9938 -1.1808
 9598TIP3   OH252988   4.659   2.371  10.327 -0.2376 -0.4628  0.2128
 9598TIP3    H152989   4.592   2.365  10.259  0.4743 -2.4088 -0.3920
 9598TIP3    H252990   4.611   2.360  10.409 -0.8948  0.1455 -0.0822
 9599TIP3   OH252991   3.257   0.405  12.225  0.3738 -0.1408  0.0659
 9599TIP3    H152992   3.260   0.449  12.310  0.7722 -0.7294  0.3631
 9599TIP3    H252993   3.349   0.387  12.204  0.1688 -2.2332  0.7040
 9600TIP3   OH252994   2.800   0.994  10.483  0.0708 -0.1243 -0.1893
 9600TIP3    H152995   2.874   0.933  10.486 -1.5448 -2.1042  1.8866
 9600TIP3    H252996   2.778   1.010  10.575 -1.9761  0.5366 -0.7422
 9601TIP3   OH252997   2.120   3.829  10.808  0.4604 -0.4728  0.0056
 9601TIP3    H152998   2.084   3.897  10.865 -0.0562 -1.3827  0.8003
 9601TIP3    H252999   2.068   3.835  10.728 -0.2873 -0.6036  0.4687
 9602TIP3   OH253000   2.116   1.393  11.576 -0.2758 -0.4971  0.0272
 9602TIP3    H153001   2.057   1.318  11.573  0.8766 -1.4899  1.0362
 9602TIP3    H253002   2.203   1.356  11.566  0.4373  0.4946  1.9239
 9603TIP3   OH253003   1.173   2.464  10.337  0.0903  0.1805  0.0069
 9603TIP3    H153004   1.148   2.470  10.245  1.6433 -0.3050 -0.4699
 9603TIP3    H253005   1.111   2.522  10.382 -1.6013 -0.6399 -1.1324
 9604TIP3   OH253006   0.787   6.710  12.469  0.2450  0.0640  0.3488
 9604TIP3    H153007   0.878   6.730  12.450  0.1252  2.8515  2.1104
 9604TIP3    H253008   0.741   6.720  12.386  1.0663  2.2418  0.1111
 9605TIP3   OH253009   1.637   1.653  12.148 -0.2185  0.3612 -0.9133
 9605TIP3    H153010   1.594   1.587  12.202  2.6164 -1.5384 -0.7683
 9605TIP3    H253011   1.696   1.698  12.208  1.3350 -0.2425 -1.9328
 9606TIP3   OH253012   2.787   2.319  11.518 -0.0778 -0.4605 -0.2222
 9606TIP3    H153013   2.737   2.298  11.597  0.0510 -1.8579 -0.4846
 9606TIP3    H253014   2.770   2.411  11.503 -0.0373 -0.1285  1.4916
 9607TIP3   OH253015   3.190   3.296  12.325 -0.5431 -0.3797 -0.1586
 9607TIP3    H153016   3.264   3.236  12.339  1.7749  2.1663 -0.5791
 9607TIP3    H253017   3.171   3.331  12.412 -0.2695  0.0494 -0.2725
 9608TIP3   OH253018   7.441   0.421  10.440  0.5898 -0.2798 -0.1585
 9608TIP3    H153019   7.422   0.404  10.532 -1.2746  0.3371 -0.3800
 9608TIP3    H253020   7.376   0.487  10.414  1.2508 -0.2397 -1.8438
 9609TIP3   OH253021   4.390   2.022  11.770 -0.3903 -0.1175  0.1834
 9609TIP3    H153022   4.329   2.088  11.803 -1.1938  0.2223 -1.8320
 9609TIP3    H253023   4.461   2.072  11.730 -0.1579 -0.4838  0.1284
 9610TIP3   OH253024   4.487   1.556  11.026  0.7355  0.3002  0.4485
 9610TIP3    H153025   4.433   1.498  10.971  2.2468 -0.1047 -0.6596
 9610TIP3    H253026   4.438   1.638  11.029 -0.0360 -0.1074 -0.3903
 9611TIP3   OH253027   6.269   3.053  10.195 -0.1707  0.0418 -0.7202
 9611TIP3    H153028   6.303   3.120  10.137  0.2700 -1.3752 -2.1542
 9611TIP3    H253029   6.174   3.063  10.190 -0.1213  0.2351 -1.3118
 9612TIP3   OH253030   7.567   3.941  10.596  0.4090 -0.1528 -0.1024
 9612TIP3    H153031   7.612   3.954  10.512  2.0602 -2.4574  0.3507
 9612TIP3    H253032   7.474   3.952  10.574  0.8822  0.5422 -1.9644
 9613TIP3   OH253033   0.130   4.686  11.918 -0.0144  0.3680  0.1310
 9613TIP3    H153034   0.119   4.769  11.966  2.0355  0.3258  0.7524
 9613TIP3    H253035   0.091   4.703  11.832 -0.2461  1.7474  0.4813
 9614TIP3   OH253036   6.657   0.076  11.239 -0.0907 -0.9684  0.1506
 9614TIP3    H153037   6.682  -0.010  11.204 -0.2028 -0.9345 -0.0152
 9614TIP3    H253038   6.674   0.137  11.167 -0.4069 -0.9103  0.1206
 9615TIP3   OH253039   3.674   5.884  11.474  0.0514  0.6542  0.2164
 9615TIP3    H153040   3.585   5.875  11.509 -0.9021  0.8153 -2.0102
 9615TIP3    H253041   3.722   5.812  11.515 -0.8025  1.1439  2.2153
 9616TIP3   OH253042   5.165   1.394  11.709 -0.2598 -0.1183  0.1133
 9616TIP3    H153043   5.172   1.320  11.649  1.6744  0.3407 -0.2839
 9616TIP3    H253044   5.174   1.354  11.796 -3.6185 -0.8561  0.2562
 9617TIP3   OH253045   6.468   2.532  12.775 -0.1620 -0.1193  0.0671
 9617TIP3    H153046   6.440   2.443  12.798  0.4975 -0.5717 -0.8086
 9617TIP3    H253047   6.387   2.582  12.769 -0.4037 -0.0284  3.0138
 9618TIP3   OH253048   4.355   5.994  10.771 -0.4177  0.1655 -0.5933
 9618TIP3    H153049   4.399   5.911  10.752  0.3301  0.5195 -0.4421
 9618TIP3    H253050   4.333   6.029  10.684  0.4841  0.4496 -0.7156
 9619TIP3   OH253051   1.285   0.185   9.892  0.1806 -0.6005 -0.1700
 9619TIP3    H153052   1.212   0.238   9.925  0.2713 -0.1155 -0.7296
 9619TIP3    H253053   1.243   0.116   9.841  0.1393  0.6075 -1.8432
 9620TIP3   OH253054   6.632   3.623  11.214 -0.0064  0.1971 -0.1731
 9620TIP3    H153055   6.712   3.622  11.162  0.3961  0.4106  0.4273
 9620TIP3    H253056   6.575   3.685  11.169 -0.0218 -0.3237 -0.8724
 9621TIP3   OH253057   3.516   5.231  11.740 -0.4562 -0.6617  0.0606
 9621TIP3    H153058   3.572   5.306  11.757 -1.4538 -0.0383  0.6337
 9621TIP3    H253059   3.563   5.182  11.672 -1.2763  2.1561 -2.7897
 9622TIP3   OH253060   5.630   4.210  11.333  0.2623  0.5956 -0.1321
 9622TIP3    H153061   5.557   4.271  11.341  1.2538  2.2053 -2.3506
 9622TIP3    H253062   5.642   4.198  11.239  1.8869 -0.8346  0.1965
 9623TIP3   OH253063   1.107   2.388   9.882  0.1507 -0.3933  0.8225
 9623TIP3    H153064   1.044   2.379   9.811  0.3472  3.6525 -0.1289
 9623TIP3    H253065   1.054   2.396   9.961 -0.3230 -0.6724  0.5341
 9624TIP3   OH253066   2.461   6.009  10.095 -0.4125 -0.0382  0.1377
 9624TIP3    H153067   2.402   6.073  10.134  0.4035  1.1016 -0.4523
 9624TIP3    H253068   2.404   5.935  10.073 -1.3662  0.4480  0.8852
 9625TIP3   OH253069   0.894   5.076  10.612  0.0506  1.0843  0.3587
 9625TIP3    H153070   0.820   5.019  10.635 -0.9368  2.1276 -0.1553
 9625TIP3    H253071   0.863   5.127  10.537  0.9255  2.2582  0.7684
 9626TIP3   OH253072   6.414   5.447  11.838  0.2305 -0.3086  0.0768
 9626TIP3    H153073   6.416   5.372  11.779  0.1906 -0.6549  0.5149
 9626TIP3    H253074   6.332   5.438  11.886 -1.7899  2.0905 -2.5381
 9627TIP3   OH253075   3.406   2.329  10.982 -0.1898 -0.2425 -0.8258
 9627TIP3    H153076   3.464   2.325  11.059 -2.0102 -0.3613  0.6084
 9627TIP3    H253077   3.451   2.275  10.916  1.4234 -0.1490  0.1374
 9628TIP3   OH253078   5.448   0.397  11.234 -0.5644  0.2147  0.4488
 9628TIP3    H153079   5.535   0.425  11.262 -0.6671  0.5301  0.4592
 9628TIP3    H253080   5.418   0.467  11.176  0.0530 -0.8926 -1.2927
 9629TIP3   OH253081   4.973   3.367  11.933 -0.2613 -0.1448  0.3342
 9629TIP3    H153082   5.056   3.353  11.979 -0.8387 -2.1552  0.8650
 9629TIP3    H253083   4.909   3.314  11.981 -1.3060 -0.7839 -1.6194
 9630TIP3   OH253084   3.809   1.447  11.431  0.1827 -0.0806  0.5147
 9630TIP3    H153085   3.855   1.377  11.476 -0.7623 -1.4615 -0.5856
 9630TIP3    H253086   3.720   1.446  11.468 -0.3720 -0.7137 -0.7586
 9631TIP3   OH253087   2.966   0.982  12.593 -0.7517  0.4330 -0.3118
 9631TIP3    H153088   2.955   0.890  12.616 -0.0130  0.8542  1.9873
 9631TIP3    H253089   3.059   0.991  12.574 -0.6820  0.8457  0.2066
 9632TIP3   OH253090   6.204   0.293  10.446 -0.0362 -0.0392  0.0197
 9632TIP3    H153091   6.185   0.355  10.375 -0.0959 -0.4828 -0.3618
 9632TIP3    H253092   6.118   0.269  10.481 -0.1311 -1.0267 -0.8220
 9633TIP3   OH253093   7.166   6.178  10.505  0.1313  0.2351 -0.2477
 9633TIP3    H153094   7.094   6.121  10.480 -0.5080  0.7952  0.2783
 9633TIP3    H253095   7.220   6.125  10.564 -0.4930  0.1854  0.2900
 9634TIP3   OH253096   6.891   2.760  12.634  0.1380  0.1183  0.1769
 9634TIP3    H153097   6.823   2.806  12.586 -0.8951 -0.3938  1.0881
 9634TIP3    H253098   6.851   2.740  12.719  1.2193 -0.7210  0.5175
 9635TIP3   OH253099   6.694   6.040  12.231  0.3756 -0.5291 -0.4365
 9635TIP3    H153100   6.727   5.960  12.189  2.1180 -0.6893  1.1393
 9635TIP3    H253101   6.769   6.076  12.277 -1.2974 -0.0816  2.1353
 9636TIP3   OH253102   1.070   4.505  10.800  0.5086 -0.0034  0.2844
 9636TIP3    H153103   1.095   4.464  10.717  1.3315  2.2823 -0.6848
 9636TIP3    H253104   1.146   4.558  10.824 -0.7716  1.5663  1.0204
 9637TIP3   OH253105   7.141   4.513  11.489 -0.2034 -0.2991  0.7261
 9637TIP3    H153106   7.163   4.595  11.445 -0.5252  0.8215  2.5278
 9637TIP3    H253107   7.046   4.509  11.488 -0.1846 -0.7199  0.5228
 9638TIP3   OH253108   6.692   5.720   9.831 -0.0885 -0.3061  0.1091
 9638TIP3    H153109   6.676   5.656   9.900  1.7927  1.9671  2.8922
 9638TIP3    H253110   6.619   5.783   9.839  0.6175  0.4539  0.6802
 9639TIP3   OH253111   1.092   0.711  12.266  0.3321  0.0469  0.5024
 9639TIP3    H153112   1.046   0.628  12.280 -0.3762  0.5058  1.0004
 9639TIP3    H253113   1.137   0.728  12.348  3.9000 -1.8304 -0.8638
 9640TIP3   OH253114   0.518   4.209  12.347 -0.2763  0.2823  0.3470
 9640TIP3    H153115   0.571   4.192  12.269  0.2755  0.2946  0.7168
 9640TIP3    H253116   0.563   4.163  12.417 -1.3428 -0.6016  0.4728
 9641TIP3   OH253117   0.815   1.943  11.729  0.0275  0.6713 -0.1193
 9641TIP3    H153118   0.763   2.013  11.767 -2.2048 -1.2611  0.6940
 9641TIP3    H253119   0.806   1.870  11.791  0.6100 -0.9314 -1.8216
 9642TIP3   OH253120   3.370   2.166  10.755  0.1779  0.5840 -0.2517
 9642TIP3    H153121   3.464   2.154  10.756  0.0581 -0.4481 -0.3245
 9642TIP3    H253122   3.347   2.177  10.662  0.0081 -1.1852 -0.4463
 9643TIP3   OH253123   0.260   7.624  10.298  0.2169 -0.2280  0.4107
 9643TIP3    H153124   0.203   7.697  10.323  0.8950  0.8260 -1.0235
 9643TIP3    H253125   0.201   7.549  10.292 -0.9793  0.7429 -0.5923
 9644TIP3   OH253126   0.946   5.209  11.630  0.3447  0.1702 -0.4166
 9644TIP3    H153127   0.891   5.163  11.567  2.0749 -1.5297 -0.7841
 9644TIP3    H253128   1.005   5.262  11.577 -1.0670  2.3081 -0.0155
 9645TIP3   OH253129   0.284   0.793  11.754  0.3159  0.1482  0.0215
 9645TIP3    H153130   0.358   0.851  11.735  0.8338 -0.5971 -0.2765
 9645TIP3    H253131   0.210   0.853  11.769  1.1007  0.9308  0.9527
 9646TIP3   OH253132   1.083   5.089  11.098  0.4029  0.0134  0.0475
 9646TIP3    H153133   1.124   5.088  11.185  1.5229  0.4938 -0.4543
 9646TIP3    H253134   1.013   5.154  11.106 -0.3186 -0.8396  0.9303
 9647TIP3   OH253135   2.652   3.420  11.080  0.1867  0.2844  0.3350
 9647TIP3    H153136   2.582   3.361  11.051 -0.4320 -0.4212  3.0143
 9647TIP3    H253137   2.614   3.468  11.153  1.2331  2.8924 -0.7411
 9648TIP3   OH253138   0.101   6.423  12.360  0.3341 -0.2106 -0.2672
 9648TIP3    H153139   0.190   6.457  12.368 -0.4800  2.2166 -0.7706
 9648TIP3    H253140   0.080   6.390  12.447  0.8365  1.6007  0.5786
 9649TIP3   OH253141   7.421   7.190  11.227  0.3067  0.4145 -0.3869
 9649TIP3    H153142   7.469   7.273  11.225  3.1710 -1.0947 -0.8706
 9649TIP3    H253143   7.330   7.215  11.239  1.2374  3.5311  1.4498
 9650TIP3   OH253144   4.330   1.622  11.383 -0.1561  0.0252  0.0595
 9650TIP3    H153145   4.409   1.602  11.434 -0.2612  0.9933  0.6211
 9650TIP3    H253146   4.269   1.661  11.446 -0.4644  0.8066 -0.6938
 9651TIP3   OH253147   1.563   3.327  12.019  0.2138 -0.2010  0.2331
 9651TIP3    H153148   1.529   3.325  12.109  3.5225  0.7760  1.6858
 9651TIP3    H253149   1.630   3.258  12.018 -0.1509 -0.5816 -1.7361
 9652TIP3   OH253150   0.419   6.997  11.130 -0.6214 -0.1251 -0.6483
 9652TIP3    H153151   0.348   7.013  11.068 -0.3582 -0.4179 -1.0340
 9652TIP3    H253152   0.490   6.961  11.076  0.0269  0.6986 -0.3651
 9653TIP3   OH253153   6.888   1.334  11.883  0.7237 -0.5123  0.6448
 9653TIP3    H153154   6.865   1.366  11.796  0.4959 -1.5725  0.3061
 9653TIP3    H253155   6.807   1.297  11.917  1.1398 -1.3520  0.7442
 9654TIP3   OH253156   6.431   2.263  11.334 -0.1397  0.2625 -0.3597
 9654TIP3    H153157   6.359   2.297  11.281 -0.1462 -0.6150 -0.9185
 9654TIP3    H253158   6.469   2.341  11.375 -1.6065  0.7096  0.2129
 9655TIP3   OH253159   2.300   0.748  12.974  0.6798 -0.5246 -0.2942
 9655TIP3    H153160   2.373   0.777  13.028  0.5750 -0.8412  0.0228
 9655TIP3    H253161   2.277   0.824  12.921 -0.5874  0.4716  1.5942
 9656TIP3   OH253162   7.364   0.529  11.644 -0.3663  0.3452  0.3092
 9656TIP3    H153163   7.343   0.436  11.659 -2.4340  0.6453 -0.3309
 9656TIP3    H253164   7.278   0.570  11.631  0.5618  2.2266 -0.1340
 9657TIP3   OH253165   2.234   6.147  10.596  0.1480 -0.0771 -1.1908
 9657TIP3    H153166   2.222   6.080  10.664 -1.4904  1.0141 -0.3187
 9657TIP3    H253167   2.180   6.221  10.626  1.3915  1.4089 -2.4250
 9658TIP3   OH253168   1.792   0.459   9.914  0.6684 -0.1089 -0.1991
 9658TIP3    H153169   1.828   0.546   9.899 -0.3154  0.9472  2.9488
 9658TIP3    H253170   1.865   0.408   9.950  0.5730  0.2479  0.5133
 9659TIP3   OH253171   5.883   6.721  12.249 -0.4678  0.1682  0.2893
 9659TIP3    H153172   5.814   6.709  12.183 -1.0352  0.9800  0.7102
 9659TIP3    H253173   5.848   6.788  12.307  0.8777  0.9211  0.2603
 9660TIP3   OH253174   2.803   6.600  10.988 -0.1759 -0.1594 -0.1984
 9660TIP3    H153175   2.884   6.641  10.957 -0.0977 -1.1932 -1.4818
 9660TIP3    H253176   2.772   6.550  10.913 -2.7142  1.2047 -0.1453
 9661TIP3   OH253177   2.392   1.092  10.819  0.3178  0.0004  0.3103
 9661TIP3    H153178   2.358   1.020  10.872 -0.2316 -0.9891 -1.2900
 9661TIP3    H253179   2.434   1.048  10.744 -1.0761  1.3418 -1.3341
 9662TIP3   OH253180   3.009   1.408  11.566 -0.0154 -0.5618  0.1067
 9662TIP3    H153181   3.044   1.454  11.489 -0.2628 -0.6980 -0.0872
 9662TIP3    H253182   3.086   1.373  11.610  0.1357 -0.3920 -0.0212
 9663TIP3   OH253183   7.089   4.362  10.141  0.2730 -0.6870  0.0614
 9663TIP3    H153184   7.000   4.328  10.148  1.0195 -2.6444  0.8311
 9663TIP3    H253185   7.119   4.370  10.232  0.0198  2.5545 -0.0461
 9664TIP3   OH253186   0.485   1.576  11.490  0.1150  0.0181  0.6638
 9664TIP3    H153187   0.444   1.634  11.555 -1.0035 -0.6497  0.5888
 9664TIP3    H253188   0.520   1.635  11.423  0.0405  0.6532  1.1828
 9665TIP3   OH253189   0.657   7.546  11.065 -0.2711 -0.4770  0.2774
 9665TIP3    H153190   0.644   7.622  11.008  3.4153  0.7347  0.7565
 9665TIP3    H253191   0.604   7.565  11.143 -0.8535  0.6771 -0.3681
 9666TIP3   OH253192   7.138   2.746  11.776  0.3894 -0.2898  0.4445
 9666TIP3    H153193   7.053   2.791  11.780  0.2749 -0.5895  2.5143
 9666TIP3    H253194   7.118   2.659  11.742 -0.0350 -0.1243  0.2678
 9667TIP3   OH253195   4.855   3.883  10.338  0.0170 -0.0163 -0.1558
 9667TIP3    H153196   4.943   3.910  10.365  0.3758 -0.3532 -0.9391
 9667TIP3    H253197   4.796   3.941  10.385  0.5573 -1.0671  1.9595
 9668TIP3   OH253198   3.950   5.153  11.655 -0.0740 -0.2620 -0.7458
 9668TIP3    H153199   4.046   5.146  11.661 -0.0724 -1.1235 -1.4961
 9668TIP3    H253200   3.919   5.064  11.670 -1.0081  0.4936  2.6727
 9669TIP3   OH253201   7.232   5.819  10.099 -0.1314 -0.3517  0.8923
 9669TIP3    H153202   7.168   5.756  10.067 -0.2069  1.1145 -2.1624
 9669TIP3    H253203   7.182   5.898  10.117  0.5751  0.3792 -0.2096
 9670TIP3   OH253204   7.210   2.545  12.510  0.3322  0.0723  0.6301
 9670TIP3    H153205   7.163   2.624  12.484 -1.7369 -1.4427 -0.5533
 9670TIP3    H253206   7.158   2.508  12.582 -0.2509 -1.5150 -0.5365
 9671TIP3   OH253207   0.658   2.811  10.705 -0.3695 -1.0314  0.2454
 9671TIP3    H153208   0.583   2.868  10.719 -0.3081 -1.1699  1.2117
 9671TIP3    H253209   0.660   2.796  10.611 -0.4629  0.4538 -0.0201
 9672TIP3   OH253210   2.016   4.161  11.242 -0.3577  0.8407 -0.0790
 9672TIP3    H153211   2.062   4.217  11.304  1.0656 -0.8859  0.5313
 9672TIP3    H253212   2.009   4.076  11.287 -0.3813 -0.1261 -1.8092
 9673TIP3   OH253213   4.005   7.095  10.691 -0.1698 -0.4881  0.0426
 9673TIP3    H153214   3.929   7.153  10.684  1.5813  2.0357  0.6113
 9673TIP3    H253215   4.068   7.144  10.742  1.0046 -3.4978  1.7437
 9674TIP3   OH253216   5.323   1.781  10.568  0.4181 -0.3690 -0.0341
 9674TIP3    H153217   5.310   1.697  10.612 -0.5256 -0.0460  0.3443
 9674TIP3    H253218   5.234   1.810  10.547  0.7868  0.1120 -0.9743
 9675TIP3   OH253219   5.788   4.724  12.420  0.4241  0.0908  0.1360
 9675TIP3    H153220   5.837   4.694  12.497 -0.6816 -0.4310  0.6698
 9675TIP3    H253221   5.801   4.655  12.355  1.3401  0.5186 -0.1320
 9676TIP3   OH253222   0.413   4.951  10.344 -0.0409 -0.4044  0.7974
 9676TIP3    H153223   0.470   4.955  10.268  0.4417  1.0653  1.1985
 9676TIP3    H253224   0.329   4.986  10.313  0.4042  1.0132  1.1181
 9677TIP3   OH253225   4.377   1.923  11.242 -0.4409 -0.1195  0.3263
 9677TIP3    H153226   4.328   1.857  11.290 -0.8910  0.7352  1.0599
 9677TIP3    H253227   4.381   1.889  11.152 -0.9083 -0.9985  0.6273
 9678TIP3   OH253228   1.110   6.592  12.212 -0.0199  0.4768  0.1165
 9678TIP3    H153229   1.096   6.514  12.158  1.7435  0.5048 -0.4570
 9678TIP3    H253230   1.136   6.558  12.297  0.8105  0.4169 -0.1516
 9679TIP3   OH253231   0.686   4.657  11.903 -0.0495  1.1517  0.2616
 9679TIP3    H153232   0.740   4.735  11.911  0.3002  1.2157 -2.0554
 9679TIP3    H253233   0.613   4.684  11.846  0.2210 -0.2455 -0.8010
 9680TIP3   OH253234   0.749   0.531  11.649  0.0111  0.3803  0.2514
 9680TIP3    H153235   0.676   0.591  11.635 -0.5191 -0.1941  0.5002
 9680TIP3    H253236   0.801   0.537  11.569  1.0571  2.6323  1.0065
 9681TIP3   OH253237   0.839   3.042  10.744 -0.3226 -0.1528 -0.3365
 9681TIP3    H153238   0.909   3.046  10.679  1.5485 -1.6680  1.4244
 9681TIP3    H253239   0.799   2.956  10.731  0.3169 -0.6263  0.6858
 9682TIP3   OH253240   3.331   7.511  10.546  0.0814 -0.2396 -0.2248
 9682TIP3    H153241   3.265   7.522  10.615 -0.6975 -0.6807 -0.8852
 9682TIP3    H253242   3.413   7.501  10.593 -0.4684 -0.7285  0.6586
 9683TIP3   OH253243   2.517   4.479  10.848 -0.5519 -0.3991  0.1261
 9683TIP3    H153244   2.574   4.406  10.873  1.4836  0.2675 -2.0931
 9683TIP3    H253245   2.429   4.450  10.868  0.4881 -1.3161  4.2489
 9684TIP3   OH253246   0.784   1.018  10.907  0.1659  0.3844 -0.1586
 9684TIP3    H153247   0.725   0.964  10.856  1.2563 -2.2285  1.1586
 9684TIP3    H253248   0.871   0.980  10.893  0.6899  0.4187  2.4366
 9685TIP3   OH253249   1.160   4.126  11.088 -0.5134 -0.4391  0.0187
 9685TIP3    H153250   1.196   4.082  11.165  0.8437 -0.2861 -0.5001
 9685TIP3    H253251   1.133   4.055  11.030  0.2069 -0.5756 -0.1523
 9686TIP3   OH253252   2.024   2.518  10.134  0.1932  0.3453  0.1919
 9686TIP3    H153253   1.931   2.502  10.150  0.3513 -1.2782 -0.2923
 9686TIP3    H253254   2.054   2.439  10.089  1.2594  1.8730 -1.9426
 9687TIP3   OH253255   1.224   3.686  11.799 -0.0167  0.1684  0.3809
 9687TIP3    H153256   1.281   3.611  11.815  0.5345  0.8769  1.9620
 9687TIP3    H253257   1.141   3.663  11.841  0.4593  0.7964  1.7230
 9688TIP3   OH253258   6.777   2.381  10.595  0.4951  0.4193 -0.0346
 9688TIP3    H153259   6.777   2.350  10.504  1.2427 -0.1941  0.1689
 9688TIP3    H253260   6.685   2.401  10.614  0.2721  0.1112 -0.7720
 9689TIP3   OH253261   2.113   0.796   9.966  0.1848 -0.2690 -0.2111
 9689TIP3    H153262   2.148   0.815  10.053 -0.7413  0.8783 -0.0675
 9689TIP3    H253263   2.133   0.875   9.915 -0.7760 -0.2382 -0.5545
 9690TIP3   OH253264   0.324   2.365  10.909  0.2189 -0.5520 -0.0273
 9690TIP3    H153265   0.308   2.383  10.817 -0.5709 -1.3415 -0.0498
 9690TIP3    H253266   0.409   2.322  10.911 -0.7242 -2.5528 -0.6445
 9691TIP3   OH253267   0.421   6.845  10.158 -0.2289 -0.0558 -0.5355
 9691TIP3    H153268   0.401   6.781  10.226  0.1294  0.2410 -0.1456
 9691TIP3    H253269   0.380   6.809  10.079 -0.0011 -0.7795 -0.3338
 9692TIP3   OH253270   1.104   6.376  12.020  0.7769 -0.2280  0.3310
 9692TIP3    H153271   1.161   6.409  11.950  0.7280 -0.1182  0.3448
 9692TIP3    H253272   1.018   6.367  11.979  0.8323 -0.5242  0.2718
 9693TIP3   OH253273   6.205   0.863  11.424 -0.5271 -0.3198 -0.1825
 9693TIP3    H153274   6.148   0.791  11.397 -0.0150 -0.2759 -1.4563
 9693TIP3    H253275   6.210   0.920  11.347  0.8287 -0.0627  0.0654
 9694TIP3   OH253276   3.729   3.198  11.252 -0.3592 -0.0954  0.2032
 9694TIP3    H153277   3.740   3.119  11.305  0.4017  0.2044  0.5099
 9694TIP3    H253278   3.641   3.191  11.216 -0.1134 -1.3370 -0.1875
 9695TIP3   OH253279   4.570   6.487  11.546  0.2392 -0.2220  0.0174
 9695TIP3    H153280   4.640   6.486  11.611  0.0833  0.8716  0.2130
 9695TIP3    H253281   4.527   6.572  11.557 -1.1418 -0.8771 -0.0836
 9696TIP3   OH253282   6.089   2.901  11.404 -0.0997 -0.2083  0.1891
 9696TIP3    H153283   6.070   2.958  11.479 -1.5281 -2.2061  1.4263
 9696TIP3    H253284   6.014   2.913  11.346  1.1314  1.5423 -1.1484
 9697TIP3   OH253285   6.753   0.829  12.060  0.8098  0.2035 -0.2506
 9697TIP3    H153286   6.781   0.753  12.009 -0.5619 -1.3414  1.1683
 9697TIP3    H253287   6.826   0.848  12.118  0.4079 -1.3680  0.8017
 9698TIP3   OH253288   3.730   4.270  10.296  0.1973 -0.2550  0.2082
 9698TIP3    H153289   3.776   4.349  10.324 -0.8583 -0.3713  2.5106
 9698TIP3    H253290   3.685   4.240  10.375  0.3272 -3.0121 -0.6871
 9699TIP3   OH253291   1.713   2.035  11.132 -0.6183 -0.2711 -0.2990
 9699TIP3    H153292   1.734   1.941  11.135  0.1246 -0.1038  1.9503
 9699TIP3    H253293   1.621   2.038  11.106 -0.9085 -1.6956  0.4483
 9700TIP3   OH253294   4.223   6.459  11.696  0.1969  0.1553 -0.1860
 9700TIP3    H153295   4.312   6.450  11.660  0.5579  1.3706  0.3446
 9700TIP3    H253296   4.232   6.435  11.788  0.1634  1.0514  0.0616
 9701TIP3   OH253297   1.286   2.193  13.150 -0.7463 -0.2125  0.7672
 9701TIP3    H153298   1.225   2.191  13.076 -1.5389  0.1109  1.4008
 9701TIP3    H253299   1.373   2.192  13.109 -1.1382  1.7701 -0.2635
 9702TIP3   OH253300   2.998   5.288  11.222  0.4146  0.0884  0.0742
 9702TIP3    H153301   3.029   5.365  11.270  0.1291  0.6622 -0.6400
 9702TIP3    H253302   2.905   5.307  11.206  0.8751  0.7167 -2.1870
 9703TIP3   OH253303   6.236   0.646  10.741 -0.1973  0.3585 -0.1732
 9703TIP3    H153304   6.165   0.672  10.684 -0.6469  0.3096  0.3553
 9703TIP3    H253305   6.193   0.607  10.817  0.2691  2.5440  1.3099
 9704TIP3   OH253306   7.103   5.452  10.121  0.1001  0.3914  0.2311
 9704TIP3    H153307   7.196   5.441  10.138 -0.0449 -0.2203  0.6740
 9704TIP3    H253308   7.075   5.368  10.084  0.4157  1.6633 -3.2832
 9705TIP3   OH253309   2.089   4.339   9.971 -0.1023  0.1832 -0.5673
 9705TIP3    H153310   2.142   4.405   9.927  0.1609 -0.1173 -0.7001
 9705TIP3    H253311   2.152   4.288  10.022 -0.1957 -0.4907 -1.1210
 9706TIP3   OH253312   0.946   3.883  11.961  0.4555  0.0969  0.4528
 9706TIP3    H153313   0.951   3.789  11.980 -1.9579  0.1708  1.8183
 9706TIP3    H253314   0.899   3.888  11.878  0.2979  0.0995  0.5419
 9707TIP3   OH253315   2.741   5.721  11.401 -0.4341 -0.1453 -0.1035
 9707TIP3    H153316   2.820   5.693  11.447 -0.1777 -1.5167 -1.3132
 9707TIP3    H253317   2.766   5.724  11.309 -1.6578 -0.1636 -0.4535
 9708TIP3   OH253318   2.385   1.625   9.984 -0.7975 -0.0260  0.6169
 9708TIP3    H153319   2.372   1.573  10.063 -2.0395 -1.5322 -0.5051
 9708TIP3    H253320   2.448   1.575   9.932  0.2785  1.1212  0.7574
 9709TIP3   OH253321   5.508   1.585  11.685  0.5827  0.1709  0.0967
 9709TIP3    H153322   5.468   1.526  11.622  1.6044  0.3895 -0.7883
 9709TIP3    H253323   5.504   1.538  11.768 -0.4580 -0.2726 -0.1964
 9710TIP3   OH253324   4.339   3.793  10.460  0.1904 -0.4483 -0.5089
 9710TIP3    H153325   4.347   3.869  10.401 -0.7800  0.4592  0.4668
 9710TIP3    H253326   4.283   3.825  10.531  0.8302 -1.7088  0.5869
 9711TIP3   OH253327   1.280   1.441  12.106 -0.0829 -0.3946 -0.2159
 9711TIP3    H153328   1.298   1.535  12.106  0.0052 -0.3351 -2.9826
 9711TIP3    H253329   1.191   1.434  12.070 -0.1476 -1.3670  0.1072
 9712TIP3   OH253330   6.215   5.258  11.281 -0.5618  0.0413 -0.4791
 9712TIP3    H153331   6.229   5.164  11.291  1.4165  0.3653  0.2857
 9712TIP3    H253332   6.276   5.285  11.213 -0.3694  0.9330  0.0262
 9713TIP3   OH253333   0.121   7.011  11.806  0.4652  0.0882 -0.7421
 9713TIP3    H153334   0.080   7.036  11.888  0.6194  1.6012 -1.1038
 9713TIP3    H253335   0.095   6.919  11.793  0.1436 -0.0640  0.7883
 9714TIP3   OH253336   7.534   0.616  12.531 -0.2552 -0.4272 -0.3285
 9714TIP3    H153337   7.461   0.554  12.522 -1.0251  0.4205  0.0121
 9714TIP3    H253338   7.494   0.702  12.521  0.9368  0.0170 -1.6187
 9715TIP3   OH253339   2.335   5.230  11.418  0.6775  0.4430 -0.4200
 9715TIP3    H153340   2.304   5.228  11.327  0.0031 -1.5964 -0.1979
 9715TIP3    H253341   2.255   5.247  11.469  0.3791 -1.7090 -0.0512
 9716TIP3   OH253342   4.478   6.969  11.030  0.0499 -0.1784 -0.0886
 9716TIP3    H153343   4.442   6.880  11.023  0.1109 -0.2766  0.8369
 9716TIP3    H253344   4.515   6.985  10.943 -1.0998 -0.5559 -0.6759
 9717TIP3   OH253345   4.875   1.693  11.434 -0.1629 -0.7009  0.0741
 9717TIP3    H153346   4.792   1.726  11.468 -0.2228 -0.4111 -0.3542
 9717TIP3    H253347   4.938   1.764  11.450 -0.1232 -0.6880 -0.1367
 9718TIP3   OH253348   2.019   1.435  12.361  0.1405 -0.3503 -0.1101
 9718TIP3    H153349   1.985   1.421  12.273 -0.3880  1.3121 -0.2091
 9718TIP3    H253350   1.977   1.369  12.415 -1.5183  0.2305 -0.6499
 9719TIP3   OH253351   2.831   3.876  12.118 -0.0387 -0.3763 -0.3322
 9719TIP3    H153352   2.800   3.966  12.127 -0.9002 -0.6481 -0.4882
 9719TIP3    H253353   2.920   3.885  12.084 -0.2209  0.4142 -0.6248
 9720TIP3   OH253354   6.816   2.416  11.171 -0.7906  0.4178  0.3139
 9720TIP3    H153355   6.841   2.324  11.180  0.4482  0.8791  2.4768
 9720TIP3    H253356   6.837   2.438  11.081  2.0045 -0.6144  0.6113
 9721TIP3   OH253357   5.353   2.667  11.312  0.3751 -0.2703 -0.1059
 9721TIP3    H153358   5.281   2.731  11.317 -0.1081 -0.8841  1.1255
 9721TIP3    H253359   5.318   2.597  11.256  0.5110  0.0392 -0.5851
 9722TIP3   OH253360   2.148   2.315  11.801 -0.2451  0.2626 -0.3190
 9722TIP3    H153361   2.076   2.252  11.803  0.6546 -0.8806 -1.7186
 9722TIP3    H253362   2.106   2.398  11.777 -1.1490 -0.2860 -0.7022
 9723TIP3   OH253363   0.115   2.678  11.611 -0.0965  0.4683 -0.7679
 9723TIP3    H153364   0.199   2.674  11.565 -1.3342  1.2594 -3.2958
 9723TIP3    H253365   0.130   2.629  11.692  1.9162 -2.1250 -2.5251
 9724TIP3   OH253366   1.175   6.973  11.962  0.3159  0.3140  0.2518
 9724TIP3    H153367   1.241   6.920  11.917 -1.1188  1.2286 -3.2855
 9724TIP3    H253368   1.223   7.017  12.031  2.5879 -1.7648  0.1435
 9725TIP3   OH253369   3.917   7.568  12.023  0.4525  0.2067 -0.1585
 9725TIP3    H153370   3.987   7.538  12.081  0.1351 -2.6554 -1.0657
 9725TIP3    H253371   3.962   7.601  11.945  0.8141  0.9361  0.3520
 9726TIP3   OH253372   0.625   2.993  10.182 -0.2662  0.5418 -0.4609
 9726TIP3    H153373   0.609   3.026  10.093 -2.6192  0.7283 -0.0182
 9726TIP3    H253374   0.578   3.053  10.239 -0.6460 -0.8489  0.7333
 9727TIP3   OH253375   6.963   0.204  11.317  0.0966 -0.4704  0.4554
 9727TIP3    H153376   6.973   0.116  11.282  0.2523  0.0132 -0.7715
 9727TIP3    H253377   6.880   0.202  11.364 -0.3905 -1.0197 -0.3920
 9728TIP3   OH253378   5.367   6.850  11.600 -0.4378 -0.2496  0.3764
 9728TIP3    H153379   5.326   6.773  11.638 -0.3935 -1.1312 -1.2507
 9728TIP3    H253380   5.321   6.863  11.517  0.8454  0.2957 -0.2870
 9729TIP3   OH253381   6.310   5.376   9.980  0.2991  0.1942 -0.2324
 9729TIP3    H153382   6.273   5.296  10.016  1.7801 -1.5835 -2.3720
 9729TIP3    H253383   6.244   5.443   9.998 -1.2644 -1.5967  1.1229
 9730TIP3   OH253384   1.187   4.900  11.949  0.3106  0.0903  0.0690
 9730TIP3    H153385   1.150   4.978  11.907  0.0435 -0.9040 -1.6441
 9730TIP3    H253386   1.171   4.914  12.042  1.7284  2.8165  0.0231
 9731TIP3   OH253387   2.483   0.297  11.803  0.5145 -0.1644 -0.0057
 9731TIP3    H153388   2.477   0.296  11.898 -1.3123  1.6374 -0.0288
 9731TIP3    H253389   2.456   0.209  11.776  2.6219 -1.2334  1.1273
 9732TIP3   OH253390   6.250   6.980  10.712  0.2365  0.1028 -0.2803
 9732TIP3    H153391   6.222   7.051  10.770  0.7252  0.4222 -0.4288
 9732TIP3    H253392   6.320   6.936  10.760  0.8884  0.5883 -0.7659
 9733TIP3   OH253393   6.737   2.771  11.324  0.0805  0.3912  0.8838
 9733TIP3    H153394   6.811   2.770  11.264 -0.2277 -1.2869  0.4886
 9733TIP3    H253395   6.664   2.805  11.272  0.3481  1.1663  1.0065
 9734TIP3   OH253396   3.830   2.501  11.829 -0.6537  0.4670  0.0450
 9734TIP3    H153397   3.764   2.554  11.784 -0.8134  0.1354 -0.1184
 9734TIP3    H253398   3.906   2.503  11.771 -0.9685 -0.2236 -0.4027
 9735TIP3   OH253399   6.330   6.380  10.370  0.8084 -0.0248 -0.3980
 9735TIP3    H153400   6.312   6.472  10.353  0.4343  0.1485  0.8271
 9735TIP3    H253401   6.374   6.349  10.291 -0.8217  0.6893 -1.6312
 9736TIP3   OH253402   3.838   6.686  11.413  0.3372 -0.2095  0.4432
 9736TIP3    H153403   3.768   6.643  11.462 -0.2084 -0.3641 -0.4451
 9736TIP3    H253404   3.917   6.640  11.439 -0.0408 -0.7581  0.6383
 9737TIP3   OH253405   0.494   1.916  11.970 -0.3116 -0.2082 -0.3079
 9737TIP3    H153406   0.507   1.844  12.031 -2.6403 -0.1434  0.3369
 9737TIP3    H253407   0.532   1.992  12.014 -0.4044 -0.4989  0.2800
 9738TIP3   OH253408   2.437   5.302  11.852  0.7864  0.1268  0.0757
 9738TIP3    H153409   2.409   5.355  11.777 -1.8869 -1.2967 -0.0497
 9738TIP3    H253410   2.487   5.231  11.814 -0.8806 -0.8056 -0.4919
 9739TIP3   OH253411   5.061   7.034  10.631 -0.0172  0.0007  0.5558
 9739TIP3    H153412   5.000   7.108  10.642 -0.7735 -0.3715 -0.8472
 9739TIP3    H253413   5.017   6.961  10.675  0.1359  0.0894  0.8558
 9740TIP3   OH253414   6.570   4.394  10.210 -0.1556 -0.1310  0.1977
 9740TIP3    H153415   6.535   4.306  10.193 -0.0795  0.1037 -1.3035
 9740TIP3    H253416   6.665   4.383  10.206 -0.1253 -0.1484  0.9408
 9741TIP3   OH253417   7.392   6.314  12.524 -0.1129 -0.3013 -0.3869
 9741TIP3    H153418   7.374   6.392  12.576 -0.8331  0.6929 -2.0436
 9741TIP3    H253419   7.477   6.332  12.484 -0.0440 -0.5891 -0.3691
 9742TIP3   OH253420   2.186   5.128   9.944 -0.2090 -0.5001  0.4467
 9742TIP3    H153421   2.145   5.205   9.982  0.3233 -0.5582  1.1524
 9742TIP3    H253422   2.266   5.115   9.995 -0.0902 -1.2814  0.0808
 9743TIP3   OH253423   0.139   6.016  10.345  0.2396 -0.6283 -0.5701
 9743TIP3    H153424   0.148   5.928  10.381  2.3933 -0.4846 -0.6233
 9743TIP3    H253425   0.127   6.073  10.421  1.3680 -0.7074 -0.3197
 9744TIP3   OH253426   6.433   0.247  11.830  0.5068  0.4106  0.0317
 9744TIP3    H153427   6.453   0.308  11.901  0.0902  0.7802 -0.1641
 9744TIP3    H253428   6.393   0.172  11.873  0.0925  0.7092  0.1697
 9745TIP3   OH253429   0.146   2.080   9.667 -0.1325 -0.4996 -0.0415
 9745TIP3    H153430   0.162   2.170   9.637 -0.7783 -1.2432 -2.9142
 9745TIP3    H253431   0.181   2.078   9.756  2.0334  1.9418 -0.7120
 9746TIP3   OH253432   0.842   5.221  12.163 -0.0668  0.2912 -0.2223
 9746TIP3    H153433   0.800   5.255  12.242 -0.7720  0.9118 -0.8456
 9746TIP3    H253434   0.929   5.260  12.163 -1.1664  2.9764 -1.4107
 9747TIP3   OH253435   2.199   5.549  10.319 -0.1564  0.3054  0.1820
 9747TIP3    H153436   2.200   5.644  10.309  3.5647  0.4187  0.2783
 9747TIP3    H253437   2.172   5.533  10.409  0.2195  1.3441  0.4812
 9748TIP3   OH253438   7.341   2.837  12.346  0.3989 -0.2200  0.0626
 9748TIP3    H153439   7.262   2.821  12.397 -0.1989 -1.4598 -1.1877
 9748TIP3    H253440   7.334   2.927  12.316  0.3907  0.2776  1.4942
 9749TIP3   OH253441   4.806   2.737  10.384  0.5285 -0.1912 -0.2697
 9749TIP3    H153442   4.901   2.748  10.396  0.4857  0.4497 -0.4893
 9749TIP3    H253443   4.798   2.651  10.343  1.0164 -0.2461 -0.2650
 9750TIP3   OH253444   4.717   6.031  11.404  0.2651  0.1938  0.5452
 9750TIP3    H153445   4.630   6.071  11.405  0.6060  1.0520 -1.0539
 9750TIP3    H253446   4.708   5.953  11.459 -1.1583  0.9543  1.4481
 9751TIP3   OH253447   0.325   1.207  10.569  0.8698  0.8706  0.3928
 9751TIP3    H153448   0.236   1.203  10.534  0.8488 -0.8864  0.5551
 9751TIP3    H253449   0.324   1.281  10.630 -0.7420  0.3467  1.0526
 9752TIP3   OH253450   5.123   6.072  10.131 -0.0782  0.0663 -0.3014
 9752TIP3    H153451   5.097   6.104  10.217  0.4404 -1.2547  0.3719
 9752TIP3    H253452   5.194   6.010  10.149  0.4578  0.2217 -1.7331
 9753TIP3   OH253453   0.098   1.648  11.052 -0.2461 -0.1072  0.4573
 9753TIP3    H153454   0.071   1.643  10.960  0.6969 -0.5397  0.1985
 9753TIP3    H253455   0.143   1.565  11.069 -1.5462 -0.6093  1.6872
 9754TIP3   OH253456   2.392   0.435  13.028  0.1517 -0.0808 -0.8431
 9754TIP3    H153457   2.479   0.453  12.994  0.6479 -1.9655 -0.6958
 9754TIP3    H253458   2.369   0.513  13.079  2.4620 -0.2262  0.5417
 9755TIP3   OH253459   1.149   6.064  10.868 -0.0897  0.2176  0.0603
 9755TIP3    H153460   1.231   6.112  10.861  1.2832 -2.0302 -0.1898
 9755TIP3    H253461   1.113   6.065  10.779 -0.7325  1.8122  0.3170
 9756TIP3   OH253462   4.837   0.575  11.870  0.0220 -0.3300  0.5896
 9756TIP3    H153463   4.864   0.560  11.960 -0.5807 -3.1968  0.3911
 9756TIP3    H253464   4.840   0.489  11.829 -2.3332  0.3968 -1.3929
 9757TIP3   OH253465   4.337   2.667  12.148 -0.2625 -0.0984 -0.2484
 9757TIP3    H153466   4.296   2.618  12.219 -0.2319  0.3602  0.0897
 9757TIP3    H253467   4.349   2.603  12.078  0.8152 -0.8448  0.6034
 9758TIP3   OH253468   7.380   2.808  10.712  0.0557 -0.1052  0.4666
 9758TIP3    H153469   7.402   2.877  10.650 -0.7370 -1.0652 -0.9610
 9758TIP3    H253470   7.309   2.844  10.764 -1.4728 -0.3547 -1.3440
 9759TIP3   OH253471   3.124   3.181  10.213 -0.4395  0.0155 -0.0044
 9759TIP3    H153472   3.202   3.221  10.175  0.0759  0.0614  1.0642
 9759TIP3    H253473   3.081   3.252  10.260 -0.9355 -0.1004 -0.2702
 9760TIP3   OH253474   4.530   3.351  10.852  0.1644  0.1006  0.1329
 9760TIP3    H153475   4.501   3.370  10.762 -0.8872  0.8469  0.6157
 9760TIP3    H253476   4.519   3.257  10.861  0.5959 -0.0316 -0.6259
 9761TIP3   OH253477   4.966   3.598  10.390 -0.7288 -0.2562 -0.3528
 9761TIP3    H153478   4.874   3.575  10.378 -1.9365  1.7323  3.5207
 9761TIP3    H253479   4.967   3.693  10.397  1.5778 -0.2338  0.0077
 9762TIP3   OH253480   3.468   1.541  12.769 -0.5627 -0.1137  0.7970
 9762TIP3    H153481   3.529   1.519  12.698 -1.2349  0.1886  0.1131
 9762TIP3    H253482   3.422   1.619  12.738 -2.5943 -1.3584  0.4751
 9763TIP3   OH253483   0.026   7.197  11.020  0.0943  0.9142  0.8096
 9763TIP3    H153484   0.089   7.193  11.092 -0.1628  1.7785  1.1013
 9763TIP3    H253485  -0.037   7.264  11.048 -0.3429  0.8311  0.0413
 9764TIP3   OH253486   2.253   6.120  10.234  0.3809 -0.1230 -0.0703
 9764TIP3    H153487   2.229   6.190  10.173 -1.1529  0.3642  1.0222
 9764TIP3    H253488   2.171   6.098  10.278  1.0704 -1.8215  0.4406
 9765TIP3   OH253489   0.519   7.429  11.948  0.3996  0.3417 -0.4547
 9765TIP3    H153490   0.436   7.432  11.901  0.7735  1.6053 -1.1081
 9765TIP3    H253491   0.511   7.498  12.015  0.3760 -0.5391  0.4764
 9766TIP3   OH253492   2.288   5.103  11.927 -0.1397 -0.0696  0.0060
 9766TIP3    H153493   2.347   5.178  11.923  1.6867 -1.5213 -2.0592
 9766TIP3    H253494   2.280   5.084  12.021  0.1809  2.0087  0.5102
 9767TIP3   OH253495   4.375   3.548  10.597 -0.4122 -0.0166 -0.0545
 9767TIP3    H153496   4.387   3.630  10.550 -1.2418 -0.5418 -1.2450
 9767TIP3    H253497   4.283   3.548  10.623  0.3056  0.8670  2.8459
 9768TIP3   OH253498   5.628   2.567  10.492 -0.9256 -0.3252  0.2953
 9768TIP3    H153499   5.716   2.603  10.481 -1.1412 -0.3533 -1.8433
 9768TIP3    H253500   5.598   2.550  10.404 -1.9221 -3.2071  1.1009
 9769TIP3   OH253501   2.021   4.314  10.980  0.3177 -0.1388  0.0551
 9769TIP3    H153502   1.978   4.341  11.061  2.3687  0.9536  0.8734
 9769TIP3    H253503   1.984   4.372  10.913 -0.9503 -0.6409  0.2834
 9770TIP3   OH253504   6.202   0.035  12.276 -0.5366 -0.0387 -0.7260
 9770TIP3    H153505   6.177   0.069  12.362  0.4973  1.4415 -0.9673
 9770TIP3    H253506   6.291   0.001  12.289 -0.0337  0.9697 -1.3652
 9771TIP3   OH253507   4.273   6.791  10.128 -0.5228  0.1568 -0.0070
 9771TIP3    H153508   4.341   6.854  10.151 -0.2954 -0.3326  0.7113
 9771TIP3    H253509   4.232   6.768  10.211 -0.9380 -0.2659 -0.3173
 9772TIP3   OH253510   4.946   1.207  10.760  0.1605  0.2680  0.3792
 9772TIP3    H153511   4.926   1.202  10.667  0.0812  0.6668  0.3724
 9772TIP3    H253512   5.036   1.241  10.763  0.5998 -0.8404  0.4255
 9773TIP3   OH253513   2.162   2.057  10.541  0.6243  0.2229  0.1215
 9773TIP3    H153514   2.242   2.042  10.492 -0.3589 -1.3505 -1.1014
 9773TIP3    H253515   2.117   2.126  10.493 -0.8065 -1.9881 -1.9517
 9774TIP3   OH253516   0.710   1.384  11.482 -0.4482 -0.5085  0.4662
 9774TIP3    H153517   0.622   1.421  11.484 -0.5519 -0.5628 -1.4186
 9774TIP3    H253518   0.695   1.289  11.476 -0.3316 -0.4619 -1.0685
 9775TIP3   OH253519   0.983   4.929  12.323 -0.1425  0.1975 -0.1821
 9775TIP3    H153520   0.981   4.952  12.416 -2.6762  0.8922 -0.3460
 9775TIP3    H253521   1.061   4.972  12.289  0.0037  1.1774  1.3232
 9776TIP3   OH253522   1.924   7.022  11.710  0.5190  0.6652 -0.2679
 9776TIP3    H153523   1.943   6.957  11.777  1.1466  0.0848 -0.9859
 9776TIP3    H253524   1.989   7.006  11.642  1.9293  3.2194  0.3130
 9777TIP3   OH253525   0.718   0.491  10.824  0.3150 -0.4565 -0.5606
 9777TIP3    H153526   0.761   0.408  10.806 -0.3933 -0.7658 -0.8810
 9777TIP3    H253527   0.635   0.466  10.865  0.0454  0.0862 -0.7638
 9778TIP3   OH253528   6.647   5.098  12.527  0.7346  0.2759 -0.2553
 9778TIP3    H153529   6.624   5.035  12.595  1.8217 -0.3691 -0.4627
 9778TIP3    H253530   6.679   5.174  12.574 -0.9885  0.8942  0.0144
 9779TIP3   OH253531   1.619   2.325  10.721 -0.0807  0.1547  0.2866
 9779TIP3    H153532   1.550   2.287  10.776  0.4099 -1.8176 -0.3513
 9779TIP3    H253533   1.586   2.313  10.632  0.6427  0.1444  0.0205
 9780TIP3   OH253534   0.801   1.738  11.903  0.0775  0.3447 -0.2567
 9780TIP3    H153535   0.786   1.661  11.847 -0.3280  1.0522 -1.1421
 9780TIP3    H253536   0.723   1.743  11.958 -0.4860  0.8374 -1.0731
 9781TIP3   OH253537   1.347   7.226   9.939 -0.0734 -0.2669  0.0932
 9781TIP3    H153538   1.379   7.208   9.850 -1.8905  1.1451 -0.9161
 9781TIP3    H253539   1.359   7.320   9.951 -0.3035 -0.3594  1.1567
 9782TIP3   OH253540   1.403   1.996  12.078  0.3114 -0.1264  0.5292
 9782TIP3    H153541   1.488   1.967  12.045  0.4940  1.5526 -0.5539
 9782TIP3    H253542   1.415   2.088  12.098 -1.6099  0.5189 -1.0133
 9783TIP3   OH253543   7.449   2.061  10.666 -0.3333  0.2100 -0.7543
 9783TIP3    H153544   7.528   2.113  10.656 -0.3829  0.3534 -0.4135
 9783TIP3    H253545   7.387   2.120  10.710  0.0045 -0.5238  0.7571
 9784TIP3   OH253546   0.619   5.799  12.707 -0.4585 -0.3184  0.0425
 9784TIP3    H153547   0.655   5.711  12.694  0.7922  0.2372 -0.3701
 9784TIP3    H253548   0.687   5.846  12.755 -0.5332  0.8286 -0.9420
 9785TIP3   OH253549   7.435   0.191  11.873 -0.2227 -0.1152 -0.0663
 9785TIP3    H153550   7.395   0.196  11.786  0.2009 -1.7096 -0.3881
 9785TIP3    H253551   7.405   0.107  11.908  0.5772 -0.0436  0.8341
 9786TIP3   OH253552   5.488   4.615  11.172 -0.3551 -0.0157 -0.4073
 9786TIP3    H153553   5.455   4.645  11.087 -0.8500  1.0053  0.1216
 9786TIP3    H253554   5.456   4.525  11.180 -1.9136  0.5078 -0.4826
 9787TIP3   OH253555   0.687   7.447  11.746  0.9065  0.0170  0.1937
 9787TIP3    H153556   0.622   7.449  11.817  0.2088  0.5193 -0.4440
 9787TIP3    H253557   0.656   7.378  11.687  1.1782 -0.0241  0.1008
 9788TIP3   OH253558   6.663   5.403  10.281 -0.1586 -0.1623 -0.2171
 9788TIP3    H153559   6.655   5.489  10.240  0.7621  0.2264  0.3847
 9788TIP3    H253560   6.611   5.409  10.361 -1.0785 -0.5680 -0.7777
 9789TIP3   OH253561   6.207   6.423  10.921 -0.6481 -0.0164 -0.5377
 9789TIP3    H153562   6.274   6.446  10.856 -1.2441  0.2225 -1.0769
 9789TIP3    H253563   6.209   6.327  10.925  0.1820  0.0060 -0.0522
 9790TIP3   OH253564   3.813   7.516   9.856  0.5028  0.1285  0.0035
 9790TIP3    H153565   3.722   7.537   9.879  0.6850  0.0067  0.8632
 9790TIP3    H253566   3.829   7.564   9.775 -0.3436  0.1090 -0.1861
 9791TIP3   OH253567   3.400   7.597  11.086  0.3422  0.0650  0.9574
 9791TIP3    H153568   3.324   7.634  11.131  0.6194 -1.8993  3.2430
 9791TIP3    H253569   3.363   7.555  11.008 -0.8891 -0.4379  1.7731
 9792TIP3   OH253570   5.061   1.561  12.184  0.8561  0.1619 -0.5019
 9792TIP3    H153571   5.057   1.489  12.247 -0.9369  0.9038  0.3331
 9792TIP3    H253572   5.153   1.587  12.182  0.9526  0.3464  2.1712
 9793TIP3   OH253573   4.692   1.827  11.567 -0.0563 -0.6834  0.6253
 9793TIP3    H153574   4.600   1.805  11.586 -1.5687  3.9190 -0.1996
 9793TIP3    H253575   4.717   1.889  11.635  1.7546 -0.3035 -0.3266
 9794TIP3   OH253576   4.912   2.618  11.101  0.1594 -0.1806 -0.2124
 9794TIP3    H153577   4.945   2.664  11.024 -2.3188 -0.1824 -1.3723
 9794TIP3    H253578   4.924   2.525  11.080  0.4038 -0.1637 -0.1497
 9795TIP3   OH253579   6.165   0.437  10.914  0.2361  0.3678 -0.0327
 9795TIP3    H153580   6.154   0.373  10.844  0.5178  0.0462  0.2124
 9795TIP3    H253581   6.119   0.399  10.989  1.7352 -0.3141  0.5837
 9796TIP3   OH253582   1.795   5.036  10.708  0.1428  0.5185 -0.0154
 9796TIP3    H153583   1.776   5.103  10.642 -2.4534 -0.3805 -0.2996
 9796TIP3    H253584   1.807   4.955  10.657 -1.2162 -0.0540  0.5308
 9797TIP3   OH253585   3.142   0.319  10.511 -0.3185  0.3304  0.1996
 9797TIP3    H153586   3.116   0.227  10.504  0.7010 -0.1221  1.7779
 9797TIP3    H253587   3.203   0.332  10.439 -1.3418  0.1231 -0.7393
 9798TIP3   OH253588   4.436   1.117  10.734  0.3697  0.0484 -0.2298
 9798TIP3    H153589   4.523   1.152  10.752  0.3270  0.0105  0.0508
 9798TIP3    H253590   4.443   1.023  10.751  0.7035 -0.2291 -1.7975
 9799TIP3   OH253591   0.766   5.104  10.931  0.7305  0.4032 -0.5163
 9799TIP3    H153592   0.810   5.021  10.912 -0.0959 -0.1210 -0.1786
 9799TIP3    H253593   0.728   5.131  10.847 -0.2080 -0.2936 -0.3276
 9800TIP3   OH253594   0.297   1.186  10.285  0.0879  0.1980 -0.8451
 9800TIP3    H153595   0.353   1.148  10.216  1.4641 -0.0672  0.3728
 9800TIP3    H253596   0.320   1.136  10.364 -2.8971 -0.8896 -0.5349
 9801TIP3   OH253597   5.131   5.428   9.849  0.1578  0.3106  0.9164
 9801TIP3    H153598   5.086   5.506   9.819  0.2792 -0.5422 -1.7222
 9801TIP3    H253599   5.187   5.458   9.921 -0.1196  2.5434  0.2517
 9802TIP3   OH253600   6.272   7.361  12.342 -0.3318 -0.1052  0.4730
 9802TIP3    H153601   6.326   7.437  12.318  1.6918 -1.6240 -0.0299
 9802TIP3    H253602   6.321   7.316  12.410 -0.0203 -2.4919 -1.2009
 9803TIP3   OH253603   6.030   4.508  10.213 -0.8005 -0.0872  0.4784
 9803TIP3    H153604   6.085   4.563  10.157 -0.8383  0.1574  0.6769
 9803TIP3    H253605   6.037   4.548  10.300 -1.7233  0.2635  0.3991
 9804TIP3   OH253606   1.190   3.209  12.011  0.2958 -0.5782  0.2015
 9804TIP3    H153607   1.253   3.238  12.077  1.5828 -0.5617 -0.9850
 9804TIP3    H253608   1.140   3.140  12.054  0.3020  0.2341  1.5600
 9805TIP3   OH253609   0.928   6.958  10.444 -0.3964 -0.4390  0.0259
 9805TIP3    H153610   0.860   6.931  10.506  0.6371  0.2621  1.5441
 9805TIP3    H253611   0.892   7.036  10.401 -0.9292 -0.6327  0.1165
 9806TIP3   OH253612   5.353   7.284  11.130 -0.0991  0.1255  0.9214
 9806TIP3    H153613   5.358   7.194  11.161  2.5144  0.3021  1.2204
 9806TIP3    H253614   5.381   7.279  11.038 -1.7353  0.4323  0.3706
 9807TIP3   OH253615   0.890   7.669  10.231 -0.8795  0.1963  0.3902
 9807TIP3    H153616   0.918   7.709  10.148 -1.3606  0.1869  0.2210
 9807TIP3    H253617   0.941   7.715  10.298 -0.1035 -0.1534  0.0529
 9808TIP3   OH253618   5.992   4.073  11.799  0.1516 -0.4948 -1.0886
 9808TIP3    H153619   5.981   4.090  11.893 -1.1830 -1.7041 -0.9880
 9808TIP3    H253620   6.084   4.093  11.781  0.3991 -0.1426  0.4505
 9809TIP3   OH253621   0.280   7.562  12.862  0.5633  0.4948  0.0843
 9809TIP3    H153622   0.330   7.514  12.796  0.1009 -0.8899  0.6944
 9809TIP3    H253623   0.338   7.568  12.937  0.7054  1.1070 -0.0756
 9810TIP3   OH253624   7.557   5.272  10.322  0.2477 -0.5629 -0.0496
 9810TIP3    H153625   7.554   5.188  10.276 -0.4408 -0.7119  0.2542
 9810TIP3    H253626   7.618   5.257  10.394 -0.1749 -0.9384  0.2431
 9811TIP3   OH253627   5.071   6.612  11.899  0.3783 -0.1821 -0.0169
 9811TIP3    H153628   5.079   6.707  11.911 -1.3304  0.1459 -1.0365
 9811TIP3    H253629   5.142   6.589  11.840 -1.1266  1.1254 -2.5138
 9812TIP3   OH253630   5.120   3.071   9.669 -0.0076  0.0656  0.1622
 9812TIP3    H153631   5.144   2.989   9.713 -1.2984 -0.6526 -0.4138
 9812TIP3    H253632   5.074   3.043   9.591  0.3419  1.3603 -0.5284
 9813TIP3   OH253633   2.935   3.191  12.646  0.5861  0.3339 -0.1144
 9813TIP3    H153634   2.977   3.112  12.612 -0.8559  0.2720 -1.9647
 9813TIP3    H253635   2.868   3.158  12.706  3.4083  0.4563  3.4684
 9814TIP3   OH253636   2.024   6.439  10.918  0.0889  0.0651  0.1394
 9814TIP3    H153637   2.032   6.397  10.832  0.4214 -0.9135  0.6267
 9814TIP3    H253638   2.106   6.417  10.963  0.1175  0.9654  0.5425
 9815TIP3   OH253639   2.601   4.908  12.193 -0.0438  0.2103 -0.4783
 9815TIP3    H153640   2.648   4.978  12.239 -0.9261 -0.1444  1.0350
 9815TIP3    H253641   2.665   4.838  12.185  0.2618  0.4489 -0.1972
 9816TIP3   OH253642   6.840   4.462  11.336  0.1019 -0.3549 -0.6161
 9816TIP3    H153643   6.821   4.509  11.255  0.7432  1.3749  0.1819
 9816TIP3    H253644   6.808   4.520  11.406 -0.3160 -1.7383  0.3928
 9817TIP3   OH253645   0.662   2.270  11.618  0.5252  0.7185 -0.0943
 9817TIP3    H153646   0.615   2.309  11.544 -0.8568  0.5576  0.6603
 9817TIP3    H253647   0.753   2.268  11.590  0.0648  0.8458 -1.7182
 9818TIP3   OH253648   0.141   2.355   9.690  0.1590 -0.2139 -0.6514
 9818TIP3    H153649   0.184   2.388   9.769  0.9637 -0.7100 -0.8563
 9818TIP3    H253650   0.092   2.429   9.656 -0.3962 -0.0612  0.4456
 9819TIP3   OH253651   6.714   3.794  11.448  0.1899  0.5148 -0.1321
 9819TIP3    H153652   6.690   3.709  11.411  0.5161 -0.1106  1.0521
 9819TIP3    H253653   6.786   3.775  11.507  1.0865  1.8115 -0.7697
 9820TIP3   OH253654   1.751   0.925   9.994  0.0294 -0.3649  0.3296
 9820TIP3    H153655   1.769   1.019   9.993  0.2435 -0.4038 -0.5828
 9820TIP3    H253656   1.656   0.918  10.000 -0.1037 -0.0547 -1.1115
 9821TIP3   OH253657   3.529   3.057  10.298 -0.2278  0.1129  0.1091
 9821TIP3    H153658   3.527   3.140  10.249 -1.6975 -0.3184 -0.6343
 9821TIP3    H253659   3.439   3.045  10.328 -0.2068 -1.5257 -0.3683
 9822TIP3   OH253660   5.972   0.416  11.499  0.2429  0.1157  0.0932
 9822TIP3    H153661   5.948   0.333  11.456  0.5472 -0.4341  0.9768
 9822TIP3    H253662   5.922   0.416  11.580  0.7548  0.4962  0.4104
 9823TIP3   OH253663   5.540   7.206  10.463  0.1036 -0.2460 -0.4074
 9823TIP3    H153664   5.517   7.180  10.552 -0.5778 -1.0135 -0.7901
 9823TIP3    H253665   5.635   7.216  10.465  0.2691 -1.6096  0.0883
 9824TIP3   OH253666   2.436   7.423  10.266  0.1604 -0.0810 -0.7607
 9824TIP3    H153667   2.443   7.517  10.248 -0.8803  0.0240 -0.6814
 9824TIP3    H253668   2.425   7.417  10.361 -2.6924 -0.0418 -0.9969
 9825TIP3   OH253669   5.659   7.067  10.870 -0.1799 -0.2392 -0.1829
 9825TIP3    H153670   5.618   7.010  10.805 -0.7015 -0.5983  0.4465
 9825TIP3    H253671   5.595   7.072  10.941  0.4284  0.0498  0.3558
 9826TIP3   OH253672   4.607   3.827  11.136 -0.0243  0.2797  0.2068
 9826TIP3    H153673   4.671   3.795  11.073 -1.4598 -1.0304 -0.6564
 9826TIP3    H253674   4.631   3.782  11.218 -0.5072 -1.1424 -0.3934
 9827TIP3   OH253675   1.064   3.965  11.650 -0.3639  0.2968  0.3671
 9827TIP3    H153676   0.986   3.910  11.648 -0.2786  0.1708  0.5672
 9827TIP3    H253677   1.130   3.914  11.603 -0.9336  1.2130 -1.5517
 9828TIP3   OH253678   1.361   0.393  11.355 -0.1249 -1.2614 -0.7197
 9828TIP3    H153679   1.339   0.387  11.262  0.5410  0.3118 -1.0164
 9828TIP3    H253680   1.279   0.415  11.399  0.0593  0.8442 -1.3346
 9829TIP3   OH253681   0.792   6.646  10.709  0.4683 -0.1458 -0.1311
 9829TIP3    H153682   0.782   6.566  10.762  1.2276  0.0155  0.2706
 9829TIP3    H253683   0.886   6.652  10.692  0.2303 -0.2660 -1.6313
 9830TIP3   OH253684   5.543   6.940  10.297  0.5417  0.2341 -0.1287
 9830TIP3    H153685   5.518   7.028  10.325 -1.5996 -0.9159  1.9264
 9830TIP3    H253686   5.538   6.943  10.202 -0.3276  2.1039 -0.0665
 9831TIP3   OH253687   7.384   4.508  11.658 -0.2701 -0.1881  0.7031
 9831TIP3    H153688   7.430   4.483  11.578  1.7378  1.5223  1.2431
 9831TIP3    H253689   7.296   4.532  11.628  0.4505  0.4936 -1.0414
 9832TIP3   OH253690   4.825   0.297  11.309 -0.5324  0.6458  0.1218
 9832TIP3    H153691   4.910   0.280  11.267 -0.0168 -0.7303  1.6220
 9832TIP3    H253692   4.765   0.237  11.265 -0.0456 -0.6075  1.0897
 9833TIP3   OH253693   4.166   1.190  10.265  0.4576  0.8664  0.1061
 9833TIP3    H153694   4.075   1.178  10.238  0.4384  1.6832 -0.2221
 9833TIP3    H253695   4.161   1.223  10.355  0.4838 -0.5886  0.6595
 9834TIP3   OH253696   2.617   4.586  11.620  0.0602  0.5826 -0.0267
 9834TIP3    H153697   2.598   4.503  11.574  1.7626  1.1092 -1.8427
 9834TIP3    H253698   2.540   4.601  11.674 -0.9355 -1.4633 -0.7412
 9835TIP3   OH253699   7.325   4.382  12.133 -0.4486  0.4854  0.4628
 9835TIP3    H153700   7.367   4.455  12.087 -1.0637 -0.3549 -1.5574
 9835TIP3    H253701   7.386   4.309  12.122 -1.3836 -0.1667 -0.5645
 9836TIP3   OH253702   4.731   3.581  10.799 -0.3637 -0.2835 -0.0809
 9836TIP3    H153703   4.741   3.606  10.891  1.6299  0.4358 -0.4558
 9836TIP3    H253704   4.691   3.495  10.802 -0.2960 -0.2860  1.4676
 9837TIP3   OH253705   5.393   3.841  10.373 -0.0041  0.1092  0.4595
 9837TIP3    H153706   5.481   3.839  10.411  0.1687  0.2730  0.0731
 9837TIP3    H253707   5.399   3.786  10.295 -0.2784  0.0193  0.4995
 9838TIP3   OH253708   7.350   2.921  11.881  0.5162  0.4765 -0.0307
 9838TIP3    H153709   7.426   2.865  11.865  0.9178  1.1885 -0.6637
 9838TIP3    H253710   7.276   2.861  11.883  1.0667 -0.2013  0.3736
 9839TIP3   OH253711   2.073   1.210  10.697 -0.3438  0.3402  0.5069
 9839TIP3    H153712   2.082   1.261  10.777 -0.7865  1.0820  0.0964
 9839TIP3    H253713   2.111   1.125  10.718  1.6179  1.2425  0.8056
 9840TIP3   OH253714   5.930   5.914  11.003 -0.3588 -0.0757 -0.0062
 9840TIP3    H153715   5.851   5.870  11.035 -0.6508 -0.1428 -0.7906
 9840TIP3    H253716   5.997   5.846  11.002  0.0499  0.2433  1.7723
 9841TIP3   OH253717   3.093   2.253  10.297 -0.1330 -0.0941  0.4967
 9841TIP3    H153718   2.997   2.255  10.296 -0.1329 -0.1137 -0.1741
 9841TIP3    H253719   3.116   2.175  10.247  0.2457  1.1957 -1.4743
 9842TIP3   OH253720   3.851   4.330  11.782  0.0193  0.2499  0.3709
 9842TIP3    H153721   3.791   4.273  11.829  0.2337  0.6771  1.1809
 9842TIP3    H253722   3.799   4.362  11.707  0.1147 -1.5190 -0.5043
 9843TIP3   OH253723   3.968   1.265  11.558  0.4003  0.0816 -0.3435
 9843TIP3    H153724   4.035   1.287  11.493  1.8812  0.8269  1.3579
 9843TIP3    H253725   3.970   1.170  11.563  1.0176  0.0713 -0.6381
 9844TIP3   OH253726   6.319   2.028  12.874 -0.0862 -0.0438  0.2672
 9844TIP3    H153727   6.228   2.016  12.849 -0.0692 -1.0979  0.6468
 9844TIP3    H253728   6.368   2.012  12.793 -0.1523 -1.3207  0.4514
 9845TIP3   OH253729   1.615   6.705  11.312  0.0077  0.2618 -0.0142
 9845TIP3    H153730   1.639   6.717  11.403 -0.4419 -1.6493  0.4183
 9845TIP3    H253731   1.541   6.763  11.298 -1.1968 -0.8302  1.4586
 9846TIP3   OH253732   0.742   3.918  11.387 -0.2741  0.1238  0.9046
 9846TIP3    H153733   0.754   3.904  11.481 -0.3530  0.1064  0.9125
 9846TIP3    H253734   0.650   3.895  11.371 -0.5191  1.0076  0.9857
 9847TIP3   OH253735   6.017   2.537  10.563  0.1675  0.2549  0.0741
 9847TIP3    H153736   5.943   2.545  10.624 -1.0261  0.1530 -1.3033
 9847TIP3    H253737   6.066   2.618  10.573  0.7120 -0.2539  2.0151
 9848TIP3   OH253738   4.554   0.905  11.189  0.0015 -0.7774 -0.3129
 9848TIP3    H153739   4.563   0.988  11.142  0.0586 -1.4315 -1.4779
 9848TIP3    H253740   4.568   0.928  11.281 -0.5065  0.5892 -0.5548
 9849TIP3   OH253741   2.369   2.469  11.650 -0.1062  0.3502  0.3778
 9849TIP3    H153742   2.294   2.464  11.710 -0.3534 -0.9298 -0.0091
 9849TIP3    H253743   2.335   2.439  11.566  0.9006 -0.5376  0.2607
 9850TIP3   OH253744   5.558   4.859  12.470 -0.3184 -0.0137  0.4138
 9850TIP3    H153745   5.627   4.793  12.464  0.7520  1.1463 -0.5861
 9850TIP3    H253746   5.604   4.942  12.482 -1.4991  0.8364 -0.6133
 9851TIP3   OH253747   3.938   0.098  11.005  0.8217  0.7628  0.2013
 9851TIP3    H153748   3.928   0.006  10.985  1.3522  0.5938  0.6751
 9851TIP3    H253749   3.881   0.113  11.080  0.1436  0.9992 -0.3615
 9852TIP3   OH253750   3.598   7.150  11.980  0.0280  0.8077  0.0366
 9852TIP3    H153751   3.563   7.081  12.036 -0.2224  0.5599 -0.4197
 9852TIP3    H253752   3.524   7.176  11.924  0.4316  0.6216 -0.6025
 9853TIP3   OH253753   6.509   7.528  10.848 -0.4960 -0.5310  0.0237
 9853TIP3    H153754   6.604   7.538  10.852 -0.3811 -0.6625 -1.6574
 9853TIP3    H253755   6.476   7.612  10.880  0.1154 -1.0245  2.1004
 9854TIP3   OH253756   1.267   1.449  12.530  0.4014 -0.3833  0.0374
 9854TIP3    H153757   1.181   1.485  12.508  0.1647 -1.7566 -1.4370
 9854TIP3    H253758   1.322   1.526  12.542 -0.8441  0.5113  0.2789
 9855TIP3   OH253759   2.939   7.116  10.024  0.2713  0.9729  0.2392
 9855TIP3    H153760   2.866   7.177  10.009 -0.8904 -0.6898 -1.2897
 9855TIP3    H253761   2.910   7.034   9.985  2.0793 -0.3967  1.5943
 9856TIP3   OH253762   1.329   6.581  10.698  0.0311  0.0649 -0.1434
 9856TIP3    H153763   1.237   6.572  10.676 -0.4731  0.6006  1.5944
 9856TIP3    H253764   1.360   6.492  10.711 -0.4321 -0.0854 -0.0699
 9857TIP3   OH253765   1.071   2.125   9.953 -0.5589 -0.4660  0.2019
 9857TIP3    H153766   1.102   2.215   9.956  0.8221 -0.9100  0.2659
 9857TIP3    H253767   0.976   2.132   9.956 -0.5041  1.0077 -0.4666
 9858TIP3   OH253768   6.027   4.308  10.498  0.3262 -0.0461 -0.1874
 9858TIP3    H153769   5.966   4.364  10.450  1.2436 -0.8960 -2.4700
 9858TIP3    H253770   6.000   4.219  10.477  0.9425 -0.4492  0.6733
 9859TIP3   OH253771   5.078   3.771  12.432 -0.2571 -0.6861  0.1608
 9859TIP3    H153772   5.156   3.826  12.430 -0.0536 -0.8814  1.4483
 9859TIP3    H253773   5.088   3.718  12.512 -1.7639 -0.6234  0.4299
 9860TIP3   OH253774   6.897   2.034  10.421  0.1135 -0.1613 -0.0606
 9860TIP3    H153775   6.811   1.994  10.413 -1.6272  3.0603  0.5486
 9860TIP3    H253776   6.922   2.057  10.332 -0.6805  0.7096 -0.0774
 9861TIP3   OH253777   7.598   5.058  11.256  0.2231  0.1082  0.5613
 9861TIP3    H153778   7.592   5.028  11.165  0.9510 -1.6518  1.0404
 9861TIP3    H253779   7.687   5.090  11.264 -0.2553  1.5748  0.3233
 9862TIP3   OH253780   1.209   7.042  12.356  0.3154  0.6730 -0.1191
 9862TIP3    H153781   1.161   7.100  12.414  0.7872 -0.1869  1.1708
 9862TIP3    H253782   1.249   7.100  12.291  0.6638  1.7861  1.0465
 9863TIP3   OH253783   2.765   0.563  10.217 -0.6299 -0.2726  0.1292
 9863TIP3    H153784   2.847   0.611  10.223 -0.5379 -0.5640  1.5933
 9863TIP3    H253785   2.790   0.474  10.197 -0.5322 -0.4489  0.9723
 9864TIP3   OH253786   0.750   2.299  12.405  0.3029  0.1238 -0.2112
 9864TIP3    H153787   0.790   2.239  12.341  2.2435 -0.8700  1.7692
 9864TIP3    H253788   0.812   2.372  12.411 -0.1407  0.4743  0.1329
 9865TIP3   OH253789   2.029   4.676  10.639 -0.0747  0.0543 -0.2882
 9865TIP3    H153790   1.986   4.755  10.607 -0.1881  0.2605  0.3412
 9865TIP3    H253791   2.103   4.662  10.580  0.1291  0.8137 -0.2216
 9866TIP3   OH253792   0.358   6.162  12.500 -0.2786  0.3444 -0.2050
 9866TIP3    H153793   0.312   6.157  12.416  0.3795  0.5484 -0.5788
 9866TIP3    H253794   0.436   6.108  12.488 -1.2529 -1.4271  0.9851
 9867TIP3   OH253795   2.543   3.788  10.796  0.7109  0.1809  0.8045
 9867TIP3    H153796   2.591   3.812  10.717 -0.3717  2.2878  0.7147
 9867TIP3    H253797   2.594   3.717  10.834  1.2992 -0.8587 -1.7355
 9868TIP3   OH253798   5.857   7.301  11.541 -0.0690  0.1588 -0.3083
 9868TIP3    H153799   5.869   7.230  11.604 -1.4952  0.8929  0.8897
 9868TIP3    H253800   5.934   7.298  11.485  0.3171 -1.7615  0.2645
 9869TIP3   OH253801   0.103   4.740  10.051  0.0273 -0.5665 -0.1578
 9869TIP3    H153802   0.158   4.672  10.089 -0.8319 -1.7841 -1.0056
 9869TIP3    H253803   0.024   4.693  10.023 -0.5773  0.7881 -0.7905
 9870TIP3   OH253804   4.014   4.872  11.031  0.1456  0.3054 -0.0898
 9870TIP3    H153805   4.021   4.955  10.984  0.6148 -0.5167 -1.5239
 9870TIP3    H253806   4.102   4.835  11.030 -0.0804 -0.2761  0.4171
 9871TIP3   OH253807   1.325   3.460  11.426  0.0876  0.2955  0.6979
 9871TIP3    H153808   1.265   3.405  11.477 -1.5592  0.9745 -0.4154
 9871TIP3    H253809   1.311   3.432  11.336  0.4260  1.4236  0.2842
 9872TIP3   OH253810   6.346   7.662  11.933  0.6922  0.5308 -0.1844
 9872TIP3    H153811   6.318   7.571  11.936  0.3367  0.6195 -0.5940
 9872TIP3    H253812   6.442   7.659  11.929  0.7161  0.2018  0.5952
 9873TIP3   OH253813   5.042   5.312  10.778  0.1079  0.6757  0.3393
 9873TIP3    H153814   4.996   5.380  10.826  0.0395  0.7084  0.2262
 9873TIP3    H253815   5.130   5.313  10.815  0.9180  2.6354 -1.4821
 9874TIP3   OH253816   6.681   5.602  11.770  0.4352 -0.5244 -1.3252
 9874TIP3    H153817   6.660   5.564  11.684 -4.3511  1.5250 -1.4136
 9874TIP3    H253818   6.600   5.594  11.820  1.5818  2.3803  1.3465
 9875TIP3   OH253819   2.791   4.703  12.190  0.0797  0.2781  0.0415
 9875TIP3    H153820   2.808   4.609  12.182 -0.6794  0.2315 -1.5617
 9875TIP3    H253821   2.878   4.744  12.184  0.4869 -0.3261  1.4632
 9876TIP3   OH253822   1.990   7.082  10.600  0.2659 -0.5305  1.1484
 9876TIP3    H153823   1.977   7.027  10.677 -0.9946 -0.0793  1.2713
 9876TIP3    H253824   2.041   7.028  10.540 -1.7873 -2.2189  0.8488
 9877TIP3   OH253825   4.714   0.207  11.583  0.1625  0.3986 -0.0754
 9877TIP3    H153826   4.659   0.134  11.556 -0.9861  1.0859  0.3370
 9877TIP3    H253827   4.726   0.259  11.503 -0.5709  0.7328  0.0244
 9878TIP3   OH253828   5.051   5.009  11.166 -0.4604 -0.3157  0.0420
 9878TIP3    H153829   5.125   5.019  11.105 -1.3232  1.8341 -0.7399
 9878TIP3    H253830   5.072   5.068  11.238 -1.8247  1.0947 -0.6594
 9879TIP3   OH253831   6.555   5.945  11.845 -0.4587  0.0165 -0.1866
 9879TIP3    H153832   6.642   5.906  11.845 -0.3545  0.2309  0.6304
 9879TIP3    H253833   6.502   5.883  11.895 -0.7443 -0.0373 -0.5495
 9880TIP3   OH253834   5.516   0.915  11.066  0.1537 -0.3155 -0.3940
 9880TIP3    H153835   5.570   0.852  11.113  0.3038  0.0643 -0.0426
 9880TIP3    H253836   5.577   0.983  11.037  0.3644 -1.3900 -2.6930
 9881TIP3   OH253837   1.265   3.936  11.911  0.6288 -0.3203  0.0541
 9881TIP3    H153838   1.260   3.998  11.838 -0.4225 -2.1086 -1.4851
 9881TIP3    H253839   1.249   3.850  11.871  2.4776 -1.6922  2.0024
 9882TIP3   OH253840   2.586   1.617  12.394 -0.2379  0.4339 -0.6354
 9882TIP3    H153841   2.552   1.706  12.407 -0.4597  0.7877 -3.2455
 9882TIP3    H253842   2.527   1.578  12.330  0.9454 -0.9520 -0.9208
 9883TIP3   OH253843   1.545   2.711  10.489 -0.1521 -0.2719  0.1523
 9883TIP3    H153844   1.516   2.620  10.493 -0.2285 -0.2461  0.2043
 9883TIP3    H253845   1.636   2.709  10.516  0.5362 -0.6273 -2.0192
 9884TIP3   OH253846   1.448   2.940  10.680 -0.4537  0.7387 -0.7144
 9884TIP3    H153847   1.421   3.019  10.728  0.1998  0.3454  0.3438
 9884TIP3    H253848   1.514   2.971  10.619  0.6112  0.8773  0.4595
 9885TIP3   OH253849   0.610   6.643  10.067 -0.5279  0.6286 -0.1601
 9885TIP3    H153850   0.526   6.636  10.113 -0.5263  0.9919 -0.0939
 9885TIP3    H253851   0.614   6.735  10.040 -0.7146  0.3428 -1.2372
 9886TIP3   OH253852   3.153   7.605  12.121  0.0860  0.5847 -0.2183
 9886TIP3    H153853   3.148   7.668  12.193 -0.5795  0.2339  0.0442
 9886TIP3    H253854   3.062   7.585  12.099  0.2147  2.0225 -2.3584
 9887TIP3   OH253855   3.937   1.630  11.272 -0.5575 -0.5785 -0.4882
 9887TIP3    H153856   3.890   1.569  11.328  0.2787  0.4603  1.4114
 9887TIP3    H253857   4.013   1.581  11.240 -0.0170 -0.6247  0.8293
 9888TIP3   OH253858   5.295   0.801  11.710  0.2756  0.4628 -0.3524
 9888TIP3    H153859   5.246   0.729  11.671  0.2904 -0.0278  0.5068
 9888TIP3    H253860   5.246   0.879  11.686 -1.2731 -0.0593  0.9232
 9889TIP3   OH253861   6.839   0.898  11.717 -0.0178  0.4737 -0.3347
 9889TIP3    H153862   6.855   0.832  11.649  0.3541  1.3452 -1.1183
 9889TIP3    H253863   6.744   0.896  11.731 -0.1971  0.7321 -1.3813
 9890TIP3   OH253864   3.911   3.663  10.005  0.2993 -0.1498  0.9018
 9890TIP3    H153865   3.886   3.674   9.913  0.2612  0.7386  1.0162
 9890TIP3    H253866   3.852   3.596  10.038  0.2742 -0.4326  0.2945
 9891TIP3   OH253867   3.752   3.978  10.196  0.3767 -0.1390 -0.0286
 9891TIP3    H153868   3.753   4.066  10.233 -0.0339  1.3238 -3.1104
 9891TIP3    H253869   3.842   3.947  10.205  0.9794  1.3622 -0.4313
 9892TIP3   OH253870   0.070   5.028  12.614 -0.3839  0.6518 -0.6654
 9892TIP3    H153871   0.108   4.941  12.620 -1.5900  0.1764  1.3876
 9892TIP3    H253872   0.138   5.087  12.648 -0.9521 -0.0601  1.9908
 9893TIP3   OH253873   2.448   2.061  10.796  0.1433 -0.5682 -0.3822
 9893TIP3    H153874   2.357   2.034  10.804  0.2094 -0.4641  0.9792
 9893TIP3    H253875   2.497   1.980  10.790 -0.0697 -0.6148 -1.6556
 9894TIP3   OH253876   6.724   6.716  12.174  0.3454 -0.2651 -0.1821
 9894TIP3    H153877   6.719   6.803  12.213 -0.3342 -0.7287  0.8128
 9894TIP3    H253878   6.801   6.676  12.214 -0.0384 -0.5441  0.2947
 9895TIP3   OH253879   6.837   5.817  12.074 -0.3798  0.5310  0.0385
 9895TIP3    H153880   6.795   5.735  12.100 -0.2374  0.9820  1.8070
 9895TIP3    H253881   6.821   5.824  11.980 -3.5245  0.2488  0.4551
 9896TIP3   OH253882   4.530   4.229  10.519  0.5481  0.0095 -1.0262
 9896TIP3    H153883   4.457   4.261  10.572  0.7468 -2.7258  1.1770
 9896TIP3    H253884   4.534   4.288  10.444 -0.8550  3.1504  1.1634
 9897TIP3   OH253885   5.029   0.733  11.533 -0.3177  0.4427  0.2951
 9897TIP3    H153886   5.087   0.763  11.463 -0.6093  1.6185  0.5406
 9897TIP3    H253887   5.018   0.639  11.516 -4.0717  1.3247 -4.0465
 9898TIP3   OH253888   4.069   0.951  10.567  0.2633 -0.2372  0.1065
 9898TIP3    H153889   4.109   0.870  10.536  0.1354 -0.6598  1.0043
 9898TIP3    H253890   4.131   1.019  10.542  0.3242 -0.5911 -0.7514
 9899TIP3   OH253891   4.686   5.982  10.902 -0.1167 -0.4525 -0.1948
 9899TIP3    H153892   4.629   6.023  10.838 -0.5307  0.5658  0.7897
 9899TIP3    H253893   4.772   6.020  10.886 -0.2063 -0.2449 -0.1756
 9900TIP3   OH253894   4.673   5.710  12.007  0.1420 -0.5432  0.0088
 9900TIP3    H153895   4.678   5.670  12.094 -1.2233 -1.4352 -0.2885
 9900TIP3    H253896   4.622   5.648  11.955  0.0709  0.4544 -1.1568
 9901TIP3   OH253897   1.924   3.923  11.369  0.5080  0.3924  0.2232
 9901TIP3    H153898   1.852   3.914  11.307  0.5073  0.5206  0.2043
 9901TIP3    H253899   1.974   3.842  11.360 -0.6208 -0.5027  1.5153
 9902TIP3   OH253900   3.913   3.461  11.264 -0.9930 -0.0862  0.2138
 9902TIP3    H153901   3.902   3.556  11.258 -1.5554 -0.1923 -0.5044
 9902TIP3    H253902   3.977   3.440  11.196 -2.1584 -0.4287 -0.7974
 9903TIP3   OH253903   2.844   5.730  12.200 -0.3131  0.3892  0.1225
 9903TIP3    H153904   2.880   5.658  12.252 -0.3299 -0.5258 -1.0813
 9903TIP3    H253905   2.879   5.715  12.112 -1.6030  0.9449 -0.5059
 9904TIP3   OH253906   1.445   3.930  10.988  0.0429 -0.3033 -0.3758
 9904TIP3    H153907   1.493   3.925  11.071 -0.8408  1.6302  0.3056
 9904TIP3    H253908   1.512   3.948  10.922  0.4577  0.8342  0.3300
 9905TIP3   OH253909   1.141   0.430  11.499 -1.4177  0.4428  0.1174
 9905TIP3    H153910   1.147   0.387  11.585  0.2665 -1.6831 -0.9734
 9905TIP3    H253911   1.050   0.415  11.472 -1.4156 -0.6796  0.6633
 9906TIP3   OH253912   0.864   0.573  11.400  0.3184  0.3819 -0.3048
 9906TIP3    H153913   0.933   0.546  11.340 -0.9397 -0.4612 -1.4244
 9906TIP3    H253914   0.820   0.645  11.356 -0.9268 -0.5637 -0.6418
 9907TIP3   OH253915   1.178   3.360  10.020  0.1763  0.6154 -0.2753
 9907TIP3    H153916   1.223   3.379  10.102  0.1219  1.4641 -0.4379
 9907TIP3    H253917   1.143   3.272  10.033  0.2976  0.6755  0.5515
 9908TIP3   OH253918   7.332   2.242   9.841 -0.2241  0.5940  0.5075
 9908TIP3    H153919   7.402   2.303   9.861  0.5418 -1.0312  3.2295
 9908TIP3    H253920   7.366   2.189   9.769  0.9983  0.4099  1.2027
 9909TIP3   OH253921   6.055   2.617  11.131 -0.1673 -0.4198 -0.4471
 9909TIP3    H153922   5.969   2.653  11.111 -0.6687 -1.2076  0.2374
 9909TIP3    H253923   6.064   2.627  11.226  1.1722  1.0911 -0.6861
 9910TIP3   OH253924   2.246   1.920   9.997 -0.2251  0.0949 -0.5254
 9910TIP3    H153925   2.241   1.825   9.988 -0.0467 -0.0489  0.7492
 9910TIP3    H253926   2.330   1.944   9.958  1.3347 -0.6973  2.1268
 9911TIP3   OH253927   4.718   5.510  10.044  0.3599  0.2992  0.2975
 9911TIP3    H153928   4.731   5.455   9.967  0.8737  0.3159  0.3720
 9911TIP3    H253929   4.798   5.500  10.095 -0.5090 -0.7553  1.4980
 9912TIP3   OH253930   4.678   5.243  11.273 -0.0130  0.1428  0.2484
 9912TIP3    H153931   4.663   5.299  11.349  2.0520  0.3597  0.5659
 9912TIP3    H253932   4.764   5.204  11.288  1.4450  1.7183 -2.7928
 9913TIP3   OH253933   4.095   5.032  10.573  0.1132 -0.0789  0.2570
 9913TIP3    H153934   4.168   5.036  10.634 -0.3520 -0.0293  0.8221
 9913TIP3    H253935   4.040   5.107  10.596 -0.8458 -0.9195  0.7976
 9914TIP3   OH253936   2.390   2.467  11.221 -0.0254  0.0606 -0.0816
 9914TIP3    H153937   2.392   2.372  11.206  1.2086 -0.4231  2.5796
 9914TIP3    H253938   2.455   2.502  11.161  1.2621 -1.1130  0.5757
 9915TIP3   OH253939   4.337   5.106  10.739  0.0075  0.3312  0.0082
 9915TIP3    H153940   4.316   5.162  10.663  0.1250  1.6166  0.8960
 9915TIP3    H253941   4.299   5.152  10.813 -2.5942 -2.2896  0.4697
 9916TIP3   OH253942   4.415   6.963  10.475 -0.1713  0.1524 -0.0629
 9916TIP3    H153943   4.357   6.907  10.526 -0.0871  1.2545  1.3037
 9916TIP3    H253944   4.357   7.024  10.430 -0.1198  0.9190  0.8892
 9917TIP3   OH253945   4.739   6.366  10.465  0.2857  0.0042 -0.4002
 9917TIP3    H153946   4.783   6.285  10.441  0.0936  0.3771 -2.1067
 9917TIP3    H253947   4.689   6.391  10.387 -1.3877  0.6399  0.8086
 9918TIP3   OH253948   0.604   4.402  11.902 -0.0640 -0.0144 -0.5072
 9918TIP3    H153949   0.515   4.415  11.870  0.1251 -0.3169 -1.1701
 9918TIP3    H253950   0.642   4.490  11.903  0.3767 -0.1340 -2.4817
 9919TIP3   OH253951   2.337   6.164  11.160 -0.1044  0.1684 -0.3621
 9919TIP3    H153952   2.330   6.172  11.255 -3.0804  0.5866 -0.5486
 9919TIP3    H253953   2.346   6.254  11.129 -0.5943  0.1488 -0.5604
 9920TIP3   OH253954   4.131   2.294  10.088 -0.3161  0.2791  0.0025
 9920TIP3    H153955   4.180   2.234  10.030 -0.3813 -0.1923  0.4273
 9920TIP3    H253956   4.175   2.287  10.172 -1.5850 -0.7697  0.6181
 9921TIP3   OH253957   4.117   4.420  11.754  0.0217 -0.1216 -0.2551
 9921TIP3    H153958   4.148   4.394  11.667  0.7964 -2.3166  0.5970
 9921TIP3    H253959   4.030   4.381  11.761  0.3398 -0.7518  0.2768
 9922TIP3   OH253960   0.157   6.125  12.274  0.1216 -0.2354 -0.3386
 9922TIP3    H153961   0.162   6.050  12.333  1.3343  0.2970  0.2857
 9922TIP3    H253962   0.071   6.163  12.290 -0.0806 -0.8774  0.1203
 9923TIP3   OH253963   1.134   1.626  10.088  1.3060 -0.0414 -0.2621
 9923TIP3    H153964   1.123   1.599  10.179  1.5364  0.5948 -0.0384
 9923TIP3    H253965   1.078   1.566  10.038  1.1822 -0.3974  0.2944
 9924TIP3   OH253966   4.039   5.744  10.082 -0.4135 -0.2062  0.2248
 9924TIP3    H153967   3.976   5.739  10.154 -1.4868 -2.1260 -0.7741
 9924TIP3    H253968   4.019   5.826  10.038 -1.4888 -0.2646  0.5833
 9925TIP3   OH253969   2.043   6.534  11.378  0.1672 -0.4958  0.1606
 9925TIP3    H153970   1.981   6.571  11.315  1.7010 -0.9263 -1.7062
 9925TIP3    H253971   2.067   6.449  11.341  1.5739 -0.5008  1.0057
 9926TIP3   OH253972   3.350   3.930  12.379  1.0163  0.5176 -0.5494
 9926TIP3    H153973   3.303   4.012  12.370  1.0133  0.7293  1.0533
 9926TIP3    H253974   3.282   3.864  12.389  0.9909  0.1357 -2.8632
 9927TIP3   OH253975   1.338   7.511  10.586  0.3733 -0.3015 -0.0418
 9927TIP3    H153976   1.247   7.493  10.563  0.0844  0.8095  0.1642
 9927TIP3    H253977   1.335   7.531  10.680  0.6082  1.0414 -0.3051
 9928TIP3   OH253978   6.652   6.274  11.412 -0.3723  0.5789 -0.9165
 9928TIP3    H153979   6.683   6.197  11.364  0.1984  1.5264 -2.1259
 9928TIP3    H253980   6.625   6.240  11.497 -1.6047 -1.2120 -1.9410
 9929TIP3   OH253981   2.808   3.140  11.517  0.2985 -0.2274  0.0442
 9929TIP3    H153982   2.761   3.214  11.479 -0.7079 -1.8222 -2.0390
 9929TIP3    H253983   2.867   3.110  11.447 -1.4005 -3.1065 -0.3229
 9930TIP3   OH253984   1.517   0.165  10.987 -0.2603  0.2210 -0.2345
 9930TIP3    H153985   1.446   0.150  10.925 -0.2585  0.9207 -0.4097
 9930TIP3    H253986   1.479   0.140  11.072  0.0361 -1.6328 -0.6053
 9931TIP3   OH253987   6.633   5.511  11.527 -0.2619  0.0529 -0.3064
 9931TIP3    H153988   6.712   5.479  11.484 -0.8664 -2.1719  0.0805
 9931TIP3    H253989   6.562   5.486  11.467 -0.6480  3.4444 -1.4341
 9932TIP3   OH253990   5.419   3.884  11.353 -0.1771 -0.5959  0.3373
 9932TIP3    H153991   5.497   3.916  11.397  0.0492 -0.5533 -0.0835
 9932TIP3    H253992   5.382   3.962  11.311 -0.3576 -0.6442  0.4068
 9933TIP3   OH253993   0.363   4.484  11.818 -0.0228 -0.6320 -0.1801
 9933TIP3    H153994   0.299   4.427  11.776 -0.5591  0.0851 -0.3510
 9933TIP3    H253995   0.369   4.560  11.760 -1.5265  0.8487  1.4933
 9934TIP3   OH253996   6.912   3.057  11.355 -0.2555 -0.2998 -0.4925
 9934TIP3    H153997   6.948   3.100  11.277 -0.2743 -0.4095 -0.5627
 9934TIP3    H253998   6.925   2.964  11.339  2.2355 -0.2593  0.8266
 9935TIP3   OH253999   2.854   0.707  12.622  0.6429  0.2946  0.0723
 9935TIP3    H154000   2.851   0.682  12.715 -1.2883 -2.2540 -0.5857
 9935TIP3    H254001   2.919   0.649  12.583  0.9784  0.9170 -0.3139
 9936TIP3   OH254002   6.647   4.888  10.261 -0.3781 -0.4493  0.0298
 9936TIP3    H154003   6.575   4.882  10.323 -0.6505  1.6874  0.0112
 9936TIP3    H254004   6.625   4.964  10.206  2.0105  0.4938  0.2384
 9937TIP3   OH254005   3.868   5.518  10.350  0.1971 -0.0198  0.0786
 9937TIP3    H154006   3.874   5.456  10.422  0.4401 -0.4665 -0.3215
 9937TIP3    H254007   3.866   5.464  10.271  0.8309  0.4873 -0.2994
 9938TIP3   OH254008   4.929   2.764  12.073 -0.1671 -0.2453  0.1137
 9938TIP3    H154009   4.934   2.771  12.169  1.4485  0.2273  0.0200
 9938TIP3    H254010   5.015   2.731  12.046 -0.2735  0.5128 -1.2432
 9939TIP3   OH254011   7.198   3.270  10.139  0.3669  1.0287  0.0836
 9939TIP3    H154012   7.163   3.188  10.104 -0.3060  1.1908  0.3543
 9939TIP3    H254013   7.293   3.262  10.130  0.2966  0.2878 -0.0354
 9940TIP3   OH254014   5.063   3.318   9.770  0.1521  0.0547 -0.3069
 9940TIP3    H154015   5.078   3.379   9.697  1.6922 -0.0279 -0.1017
 9940TIP3    H254016   5.089   3.233   9.736  1.2631  0.0774  0.4292
 9941TIP3   OH254017   5.363   5.121   9.958  0.3396  0.0509 -0.0513
 9941TIP3    H154018   5.308   5.141   9.883  0.5320  2.8597  0.4390
 9941TIP3    H254019   5.318   5.050  10.003  0.2813 -1.7800 -2.8128
 9942TIP3   OH254020   0.257   4.224  12.439 -0.1884 -0.6282 -0.2984
 9942TIP3    H154021   0.319   4.212  12.367 -0.7729  4.2042 -1.9471
 9942TIP3    H254022   0.172   4.229  12.397 -0.9544 -0.8746  1.1622
 9943TIP3   OH254023   0.145   1.738  10.075 -0.1552  0.5172  0.4761
 9943TIP3    H154024   0.075   1.720  10.138 -0.4211  0.0618  0.0528
 9943TIP3    H254025   0.113   1.704   9.992  0.1255  1.2670  0.0510
 9944TIP3   OH254026   7.222   6.022   9.816 -0.4149  0.4638  0.3252
 9944TIP3    H154027   7.165   6.087   9.775 -1.4201  0.0022  0.9361
 9944TIP3    H254028   7.281   6.073   9.871  0.0758  0.9822 -0.6623
 9945TIP3   OH254029   5.371   7.175  12.364 -0.3157 -0.5597  0.1977
 9945TIP3    H154030   5.285   7.170  12.407 -1.1381  2.6570 -0.8225
 9945TIP3    H254031   5.429   7.214  12.429 -0.3696 -0.0450 -0.0614
 9946TIP3   OH254032   5.187   7.670  12.333 -0.3161  0.2895 -0.1535
 9946TIP3    H154033   5.142   7.699  12.413 -1.5472  0.2910 -0.8123
 9946TIP3    H254034   5.277   7.700  12.344 -0.3735  0.0168  1.3656
 9947TIP3   OH254035   2.480   1.124  13.106  0.0957  0.3770  0.9075
 9947TIP3    H154036   2.569   1.095  13.126  0.6279  1.6148  0.4571
 9947TIP3    H254037   2.491   1.215  13.078 -1.1013 -0.0029 -0.9067
 9948TIP3   OH254038   4.231   4.403  11.280 -0.0908  0.2773 -0.3977
 9948TIP3    H154039   4.247   4.455  11.201 -1.9437  1.4176 -0.0848
 9948TIP3    H254040   4.263   4.458  11.352  0.1133 -0.0703 -0.2164
 9949TIP3   OH254041   5.105   0.701  12.730 -0.1449  0.0960  0.2371
 9949TIP3    H154042   5.176   0.640  12.714 -0.3858  0.0201 -0.5679
 9949TIP3    H254043   5.042   0.684  12.661 -1.4952 -0.6201  1.5823
 9950TIP3   OH254044   4.241   7.547  11.708 -0.3402  0.1853 -0.1660
 9950TIP3    H154045   4.165   7.489  11.706 -1.4424  1.5270  0.8276
 9950TIP3    H254046   4.315   7.488  11.722 -1.6111 -0.9089  2.9217
 9951TIP3   OH254047   3.027   5.641  10.431  0.1609  0.5475  0.0930
 9951TIP3    H154048   2.992   5.619  10.345 -1.0593  1.8489  0.2267
 9951TIP3    H254049   2.963   5.605  10.493  0.1647  1.0530  0.3990
 9952TIP3   OH254050   7.673   7.263  11.750 -0.2347  0.3270 -0.2925
 9952TIP3    H154051   7.689   7.318  11.826  0.8212 -0.4471  0.0597
 9952TIP3    H254052   7.738   7.194  11.756 -0.4990 -0.0609 -1.6014
 9953TIP3   OH254053   1.442   3.392  11.111  0.4200  0.0744  0.3879
 9953TIP3    H154054   1.414   3.428  11.027  0.4282 -0.5930  0.0948
 9953TIP3    H254055   1.459   3.469  11.166 -1.7494  0.5347  0.5081
 9954TIP3   OH254056   5.196   3.187  10.868 -0.1886 -0.4876  0.1393
 9954TIP3    H154057   5.164   3.264  10.822  0.3432 -1.1775 -1.4795
 9954TIP3    H254058   5.266   3.220  10.924  0.3367  0.1740 -0.8636
 9955TIP3   OH254059   1.052   2.188  12.172 -0.9890 -0.2665  0.7172
 9955TIP3    H154060   1.066   2.181  12.266 -0.5610  2.2438  0.9161
 9955TIP3    H254061   1.059   2.098  12.140 -0.9487 -1.1572  3.0309
 9956TIP3   OH254062   1.430   4.581  10.590 -0.0313 -0.0879  0.2153
 9956TIP3    H154063   1.481   4.649  10.547 -1.7345  1.1026 -0.0366
 9956TIP3    H254064   1.482   4.556  10.666  1.2341  0.5363 -0.4127
 9957TIP3   OH254065   7.634   5.823  11.867  0.3704  1.1354 -0.1968
 9957TIP3    H154066   7.629   5.849  11.959  0.3262 -0.0709  0.1585
 9957TIP3    H254067   7.558   5.865  11.825 -0.2926  0.7122  0.5680
 9958TIP3   OH254068   7.408   6.548  11.681  0.0169  0.3726  0.5004
 9958TIP3    H154069   7.406   6.642  11.701  0.1201  0.2644  1.0489
 9958TIP3    H254070   7.470   6.541  11.609 -0.3853  0.7850  0.1036
 9959TIP3   OH254071   0.637   0.393  11.363  0.4081  0.1222 -0.3891
 9959TIP3    H154072   0.708   0.442  11.404  0.0382 -1.0144  1.7377
 9959TIP3    H254073   0.578   0.372  11.435 -0.7535 -1.2174 -1.6727
 9960TIP3   OH254074   6.037   0.820  10.244  0.1366 -0.2974 -0.2704
 9960TIP3    H154075   6.046   0.726  10.227  0.3745 -0.7144  1.8683
 9960TIP3    H254076   6.118   0.843  10.291 -0.7182  0.5603  0.8248
 9961TIP3   OH254077   2.980   0.799  13.130  0.6969 -0.2319  0.2185
 9961TIP3    H154078   3.019   0.877  13.170 -0.8882 -0.1626  1.7693
 9961TIP3    H254079   3.043   0.729  13.149  3.0291  0.8614 -2.7400
 9962TIP3   OH254080   7.090   2.842  10.593 -0.1248 -0.1853  0.0406
 9962TIP3    H154081   7.003   2.808  10.615  0.3275 -0.2605  1.9720
 9962TIP3    H254082   7.124   2.875  10.677  0.8564  1.8451 -1.0682
 9963TIP3   OH254083   0.413   6.296  11.038 -0.2245  0.4961 -0.1933
 9963TIP3    H154084   0.498   6.273  11.003 -0.6276  0.7498 -1.3771
 9963TIP3    H254085   0.358   6.219  11.023 -1.0090  1.3889 -2.2637
 9964TIP3   OH254086   5.315   5.218  10.369 -0.5123 -0.1019  0.2176
 9964TIP3    H154087   5.220   5.229  10.368 -0.5620 -0.4707  0.6860
 9964TIP3    H254088   5.337   5.190  10.280 -1.1025 -2.1377  0.6618
 9965TIP3   OH254089   4.234   1.421  12.815  0.7075  0.0691 -0.3479
 9965TIP3    H154090   4.247   1.513  12.794  0.5945  0.7424  2.1444
 9965TIP3    H254091   4.322   1.388  12.836  0.6572 -0.1792 -0.5256
 9966TIP3   OH254092   7.165   2.417  10.120  0.6481  0.7293 -0.2773
 9966TIP3    H154093   7.110   2.489  10.091  0.1927  0.6826  0.4583
 9966TIP3    H254094   7.245   2.459  10.151  0.1941  0.9606  0.5970
 9967TIP3   OH254095   7.619   0.235  11.302  0.0050 -0.0286 -0.1264
 9967TIP3    H154096   7.688   0.266  11.243 -0.6664 -0.6693 -1.2670
 9967TIP3    H254097   7.620   0.298  11.374  1.3569  0.3355 -0.4281
 9968TIP3   OH254098   2.097   0.170  10.432  0.1699 -0.1293  0.2111
 9968TIP3    H154099   2.136   0.165  10.345  0.8359  0.3410  0.4782
 9968TIP3    H254100   2.156   0.119  10.488  0.3332  0.4612  0.5895
 9969TIP3   OH254101   5.705   7.012  11.454  0.0400 -0.1733 -0.4853
 9969TIP3    H154102   5.735   7.058  11.533 -0.0444 -0.7924 -0.0826
 9969TIP3    H254103   5.676   6.927  11.486  2.3551 -1.4257 -1.5261
 9970TIP3   OH254104   4.309   4.054  10.648 -0.6472 -0.0218 -0.5130
 9970TIP3    H154105   4.325   3.967  10.687  1.6106 -0.0035 -1.2450
 9970TIP3    H254106   4.243   4.093  10.704 -1.2626 -1.9806  0.2223
 9971TIP3   OH254107   4.680   0.817  10.112 -0.0818  0.3584  0.2034
 9971TIP3    H154108   4.760   0.770  10.088 -1.2590 -0.3409 -2.7851
 9971TIP3    H254109   4.612   0.750  10.113 -1.0181  1.2831  0.3537
 9972TIP3   OH254110   0.857   2.359   9.724  0.2303 -0.1069  0.4156
 9972TIP3    H154111   0.803   2.292   9.681  0.3916  1.3068 -2.2160
 9972TIP3    H254112   0.793   2.421   9.760  0.0974 -0.8299  1.4542
 9973TIP3   OH254113   1.453   2.547  11.803  0.5655 -0.1255  0.1021
 9973TIP3    H154114   1.361   2.558  11.781 -0.1927 -0.4010  2.8133
 9973TIP3    H254115   1.468   2.605  11.877  2.1917 -1.1633  0.6586
 9974TIP3   OH254116   4.656   1.285  10.831  0.2053 -0.1639 -0.3271
 9974TIP3    H154117   4.742   1.249  10.808 -0.1998  0.0866 -2.5290
 9974TIP3    H254118   4.659   1.375  10.799 -0.2370  0.4659  1.3256
 9975TIP3   OH254119   6.371   6.582  11.256 -0.1196  0.1287  0.0742
 9975TIP3    H154120   6.356   6.489  11.241  0.8210 -0.0635  0.3157
 9975TIP3    H254121   6.294   6.625  11.218  0.0601 -0.6461 -1.2263
 9976TIP3   OH254122   4.443   5.130  11.522  0.2706 -0.2849  0.0007
 9976TIP3    H154123   4.511   5.064  11.507 -0.5627 -1.6331  1.7564
 9976TIP3    H254124   4.427   5.168  11.436  1.0419 -2.1315 -1.0156
 9977TIP3   OH254125   5.129   3.259  10.047 -0.1174  0.6181 -0.5503
 9977TIP3    H154126   5.137   3.290   9.956  1.6955  1.0763 -0.2639
 9977TIP3    H254127   5.146   3.165  10.041 -1.5978  0.3438 -0.8716
 9978TIP3   OH254128   2.634   2.611  11.072  0.0496 -0.3606 -0.5947
 9978TIP3    H154129   2.677   2.615  10.987 -0.6869  2.4346 -0.9158
 9978TIP3    H254130   2.697   2.650  11.133 -0.3356 -0.2102 -0.2845
 9979TIP3   OH254131   4.371   2.156  10.472  0.2055  0.0908  0.5248
 9979TIP3    H154132   4.443   2.212  10.503  0.5754 -0.4495  0.6582
 9979TIP3    H254133   4.310   2.217  10.432  0.2026  0.6996  1.4075
 9980TIP3   OH254134   4.411   5.943  11.973  0.3985 -0.1279 -0.0234
 9980TIP3    H154135   4.432   5.905  11.888  2.3604  0.4366  0.1702
 9980TIP3    H254136   4.465   5.895  12.036 -1.9377 -1.3926  1.1290
 9981TIP3   OH254137   1.106   4.811  11.101 -0.0206 -0.8022 -0.3582
 9981TIP3    H154138   1.015   4.806  11.131 -0.1059  2.3747  0.2148
 9981TIP3    H254139   1.112   4.897  11.059  2.5898 -1.1858 -0.8965
 9982TIP3   OH254140   6.491   6.783  10.492 -0.3109 -0.5630  0.2349
 9982TIP3    H154141   6.495   6.877  10.509 -0.4528 -0.7382  1.3146
 9982TIP3    H254142   6.446   6.747  10.568 -2.2123 -1.2604 -1.1489
 9983TIP3   OH254143   3.716   6.828  12.199  0.0385  0.1358 -0.2289
 9983TIP3    H154144   3.761   6.763  12.253 -0.8037 -0.8256 -0.6559
 9983TIP3    H254145   3.748   6.913  12.232  0.8927 -0.4754  0.5627
 9984TIP3   OH254146   7.167   5.363  10.581 -0.0687  0.4343 -0.0308
 9984TIP3    H154147   7.134   5.367  10.671  0.0785  1.0816 -0.0023
 9984TIP3    H254148   7.089   5.368  10.526 -0.2270 -0.7111  0.0531
 9985TIP3   OH254149   7.184   5.797  11.438 -0.9399 -0.1083 -0.5475
 9985TIP3    H154150   7.130   5.759  11.508 -0.4336 -0.9814 -0.6167
 9985TIP3    H254151   7.161   5.748  11.360  1.9351 -2.5507 -0.0682
 9986TIP3   OH254152   5.264   4.192  10.339  0.4748 -0.5412  0.4022
 9986TIP3    H154153   5.224   4.116  10.381  1.0964 -0.5657  0.9656
 9986TIP3    H254154   5.201   4.218  10.272 -1.2210  0.3638  2.2641
 9987TIP3   OH254155   7.519   6.555  10.661  0.5273  0.0211 -0.4591
 9987TIP3    H154156   7.503   6.461  10.667  0.9864 -0.1062 -1.1953
 9987TIP3    H254157   7.513   6.576  10.568 -1.8786  1.1546 -0.1355
 9988TIP3   OH254158   1.555   0.502  10.664 -0.0546 -0.0393 -0.2497
 9988TIP3    H154159   1.592   0.455  10.738  0.8408  0.7706 -0.1599
 9988TIP3    H254160   1.623   0.566  10.640 -0.6912  0.3032 -1.1999
 9989TIP3   OH254161   1.661   2.844  12.563  0.1592 -0.6721  0.5361
 9989TIP3    H154162   1.747   2.816  12.594  0.1265 -1.1824  0.1773
 9989TIP3    H254163   1.619   2.764  12.532 -0.5764 -0.4774  1.0137
 9990TIP3   OH254164   4.109   5.183  12.512 -0.1532 -0.0256 -0.4409
 9990TIP3    H154165   4.116   5.091  12.487 -0.0707 -0.1980  0.2007
 9990TIP3    H254166   4.034   5.216  12.463  0.3064 -0.2194 -1.2980
 9991TIP3   OH254167   4.652   3.986  10.503  0.2001 -0.5771 -0.1248
 9991TIP3    H154168   4.644   3.919  10.570  1.0286 -0.1111  0.4485
 9991TIP3    H254169   4.587   4.052  10.527 -0.7710 -1.2374 -0.8115
 9992TIP3   OH254170   7.143   6.966  11.260 -0.0287 -0.3024  0.2191
 9992TIP3    H154171   7.176   6.945  11.173  0.4561 -0.3252  0.4066
 9992TIP3    H254172   7.048   6.973  11.249 -0.0195 -0.8019 -0.2103
 9993TIP3   OH254173   3.294   5.242   9.986  0.6083 -0.2625 -0.4401
 9993TIP3    H154174   3.373   5.267  10.034 -0.2982 -0.1900  1.0755
 9993TIP3    H254175   3.321   5.165   9.935  2.1135  0.8261 -1.3691
 9994TIP3   OH254176   3.408   4.285  12.281 -0.5675 -0.4719  0.5916
 9994TIP3    H154177   3.378   4.342  12.351  2.1646  2.3747 -0.3272
 9994TIP3    H254178   3.500   4.268  12.301  0.2100  0.1476 -2.0520
 9995TIP3   OH254179   1.961   4.899  11.656  0.7396  0.3137  0.2924
 9995TIP3    H154180   1.870   4.918  11.635  1.1193 -0.4923 -2.5641
 9995TIP3    H254181   1.957   4.826  11.719 -0.6456 -1.0875 -1.3058
 9996TIP3   OH254182   3.068   0.205  12.224  0.5465 -0.1570 -0.1828
 9996TIP3    H154183   3.021   0.228  12.143  0.3339  0.5058  0.1188
 9996TIP3    H254184   3.145   0.261  12.223  0.6425 -0.2857 -0.0158
 9997TIP3   OH254185   5.207   5.901  11.676 -0.0497  0.0554  0.6807
 9997TIP3    H154186   5.226   5.829  11.615 -0.0727  0.5021  0.1427
 9997TIP3    H254187   5.286   5.908  11.729 -0.1829 -0.6068  0.9825
 9998TIP3   OH254188   2.627   1.352  10.140 -0.2243 -0.5313 -0.3376
 9998TIP3    H154189   2.649   1.442  10.119 -2.4686 -0.3191 -2.1767
 9998TIP3    H254190   2.708   1.303  10.124  1.1704  1.1492  1.1671
 9999TIP3   OH254191   5.201   0.086  11.612  0.0608  0.8861 -0.2402
 9999TIP3    H154192   5.267   0.032  11.656  0.1423  0.5830 -0.7253
 9999TIP3    H254193   5.247   0.123  11.536 -0.1485  1.1854 -0.2197
10000TIP3   OH254194   3.599   6.648  12.034  0.0386  0.3429  0.0392
10000TIP3    H154195   3.602   6.571  12.091  4.8253 -0.4011 -0.8084
10000TIP3    H254196   3.643   6.716  12.085  1.3468  0.6546 -1.4526
10001TIP3   OH254197   7.594   4.723  11.281 -0.2115 -0.0834  0.6573
10001TIP3    H154198   7.677   4.676  11.271 -0.1561 -0.2890  1.8928
10001TIP3    H254199   7.619   4.815  11.289 -0.0924 -0.1385  0.9603
10002TIP3   OH254200   1.201   5.643  10.837 -0.7578 -0.2408 -0.4077
10002TIP3    H154201   1.245   5.585  10.775  1.3065  0.2250  0.5207
10002TIP3    H254202   1.272   5.697  10.873 -2.1685  0.7866  0.9493
10003TIP3   OH254203   7.409   1.364  10.498  0.4179 -0.1868  0.2512
10003TIP3    H154204   7.441   1.277  10.522 -2.0721 -1.8458 -1.9161
10003TIP3    H254205   7.335   1.379  10.556 -0.7267 -0.7174 -1.0135
10004TIP3   OH254206   0.847   0.328  10.531 -0.2061  0.1166 -0.1791
10004TIP3    H154207   0.928   0.376  10.519 -0.1298  0.4656  1.4612
10004TIP3    H254208   0.829   0.334  10.625 -3.4351  2.1582 -0.7512
10005TIP3   OH254209   2.150   5.104  11.637  0.4991  0.2211  0.3524
10005TIP3    H154210   2.086   5.036  11.616  1.1142 -0.1720 -0.3117
10005TIP3    H254211   2.105   5.162  11.697  0.0351 -0.9105  1.1372
10006TIP3   OH254212   3.604   4.118  10.848  0.1084  0.2954  0.3496
10006TIP3    H154213   3.687   4.101  10.805  0.5499  0.8817  0.9652
10006TIP3    H254214   3.627   4.136  10.939 -0.5885  1.5295  0.3022
10007TIP3   OH254215   3.990   7.070  11.066  0.1888 -0.2864  0.5936
10007TIP3    H154216   3.968   7.005  11.133 -2.2255 -1.0926 -0.8438
10007TIP3    H254217   3.909   7.081  11.016  0.4348  3.9221  0.7481
10008TIP3   OH254218   7.667   2.728  12.585  0.1507 -0.0263 -0.3837
10008TIP3    H154219   7.711   2.802  12.628 -0.7251  0.9671 -1.1308
10008TIP3    H254220   7.575   2.740  12.606 -0.1932  0.0199 -1.8441
10009TIP3   OH254221   4.799   6.249  10.128  0.0760  0.2969  0.2143
10009TIP3    H154222   4.714   6.282  10.159 -0.9668 -0.8454 -1.2482
10009TIP3    H254223   4.778   6.164  10.089  1.6789  0.5538 -1.3046
10010TIP3   OH254224   2.054   1.008  13.363 -0.1549  0.7060  0.3992
10010TIP3    H154225   1.990   0.990  13.293 -0.2386  0.2076  0.5963
10010TIP3    H254226   2.138   0.984  13.324 -0.0039  1.8786 -0.0483
10011TIP3   OH254227   4.098   6.694  12.266 -1.6369  0.1685  0.2218
10011TIP3    H154228   4.191   6.677  12.254 -1.6115  0.0895  0.5162
10011TIP3    H254229   4.061   6.694  12.177 -0.9894  2.3809 -0.1087
10012TIP3   OH254230   7.255   6.137  11.246  0.0574  0.3545 -0.0412
10012TIP3    H154231   7.178   6.184  11.215  0.0735  0.7744  0.5434
10012TIP3    H254232   7.265   6.064  11.184 -0.8518  0.2506 -0.0812
10013TIP3   OH254233   6.538   2.069  11.527 -0.3317  0.4418 -0.0253
10013TIP3    H154234   6.632   2.084  11.517 -0.0565 -1.5114 -0.6750
10013TIP3    H254235   6.500   2.106  11.447 -0.0472  0.5284 -0.1230
10014TIP3   OH254236   7.422   6.921  10.869 -0.5907  0.0335  0.0421
10014TIP3    H154237   7.329   6.926  10.850 -0.3141 -0.4400 -1.6211
10014TIP3    H254238   7.449   7.012  10.883 -1.0978  0.2958 -0.6275
10015TIP3   OH254239   6.041   3.654  10.380  0.3176 -0.0155 -0.3181
10015TIP3    H154240   6.094   3.596  10.434 -0.2111  1.1277  1.5273
10015TIP3    H254241   6.029   3.606  10.298 -0.1957 -2.5857  1.1399
10016TIP3   OH254242   1.130   0.619  10.176 -0.6479  0.6915  1.0690
10016TIP3    H154243   1.215   0.594  10.211 -1.0406 -1.6365  0.4838
10016TIP3    H254244   1.067   0.569  10.227 -1.3674 -0.9810 -1.3042
10017TIP3   OH254245   2.425   1.994  10.470 -0.2528  0.4544 -0.1120
10017TIP3    H154246   2.397   1.925  10.410 -1.3956  0.4962  0.3454
10017TIP3    H254247   2.445   1.948  10.552 -1.4439  0.6840  0.3321
10018TIP3   OH254248   1.512   3.595  10.647  0.1363  0.7605 -0.0673
10018TIP3    H154249   1.479   3.684  10.637 -1.4311  0.4686  2.0124
10018TIP3    H254250   1.477   3.547  10.572  1.1907  1.8857 -1.3354
10019TIP3   OH254251   5.590   7.475  11.207 -0.3926 -0.4572  0.0584
10019TIP3    H154252   5.567   7.399  11.261 -0.3748 -0.4625  0.0590
10019TIP3    H254253   5.536   7.465  11.129 -0.9333 -0.0837  0.3751
10020TIP3   OH254254   0.499   4.725  11.703  0.1283 -0.3078  0.2806
10020TIP3    H154255   0.543   4.704  11.621  0.6671 -0.2669  0.5564
10020TIP3    H254256   0.436   4.793  11.680  0.3122 -0.2626 -0.0891
10021TIP3   OH254257   4.198   5.165   9.902 -0.1170  0.5071 -0.3428
10021TIP3    H154258   4.166   5.105   9.969 -1.3346 -0.7738 -1.9806
10021TIP3    H254259   4.292   5.172   9.918 -0.2198 -0.5221  0.8876
10022TIP3   OH254260   4.357   6.156  10.264  0.1070  0.7487  0.2084
10022TIP3    H154261   4.291   6.128  10.328  0.1795 -1.3165 -0.5461
10022TIP3    H254262   4.311   6.217  10.208 -0.4255  1.3027  1.2204
10023TIP3   OH254263   4.050   0.171  10.201  0.2846 -0.1204 -0.3281
10023TIP3    H154264   4.085   0.177  10.290 -1.5779 -0.2221  0.4533
10023TIP3    H254265   4.088   0.246  10.155  1.3369 -0.1118  0.5249
10024TIP3   OH254266   2.190   0.840  10.625  0.4704  0.6653  0.6086
10024TIP3    H154267   2.233   0.868  10.544 -0.5434  0.3173 -0.0674
10024TIP3    H254268   2.149   0.756  10.603 -0.2199  0.7989  1.3316
10025TIP3   OH254269   0.963   4.333  12.424 -0.0422  0.3675  0.3252
10025TIP3    H154270   0.960   4.426  12.446 -1.2299  0.2937  0.5357
10025TIP3    H254271   0.883   4.297  12.461  0.5615 -0.8124  0.5392
10026TIP3   OH254272   0.095   0.626  12.072  0.5417  0.3397 -0.0052
10026TIP3    H154273   0.040   0.611  11.995  0.4658  0.2742  0.0614
10026TIP3    H254274   0.037   0.609  12.146  0.3886  1.2130  0.0774
10027TIP3   OH254275   5.489   7.307  10.764  0.2739 -0.4920  0.6381
10027TIP3    H154276   5.397   7.335  10.758 -0.2230 -2.0243  0.6450
10027TIP3    H254277   5.525   7.359  10.836 -0.1202  1.2855 -0.3937
10028TIP3   OH254278   3.549   5.467  12.129  0.3187 -0.1526 -0.9895
10028TIP3    H154279   3.623   5.405  12.129  1.3256  0.8561  2.4817
10028TIP3    H254280   3.495   5.440  12.203 -0.6419  1.5388 -1.0239
10029TIP3   OH254281   5.545   2.072  10.908  0.3825 -0.1276  0.8254
10029TIP3    H154282   5.526   2.053  10.817  1.1625  0.1486  0.6029
10029TIP3    H254283   5.507   1.998  10.956  1.1726 -0.9957  0.1715
10030TIP3   OH254284   1.681   3.192  10.632  0.0933  0.4012 -0.1751
10030TIP3    H154285   1.628   3.159  10.560 -1.4470  1.7151  0.2970
10030TIP3    H254286   1.771   3.189  10.600 -0.4873  0.2613 -1.8615
10031TIP3   OH254287   7.339   5.469  12.652  0.0232 -0.1180  0.3650
10031TIP3    H154288   7.338   5.530  12.578 -0.8333  0.5701  0.9320
10031TIP3    H254289   7.409   5.501  12.709  0.2361 -0.2554  0.1832
10032TIP3   OH254290   1.639   3.645  12.010 -0.4623 -0.4840  0.1950
10032TIP3    H154291   1.575   3.680  12.071 -0.7482 -3.1117  1.5411
10032TIP3    H254292   1.684   3.576  12.059 -0.1422 -2.1720 -2.2846
10033TIP3   OH254293   4.044   5.477  12.256  0.0705 -0.4784  0.2927
10033TIP3    H154294   3.986   5.536  12.305 -0.2706  0.8013 -1.5399
10033TIP3    H254295   4.008   5.390  12.272 -1.8317  0.1946 -0.0451
10034TIP3   OH254296   5.566   2.297  11.072  0.0255 -0.0271 -0.0691
10034TIP3    H154297   5.549   2.204  11.055 -0.5712 -0.0475  0.5897
10034TIP3    H254298   5.640   2.298  11.132 -0.7847 -0.1409  0.9566
10035TIP3   OH254299   2.835   4.975  11.014 -0.1799 -0.2709 -0.4802
10035TIP3    H154300   2.916   4.964  11.064 -0.2733  1.6155  0.1761
10035TIP3    H254301   2.784   4.897  11.033  2.1724 -2.4130 -2.3558
10036TIP3   OH254302   4.383   5.160  10.366  0.1273 -0.1121 -0.1493
10036TIP3    H154303   4.376   5.209  10.285 -0.3931 -0.3048 -0.2302
10036TIP3    H254304   4.422   5.221  10.428  1.2883 -0.2194 -0.7474
10037TIP3   OH254305   5.977   5.636  11.872  0.5223  0.3290 -0.4340
10037TIP3    H154306   6.006   5.629  11.781 -1.9566 -0.9554 -1.2113
10037TIP3    H254307   5.890   5.675  11.867  1.6936  3.7125  1.7574
10038TIP3   OH254308   3.371   6.930  11.746  0.2827  0.4356  0.0411
10038TIP3    H154309   3.442   6.930  11.681 -1.1100  2.6573 -1.6848
10038TIP3    H254310   3.415   6.942  11.830  2.0079  3.9788 -1.1491
10039TIP3   OH254311   5.954   7.338   9.953 -0.3349  0.5038  0.3708
10039TIP3    H154312   5.908   7.394   9.891 -2.7438 -0.4358  1.1931
10039TIP3    H254313   5.933   7.249   9.926  0.8554  0.0211  0.9411
10040TIP3   OH254314   4.917   4.156  11.119  0.1710 -0.3860 -0.4978
10040TIP3    H154315   4.837   4.187  11.076  0.2458  0.5311 -0.0022
10040TIP3    H254316   4.979   4.144  11.047  0.2170  0.9030 -0.6964
10041TIP3   OH254317   7.637   3.166  11.359 -0.0650  0.3171  0.0917
10041TIP3    H154318   7.696   3.156  11.285  1.0310  0.1162  0.9673
10041TIP3    H254319   7.591   3.248  11.343  0.6699  0.6232 -0.4622
10042TIP3   OH254320   1.655   7.036  10.607 -0.4237 -0.5607 -0.0230
10042TIP3    H154321   1.693   7.124  10.612 -0.3828 -0.4993 -1.2119
10042TIP3    H254322   1.700   6.987  10.676  0.2771  0.0850 -0.0028
10043TIP3   OH254323   5.879   6.219  10.246  0.7229  0.3521 -0.6605
10043TIP3    H154324   5.903   6.246  10.158  0.7934  1.3730 -0.3416
10043TIP3    H254325   5.963   6.214  10.293  0.6213  0.5151 -0.4625
10044TIP3   OH254326   0.693   3.607  10.061  0.3318  0.2632  0.2710
10044TIP3    H154327   0.656   3.693  10.040 -1.1923 -0.4805 -0.2300
10044TIP3    H254328   0.788   3.620  10.056  0.1135  1.3778 -1.9505
10045TIP3   OH254329   0.241   7.207  11.226 -0.3455 -0.3281 -0.3907
10045TIP3    H154330   0.279   7.135  11.276  0.0014 -0.0533 -0.2536
10045TIP3    H254331   0.311   7.236  11.168  0.4118  1.5800  1.3391
10046TIP3   OH254332   2.090   0.509  12.158  0.1279 -0.7153 -0.7318
10046TIP3    H154333   2.158   0.564  12.121  1.4932 -2.3619 -0.7704
10046TIP3    H254334   2.017   0.569  12.174  1.4322  1.0316 -1.0250
10047TIP3   OH254335   0.513   7.120  10.202  0.3955 -0.2681  0.0925
10047TIP3    H154336   0.522   7.113  10.297  1.8690 -1.5471 -0.1168
10047TIP3    H254337   0.469   7.039  10.175  0.0624  0.0485 -0.3497
10048TIP3   OH254338   0.597   1.237  10.924  0.1573 -0.3238 -0.3345
10048TIP3    H154339   0.675   1.183  10.917 -0.7789 -1.9035  0.7816
10048TIP3    H254340   0.549   1.220  10.842 -0.6452 -2.1168  0.4460
10049TIP3   OH254341   7.476   4.774  10.587 -0.0257  0.3593 -0.1096
10049TIP3    H154342   7.439   4.836  10.524  0.5811  2.0324  1.1195
10049TIP3    H254343   7.420   4.782  10.665 -0.1815 -0.9673 -0.0476
10050TIP3   OH254344   0.164   1.134   9.720 -0.6422 -0.5327  0.0071
10050TIP3    H154345   0.161   1.071   9.792  1.0399 -1.8498 -1.0028
10050TIP3    H254346   0.161   1.220   9.763  1.3203 -1.2515  1.7488
10051TIP3   OH254347   2.769   7.199  11.273 -0.4482 -0.0313 -0.3668
10051TIP3    H154348   2.799   7.228  11.359 -0.1008 -0.3552 -0.3775
10051TIP3    H254349   2.718   7.273  11.240 -1.1500 -0.1634  0.3942
10052TIP3   OH254350   7.573   3.580  11.069  0.2999 -0.1467 -0.2318
10052TIP3    H154351   7.647   3.624  11.025 -0.5764  2.0802  0.3902
10052TIP3    H254352   7.496   3.627  11.038 -0.7029 -1.2112  0.5846
10053TIP3   OH254353   1.334   2.101  10.040 -0.1041 -0.3014 -0.5004
10053TIP3    H154354   1.337   2.006  10.025 -0.3369 -0.1406 -1.6245
10053TIP3    H254355   1.246   2.127  10.013  0.3929  0.4358 -1.4574
10054TIP3   OH254356   6.447   6.778  10.772 -0.0807  0.6492  0.5002
10054TIP3    H154357   6.531   6.790  10.814  0.2722 -1.5113  0.5502
10054TIP3    H254358   6.430   6.684  10.778 -2.4885  0.9999  0.4579
10055TIP3   OH254359   4.249   7.530  10.312 -0.1441 -0.3371 -0.2854
10055TIP3    H154360   4.289   7.499  10.230  1.3148 -2.0785  1.0122
10055TIP3    H254361   4.208   7.453  10.350 -0.9795  0.4921  0.5615
10056TIP3   OH254362   4.940   3.411  10.811 -0.0304 -0.6711 -0.2287
10056TIP3    H154363   4.891   3.492  10.799 -0.8653 -0.8758  1.5260
10056TIP3    H254364   5.032   3.437  10.808 -0.2657  0.1015 -1.0532
10057TIP3   OH254365   1.434   5.437  10.733 -0.2958  0.2130  0.4009
10057TIP3    H154366   1.431   5.507  10.667  0.9057  0.9647  1.0967
10057TIP3    H254367   1.385   5.365  10.694  0.8734  0.4053 -1.6001
10058TIP3   OH254368   0.942   4.426  12.155  0.1766  0.2659  0.2486
10058TIP3    H154369   0.919   4.519  12.148 -0.1383  0.0930 -1.7006
10058TIP3    H254370   0.935   4.406  12.248 -0.8055  1.9350  0.5743
10059TIP3   OH254371   6.023   5.057  10.958 -0.1816 -0.5660  0.1230
10059TIP3    H154372   5.996   5.082  11.046 -1.6754 -0.7174 -0.2647
10059TIP3    H254373   6.031   5.139  10.910  0.6064 -0.4859  0.3661
10060TIP3   OH254374   7.609   3.990  11.561 -0.1942  0.2560 -0.1356
10060TIP3    H154375   7.634   4.021  11.648 -0.3657 -0.2823  0.1104
10060TIP3    H254376   7.686   3.942  11.530 -0.1199  0.4802 -0.2913
10061TIP3   OH254377   6.116   3.000  11.676  0.3426  0.5840 -0.2635
10061TIP3    H154378   6.124   3.066  11.745 -0.5506  2.0120 -1.4656
10061TIP3    H254379   6.151   2.920  11.715  0.8794  1.6100  1.4569
10062TIP3   OH254380   0.613   0.757  10.979 -0.1546  0.0307  0.1048
10062TIP3    H154381   0.567   0.831  10.939  1.0771  1.4783  1.2137
10062TIP3    H254382   0.658   0.715  10.907  0.6062  1.5211 -0.3439
10063TIP3   OH254383   3.850   6.746  11.071 -0.5490  0.6581  0.3024
10063TIP3    H154384   3.885   6.781  10.989 -1.5379  1.0287  0.0112
10063TIP3    H254385   3.893   6.798  11.139  1.9476 -1.1193  0.1900
10064TIP3   OH254386   7.551   1.322  10.006 -0.6800  0.8052 -0.2067
10064TIP3    H154387   7.520   1.411  10.018 -1.2194  0.9061 -2.1216
10064TIP3    H254388   7.487   1.281   9.947  0.3714 -0.3721 -0.5862
10065TIP3   OH254389   5.581   2.531  10.230 -0.2503 -0.4660 -0.5631
10065TIP3    H154390   5.600   2.449  10.185 -1.2021 -0.3686 -1.1676
10065TIP3    H254391   5.496   2.559  10.195 -0.3252  0.3568  0.2350
10066TIP3   OH254392   3.932   5.696  11.870 -0.8353  0.3858  0.4114
10066TIP3    H154393   3.971   5.644  11.799 -1.5493  0.7388 -0.2454
10066TIP3    H254394   3.914   5.632  11.938 -1.0921 -0.1295 -0.1277
10067TIP3   OH254395   1.063   4.375  11.041 -0.2038 -0.0275 -0.3889
10067TIP3    H154396   1.081   4.415  10.956 -0.0381 -0.8193 -0.7394
10067TIP3    H254397   1.088   4.283  11.030 -0.0516 -0.1130  0.5592
10068TIP3   OH254398   1.405   1.996  10.629 -0.3065 -0.2293  0.8013
10068TIP3    H154399   1.355   2.019  10.550 -0.5706  1.3691  1.3955
10068TIP3    H254400   1.484   1.954  10.596 -0.2089  0.8149 -0.3562
10069TIP3   OH254401   0.917   7.043  11.179 -0.0949  0.5003  0.0659
10069TIP3    H154402   1.010   7.018  11.182 -0.1452  0.3228  0.1851
10069TIP3    H254403   0.898   7.072  11.268 -0.1517  0.5440  0.0392
10070TIP3   OH254404   2.863   2.772  11.866  0.3637  0.1432 -0.0659
10070TIP3    H154405   2.852   2.823  11.946  1.0502  0.2150 -0.0126
10070TIP3    H254406   2.834   2.830  11.796 -2.0889 -0.5866  0.2752
10071TIP3   OH254407   2.825   1.321  10.904 -0.2312  0.8062 -0.2674
10071TIP3    H154408   2.862   1.261  10.969 -1.4584  0.3755  0.0652
10071TIP3    H254409   2.840   1.278  10.820  2.3297  1.8628 -0.4370
10072TIP3   OH254410   4.554   0.493  11.873 -0.1509 -0.0209  0.4288
10072TIP3    H154411   4.576   0.528  11.787  0.4094 -1.6348 -0.1083
10072TIP3    H254412   4.626   0.522  11.930 -1.4751  2.7200  0.8892
10073TIP3   OH254413   3.295   1.732  10.177 -0.5256 -0.1295 -0.3743
10073TIP3    H154414   3.382   1.757  10.208  0.4450 -1.5823 -1.7703
10073TIP3    H254415   3.259   1.813  10.142 -0.4577  0.8684  1.7131
10074TIP3   OH254416   0.039   1.944  11.468 -0.1576 -0.2531  0.2530
10074TIP3    H154417   0.061   1.869  11.412  0.7289  0.2985 -0.1793
10074TIP3    H254418   0.038   1.909  11.556 -0.2476 -0.8801  0.0080
10075TIP3   OH254419   7.425   0.879  12.547 -0.2496 -0.4110 -0.1036
10075TIP3    H154420   7.439   0.958  12.599 -1.2563  0.3432 -0.9261
10075TIP3    H254421   7.489   0.886  12.476  0.0165 -0.6007  0.1183
10076TIP3   OH254422   0.355   5.656  10.159  0.2420  0.6337  0.4678
10076TIP3    H154423   0.423   5.594  10.130 -1.3774  0.1502 -2.7651
10076TIP3    H254424   0.295   5.602  10.211  0.5016  0.2500  0.3772
10077TIP3   OH254425   3.889   7.503  10.862  0.2478  0.2888 -0.1619
10077TIP3    H154426   3.855   7.450  10.789  1.0860  0.0629 -0.4034
10077TIP3    H254427   3.980   7.475  10.871  0.2519  0.5759  0.7462
10078TIP3   OH254428   7.162   5.005  11.729 -0.0194  0.2222  0.4061
10078TIP3    H154429   7.180   4.949  11.805  2.4242  0.3298 -0.0091
10078TIP3    H254430   7.145   5.091  11.766  0.7635  0.1846  0.8641
10079TIP3   OH254431   1.119   0.178  11.984 -0.1028 -0.1110  0.3948
10079TIP3    H154432   1.211   0.195  12.004 -0.1229 -0.5556  0.8971
10079TIP3    H254433   1.116   0.086  11.960  0.2399  0.7917 -3.7683
10080TIP3   OH254434   1.959   4.043  10.341  0.5345 -0.2155 -0.0531
10080TIP3    H154435   1.879   4.019  10.294 -0.9347  0.3937  1.9882
10080TIP3    H254436   1.944   4.011  10.430  1.7072  1.6287  0.8586
10081TIP3   OH254437   1.949   6.314  12.075  0.0294  0.5787 -0.2234
10081TIP3    H154438   1.990   6.312  11.989  0.2503  1.1949 -0.1428
10081TIP3    H254439   1.873   6.372  12.064 -0.6533 -0.3046 -0.2927
10082TIP3   OH254440   0.212   4.493  11.025  0.3233 -0.0326  0.3921
10082TIP3    H154441   0.229   4.430  11.095 -0.1559 -1.3966 -0.6597
10082TIP3    H254442   0.141   4.453  10.974  1.2952  0.4539 -1.4223
10083TIP3   OH254443   4.528   0.418  10.831 -0.3038  0.1906  0.5041
10083TIP3    H154444   4.526   0.392  10.923  3.2622  0.6546  0.8784
10083TIP3    H254445   4.547   0.512  10.833  1.2943 -0.0529 -0.5990
10084TIP3   OH254446   6.084   5.161  12.355 -0.1709  0.9182  0.0141
10084TIP3    H154447   6.159   5.209  12.321 -0.0457  0.8525  0.1991
10084TIP3    H254448   6.046   5.220  12.421  0.0944  0.6817  0.3759
10085TIP3   OH254449   7.605   1.815  12.544  0.3067  0.6678 -0.3299
10085TIP3    H154450   7.554   1.881  12.499 -0.9907  0.4035  0.6989
10085TIP3    H254451   7.562   1.732  12.523 -0.1287  0.5069  1.0809
10086TIP3   OH254452   6.810   5.194  10.113  0.0391  0.0504 -0.7342
10086TIP3    H154453   6.762   5.163  10.036  0.0175  0.1041 -0.7425
10086TIP3    H254454   6.765   5.275  10.138 -0.8271 -0.6785  0.1596
10087TIP3   OH254455   6.803   0.938   9.897  0.0695  0.3501 -0.5641
10087TIP3    H154456   6.885   0.950   9.944 -0.4842 -1.8259  1.1385
10087TIP3    H254457   6.741   0.994   9.943 -0.4837 -1.8156  1.5101
10088TIP3   OH254458   7.176   5.265  11.855  0.2041  0.3282  0.4810
10088TIP3    H154459   7.124   5.306  11.786 -0.0411  0.9847  1.0487
10088TIP3    H254460   7.256   5.316  11.858 -0.3552  1.1658  1.6037
10089TIP3   OH254461   5.078   7.245  11.367  0.4229 -0.2667 -0.0285
10089TIP3    H154462   5.017   7.185  11.323  0.8339 -1.7743  1.3563
10089TIP3    H254463   5.078   7.216  11.458  2.8159  0.0212  0.1251
10090TIP3   OH254464   4.655   2.809   9.985  0.0740  0.0887 -0.2985
10090TIP3    H154465   4.642   2.822  10.079 -1.3732 -0.7827 -0.3515
10090TIP3    H254466   4.608   2.881   9.944  2.5699  1.8055 -0.3731
10091TIP3   OH254467   7.623   1.539  10.582 -0.2516 -0.0680 -0.1919
10091TIP3    H154468   7.627   1.455  10.627 -1.1938  0.0940  0.2152
10091TIP3    H254469   7.535   1.541  10.542 -0.5142  1.0117  0.3932
10092TIP3   OH254470   2.916   5.409  10.709  0.1303 -0.6162  0.0022
10092TIP3    H154471   2.997   5.402  10.760  1.4388  2.4293 -1.4112
10092TIP3    H254472   2.943   5.397  10.618 -1.2481 -0.8427 -0.4062
10093TIP3   OH254473   6.424   6.034  11.436 -0.6737  0.2469 -0.0071
10093TIP3    H154474   6.486   5.962  11.427 -1.0943 -0.1816  0.4174
10093TIP3    H254475   6.393   6.028  11.526 -1.7961  0.0538 -0.3793
10094TIP3   OH254476   3.400   1.597  11.523 -0.1679  0.3498 -0.3863
10094TIP3    H154477   3.307   1.579  11.509 -0.6369 -3.0235  4.4589
10094TIP3    H254478   3.403   1.688  11.551 -2.2506  0.2274  0.4247
10095TIP3   OH254479   2.836   3.096  10.125  0.1147 -0.0663  0.5041
10095TIP3    H154480   2.925   3.114  10.157 -0.1824  0.3667  1.1299
10095TIP3    H254481   2.806   3.181  10.091 -0.5417  0.1373  1.5423
10096TIP3   OH254482   3.443   4.325  10.686  0.1226  0.2696  0.3978
10096TIP3    H154483   3.378   4.255  10.675 -0.8413  1.0409  0.9541
10096TIP3    H254484   3.476   4.313  10.775  0.9351 -0.2583  0.0380
10097TIP3   OH254485   6.546   4.667  10.085 -0.3495  0.1431 -0.1269
10097TIP3    H154486   6.604   4.722  10.138 -1.9213  1.5643  0.2162
10097TIP3    H254487   6.549   4.581  10.126 -0.2967  0.8123  1.3370
10098TIP3   OH254488   1.221   4.377   9.911  0.4467  0.0254 -0.5348
10098TIP3    H154489   1.302   4.326   9.915 -0.2199 -1.1959 -1.6170
10098TIP3    H254490   1.229   4.441   9.982  1.3508 -1.5679  0.8832
10099TIP3   OH254491   3.738   3.306  11.539 -0.6485 -0.5553 -0.0472
10099TIP3    H154492   3.768   3.276  11.453 -0.3733 -1.4628  0.3452
10099TIP3    H254493   3.742   3.227  11.594  1.4435  0.4857  1.4077
10100TIP3   OH254494   5.966   4.510  11.268  0.1393  0.2354 -0.4430
10100TIP3    H154495   5.935   4.455  11.196  2.4716  0.4482 -1.7077
10100TIP3    H254496   6.058   4.525  11.249  0.6658  0.9679  2.2093
10101TIP3   OH254497   0.275   0.062  11.602 -0.7153  0.1145  0.0953
10101TIP3    H154498   0.294   0.056  11.696 -1.7071 -0.0037  0.2998
10101TIP3    H254499   0.336   0.127  11.569  1.0230 -1.2656  0.4297
10102TIP3   OH254500   2.371   0.038  10.931 -0.1719 -0.3758  0.0268
10102TIP3    H154501   2.357   0.133  10.930 -0.0741 -0.3483  0.7832
10102TIP3    H254502   2.283   0.001  10.928 -0.2096 -0.2569 -0.2923
10103TIP3   OH254503   6.463   1.761   9.887 -0.1798 -0.2872 -0.5179
10103TIP3    H154504   6.412   1.842   9.877 -1.2132 -0.9051 -0.3760
10103TIP3    H254505   6.539   1.787   9.939 -1.0991  0.3540  0.5564
10104TIP3   OH254506   3.184   5.077  10.466 -0.1531 -0.0921  0.1361
10104TIP3    H154507   3.123   5.109  10.533  0.8191  0.6351  0.7027
10104TIP3    H254508   3.152   4.989  10.445 -0.1690 -0.5744  1.9886
10105TIP3   OH254509   3.049   2.585  10.610  0.4227 -0.6231 -0.0034
10105TIP3    H154510   3.035   2.618  10.521  1.3258 -0.2681 -0.0176
10105TIP3    H254511   3.111   2.513  10.600  0.8770 -0.2935  0.3808
10106TIP3   OH254512   0.567   5.973  12.485  0.0149 -0.5639  0.5337
10106TIP3    H154513   0.600   5.914  12.552  0.0866  0.0129  1.0210
10106TIP3    H254514   0.644   6.020  12.453  0.5052 -2.9282 -2.1484
10107TIP3   OH254515   5.887   4.331  12.113 -0.1125  0.4105  0.1959
10107TIP3    H154516   5.891   4.235  12.116 -0.6625  0.4010  1.5978
10107TIP3    H254517   5.908   4.353  12.023  3.2408 -0.8756  0.5044
10108TIP3   OH254518   0.277   5.231  10.302  0.0658 -0.5460 -0.4462
10108TIP3    H154519   0.267   5.307  10.245  1.4705  0.3999  0.4942
10108TIP3    H254520   0.260   5.156  10.246 -2.4734  0.4651 -1.1482
10109TIP3   OH254521   6.443   6.880  11.471 -0.2313  0.1573 -0.1477
10109TIP3    H154522   6.420   6.834  11.552  2.5100  1.1867  1.3190
10109TIP3    H254523   6.360   6.883  11.422 -1.8144 -1.2152  2.2060
10110TIP3   OH254524   1.531   2.461  11.394 -0.7493 -1.4701  0.0281
10110TIP3    H154525   1.504   2.551  11.411  0.5599 -1.2448  0.9638
10110TIP3    H254526   1.450   2.418  11.365 -1.9072 -0.5620  1.7171
10111TIP3   OH254527   7.336   3.121  11.539  0.2417 -0.4572 -0.1127
10111TIP3    H154528   7.317   3.121  11.633  2.1161 -1.5854  0.3378
10111TIP3    H254529   7.320   3.211  11.511  0.7277  0.1971  1.5604
10112TIP3   OH254530   1.743   1.734  10.852  0.0581 -0.7728 -0.0915
10112TIP3    H154531   1.762   1.753  10.944  0.1374 -0.5767 -0.1506
10112TIP3    H254532   1.816   1.771  10.803  0.1076 -1.0376 -0.2197
10113TIP3   OH254533   0.986   7.589  12.422  0.1915 -1.0478 -0.7225
10113TIP3    H154534   0.997   7.499  12.455 -0.1908 -0.1062  2.2603
10113TIP3    H254535   1.059   7.638  12.461 -2.4078  0.9336  2.1882
10114TIP3   OH254536   0.746   0.210  10.803  0.2969  0.5012  0.0660
10114TIP3    H154537   0.808   0.145  10.837  0.8646  0.8232 -0.3367
10114TIP3    H254538   0.664   0.191  10.848  0.4358 -0.5381 -0.0911
10115TIP3   OH254539   5.060   1.891  11.389  0.3801 -0.2287 -0.0627
10115TIP3    H154540   5.013   1.889  11.306 -0.2146 -0.8346  0.2779
10115TIP3    H254541   5.133   1.951  11.374 -0.8935  1.3173 -0.3835
10116TIP3   OH254542   2.848   1.569  10.102  0.2880 -0.6579  0.4635
10116TIP3    H154543   2.930   1.551  10.147  0.9584  1.4880  0.2144
10116TIP3    H254544   2.865   1.549  10.010  0.6036 -0.0934  0.3923
10117TIP3   OH254545   1.539   3.912  11.246  0.2359 -0.2565  0.3887
10117TIP3    H154546   1.597   3.988  11.255 -0.9947  0.5434  2.0282
10117TIP3    H254547   1.537   3.872  11.333  1.2817 -2.5660 -0.5512
10118TIP3   OH254548   6.803   3.361  10.949  0.0930  0.0629  0.0882
10118TIP3    H154549   6.719   3.319  10.966 -0.3692  0.8208 -0.2808
10118TIP3    H254550   6.805   3.435  11.010  1.3191 -1.0110  1.4131
10119TIP3   OH254551   5.345   3.426  10.328  0.1744 -0.8316 -0.9412
10119TIP3    H154552   5.411   3.452  10.391  0.0256 -0.8560 -0.7741
10119TIP3    H254553   5.262   3.438  10.374  0.0624 -0.7795 -1.1568
10120TIP3   OH254554   2.278   5.240  11.140 -0.0398  0.5923  0.3693
10120TIP3    H154555   2.276   5.247  11.045  0.9971  2.5941  0.4452
10120TIP3    H254556   2.218   5.168  11.160  0.7379 -0.7617 -1.8435
10121TIP3   OH254557   5.054   0.064  12.544 -0.5391 -0.2238  0.4319
10121TIP3    H154558   4.984  -0.002  12.552 -0.4609 -0.3332  0.2210
10121TIP3    H254559   5.120   0.037  12.607  0.8734 -2.0788 -1.6962
10122TIP3   OH254560   7.190   0.972   9.841 -0.0164  0.8734  0.9138
10122TIP3    H154561   7.142   0.979   9.923 -0.8379  1.5379  0.3881
10122TIP3    H254562   7.133   0.919   9.785  1.4357 -1.3389  1.4024
10123TIP3   OH254563   5.934   0.547  10.378  0.3335  0.0009 -0.5181
10123TIP3    H154564   5.953   0.613  10.444 -0.6501 -1.3099  1.1534
10123TIP3    H254565   6.005   0.556  10.314  0.6358  2.1363  0.0312
10124TIP3   OH254566   2.891   2.561  12.331  0.7361 -0.1681 -0.7173
10124TIP3    H154567   2.822   2.572  12.265 -0.0318  1.6511  0.3340
10124TIP3    H254568   2.969   2.600  12.291  0.5540 -0.0592 -0.9714
10125TIP3   OH254569   2.154   1.984  12.369  0.6885  0.1657  0.0032
10125TIP3    H154570   2.084   2.049  12.360 -0.1576 -0.7707 -0.3079
10125TIP3    H254571   2.222   2.014  12.309 -0.1313  0.2076 -0.9240
10126TIP3   OH254572   5.667   3.006  11.380  0.6798 -0.0209  0.3831
10126TIP3    H154573   5.668   2.925  11.431  0.0616 -1.2273 -1.4181
10126TIP3    H254574   5.754   3.045  11.395  0.7293 -0.6242  1.8369
10127TIP3   OH254575   4.272   3.776  10.068  0.7152  0.0141  0.1358
10127TIP3    H154576   4.247   3.726   9.990 -1.1916 -0.4696  0.9792
10127TIP3    H254577   4.332   3.718  10.115  1.7365  0.2344 -0.8511
10128TIP3   OH254578   3.520   3.308  10.227  0.5396 -0.6597 -0.2052
10128TIP3    H154579   3.564   3.329  10.309  1.2279 -0.2559 -0.6738
10128TIP3    H254580   3.433   3.347  10.236  0.4949 -0.8856  0.4501
10129TIP3   OH254581   4.361   0.857  11.811  0.4311  0.4506  0.1897
10129TIP3    H154582   4.329   0.775  11.774  0.0859  0.4351  0.5227
10129TIP3    H254583   4.437   0.879  11.757 -0.2759  0.6205 -0.7533
10130TIP3   OH254584   3.959   4.391  11.330  0.0952  0.1558 -0.4107
10130TIP3    H154585   4.050   4.373  11.306  0.0814 -0.4244 -0.0692
10130TIP3    H254586   3.947   4.344  11.413  0.0918  1.9054  0.6405
10131TIP3   OH254587   1.009   0.460  12.604  0.9570 -0.0674  0.1812
10131TIP3    H154588   0.984   0.451  12.696  0.4181 -0.1140  0.0342
10131TIP3    H254589   1.027   0.554  12.594 -1.7271  0.4851 -0.3160
10132TIP3   OH254590   3.079   3.795  10.286 -0.0449  0.2652  0.0936
10132TIP3    H154591   3.145   3.795  10.355 -1.0650  1.3822  1.1124
10132TIP3    H254592   3.094   3.876  10.238  0.1706 -0.1400 -0.5465
10133TIP3   OH254593   5.658   7.641  10.021 -0.0340  0.2321  0.7259
10133TIP3    H154594   5.569   7.619  10.049 -0.5860 -1.2676 -1.9180
10133TIP3    H254595   5.680   7.719  10.072 -2.3884 -0.0292  2.3085
10134TIP3   OH254596   2.605   7.342  11.823  0.1723 -0.1117 -0.0452
10134TIP3    H154597   2.682   7.398  11.807 -0.8177  1.5738  0.7183
10134TIP3    H254598   2.611   7.320  11.916 -0.2566  0.0205  0.0155
10135TIP3   OH254599   6.152   5.426  11.945  0.1479 -0.0155 -1.2226
10135TIP3    H154600   6.093   5.501  11.955 -0.3839 -0.3192 -1.9371
10135TIP3    H254601   6.170   5.396  12.034  0.1140  0.7701 -0.9507
10136TIP3   OH254602   2.722   6.813  11.800 -0.0643 -0.1618 -0.1954
10136TIP3    H154603   2.626   6.810  11.794  0.0478 -1.8248 -2.1120
10136TIP3    H254604   2.739   6.878  11.868 -2.5106  1.7805 -1.2406
10137TIP3   OH254605   2.819   2.750  11.234 -0.1119  0.2393  0.4124
10137TIP3    H154606   2.894   2.752  11.293  1.5240  0.0276 -1.5411
10137TIP3    H254607   2.836   2.822  11.172 -1.3370 -0.0363 -0.2746
10138TIP3   OH254608   5.500   6.304  12.387 -0.7082 -0.7297  0.5521
10138TIP3    H154609   5.533   6.317  12.476  0.9657 -2.0298  0.1693
10138TIP3    H254610   5.492   6.392  12.351 -0.7076 -0.2303  1.7343
10139TIP3   OH254611   4.231   4.518  10.200  0.3648  0.2241  0.0149
10139TIP3    H154612   4.240   4.587  10.135  2.0626  0.1379  0.1170
10139TIP3    H254613   4.213   4.565  10.282 -0.7178  0.3881 -0.2985
10140TIP3   OH254614   2.172   0.552  11.445  0.1636 -0.2802 -0.3303
10140TIP3    H154615   2.183   0.483  11.511  1.0456 -0.2722 -0.4549
10140TIP3    H254616   2.182   0.634  11.494  0.1623 -0.2601 -0.3632
10141TIP3   OH254617   1.342   6.807  11.572  0.2398 -0.8244  0.0120
10141TIP3    H154618   1.342   6.851  11.487 -1.6119  0.4171  0.5823
10141TIP3    H254619   1.410   6.852  11.622 -0.8263  0.6679  0.1901
10142TIP3   OH254620   5.055   0.979  10.922 -0.4829  0.4148  0.3997
10142TIP3    H154621   5.071   1.043  10.853 -0.3017 -0.4097 -0.3474
10142TIP3    H254622   4.984   1.016  10.974 -0.1930  1.3439  0.1478
10143TIP3   OH254623   7.136   1.376  11.670  0.6520 -0.1698  0.2141
10143TIP3    H154624   7.149   1.457  11.621  2.0275 -0.4684  0.0554
10143TIP3    H254625   7.138   1.403  11.761 -1.7962  0.3712  0.1798
10144TIP3   OH254626   4.296   1.815  10.729  0.3865 -0.3473 -0.5155
10144TIP3    H154627   4.208   1.844  10.704  0.3512 -0.1062 -0.1247
10144TIP3    H254628   4.348   1.823  10.649  0.1223 -0.2153 -0.6767
10145TIP3   OH254629   7.210   2.972  12.122  0.1841 -0.8008 -0.2187
10145TIP3    H154630   7.143   2.921  12.077  0.6950 -1.1525 -0.5716
10145TIP3    H254631   7.277   2.988  12.057 -0.4261  1.2127 -0.4309
10146TIP3   OH254632   6.784   1.608   9.943  0.2762  0.0414 -0.3261
10146TIP3    H154633   6.757   1.699   9.944 -0.4156 -0.1605 -0.2196
10146TIP3    H254634   6.710   1.561   9.905  1.3116 -0.2622 -2.1013
10147TIP3   OH254635   0.853   2.563  12.447  0.0929  0.1598  0.7750
10147TIP3    H154636   0.840   2.654  12.474 -0.0728  0.0737  0.9767
10147TIP3    H254637   0.948   2.557  12.430 -0.1198  0.8318 -0.8953
10148TIP3   OH254638   0.955   3.705  11.323 -0.2184  0.2033  0.3000
10148TIP3    H154639   0.990   3.683  11.409  2.7540  2.5422 -0.1416
10148TIP3    H254640   0.904   3.785  11.337 -1.5851 -0.6000  0.1538
10149TIP3   OH254641   3.666   5.773  11.127  0.0881 -0.1812 -0.0105
10149TIP3    H154642   3.705   5.846  11.078  2.2415 -0.8246  0.6393
10149TIP3    H254643   3.716   5.769  11.208 -0.6047 -1.8178  0.3659
10150TIP3   OH254644   1.116   2.557  12.358 -0.2891 -0.1946  0.3095
10150TIP3    H154645   1.178   2.524  12.424  1.9559  2.2866 -0.3888
10150TIP3    H254646   1.170   2.576  12.281 -2.4264 -0.5833 -1.3835
10151TIP3   OH254647   5.599   5.014  10.064  0.0117 -0.7450 -0.0059
10151TIP3    H154648   5.563   4.936  10.105 -1.0929  0.2259  0.9273
10151TIP3    H254649   5.525   5.053  10.017  0.4926 -0.1251 -0.2677
10152TIP3   OH254650   0.729   4.216  12.548 -0.9186 -0.5439 -0.1383
10152TIP3    H154651   0.664   4.151  12.573 -0.6222 -0.6462  0.3833
10152TIP3    H254652   0.730   4.278  12.621 -0.2368 -0.6940 -0.0099
10153TIP3   OH254653   7.543   3.775  11.871  0.2514  0.0102  0.2814
10153TIP3    H154654   7.471   3.715  11.850 -1.1862  0.7150  2.7717
10153TIP3    H254655   7.616   3.717  11.894 -0.4375 -0.7620  0.5711
10154TIP3   OH254656   6.114   5.199  10.106 -0.3961 -0.2575  0.9909
10154TIP3    H154657   6.152   5.111  10.108 -0.1435 -0.1697  0.2545
10154TIP3    H254658   6.019   5.184  10.109 -0.4017 -0.6240 -0.5146
10155TIP3   OH254659   3.230   5.554  10.017 -0.1397 -0.4382  0.1359
10155TIP3    H154660   3.183   5.492   9.961 -0.1115  1.9431 -2.7736
10155TIP3    H254661   3.318   5.518  10.024 -0.8506 -2.1319  1.0009
10156TIP3   OH254662   7.422   4.843  12.475 -0.2471  0.0525  0.5503
10156TIP3    H154663   7.356   4.888  12.527  2.0269 -0.1784  3.9129
10156TIP3    H254664   7.464   4.782  12.535  1.0562 -2.0324 -2.2266
10157TIP3   OH254665   6.150   2.131  12.006  0.1726 -0.1350  0.1294
10157TIP3    H154666   6.088   2.090  11.945  1.4687  1.6460 -2.6035
10157TIP3    H254667   6.097   2.195  12.054 -0.3701  0.6137 -1.4037
10158TIP3   OH254668   6.221   1.447  11.845 -0.5622 -0.1983  0.3304
10158TIP3    H154669   6.186   1.366  11.883  0.1239 -0.0603  1.3146
10158TIP3    H254670   6.151   1.511  11.858 -0.7321 -0.4054  0.4514
10159TIP3   OH254671   3.170   4.252  10.297  0.6153  0.4197  0.2357
10159TIP3    H154672   3.235   4.296  10.241  1.0597 -0.2054  0.2546
10159TIP3    H254673   3.125   4.324  10.341 -0.6612  1.0163 -1.8951
10160TIP3   OH254674   4.562   0.368  10.039  0.0638 -0.6023  0.5987
10160TIP3    H154675   4.655   0.346  10.037  0.2835  0.2905  0.7688
10160TIP3    H254676   4.544   0.404   9.952 -0.1254 -0.7845  0.5628
10161TIP3   OH254677   1.214   7.455  11.765  0.2363 -0.6777 -0.3645
10161TIP3    H154678   1.194   7.362  11.780  0.2589 -0.5256  0.6419
10161TIP3    H254679   1.309   7.456  11.750  0.1866 -0.8517 -0.7110
10162TIP3   OH254680   5.829   7.073   9.851  0.2034 -0.0015 -0.2767
10162TIP3    H154681   5.779   6.995   9.827 -2.3280  1.6808 -0.9203
10162TIP3    H254682   5.845   7.064   9.944 -0.7613 -0.9406 -0.1865
10163TIP3   OH254683   1.132   6.511   9.984 -0.2668 -0.4320 -0.7954
10163TIP3    H154684   1.064   6.576   9.962 -0.2559  0.0608  0.5608
10163TIP3    H254685   1.099   6.429   9.947 -1.9850 -0.3692  0.4856
10164TIP3   OH254686   4.691   6.962  10.529  0.5512 -0.5372  0.5624
10164TIP3    H154687   4.739   6.894  10.481  1.4329  0.0585  0.5721
10164TIP3    H254688   4.599   6.944  10.511  0.8083 -1.2806 -0.0523
10165TIP3   OH254689   1.068   3.139  11.179  0.2595 -0.2988 -0.4352
10165TIP3    H154690   1.077   3.225  11.220  0.0307  0.0941 -1.1940
10165TIP3    H254691   0.988   3.146  11.128  0.5985 -0.7484 -1.0284
10166TIP3   OH254692   3.503   1.094  11.361  0.3390  0.1577 -0.2521
10166TIP3    H154693   3.587   1.050  11.361  0.0212 -0.4968 -1.5705
10166TIP3    H254694   3.510   1.161  11.293  0.4238  1.4361  0.9410
10167TIP3   OH254695   7.520   2.054  10.027 -0.3615 -0.2403 -0.2864
10167TIP3    H154696   7.568   2.031   9.947  0.0449  0.1884 -0.1714
10167TIP3    H254697   7.460   2.123  10.000 -0.3293 -0.2006 -0.2583
10168TIP3   OH254698   1.583   1.714  11.904  0.1284  0.1007  0.5679
10168TIP3    H154699   1.605   1.705  11.997  0.8130 -2.9548  0.2319
10168TIP3    H254700   1.497   1.672  11.895  0.8303 -1.2244 -0.3875
10169TIP3   OH254701   7.540   6.106  10.189 -0.4213 -0.5177 -0.4303
10169TIP3    H154702   7.603   6.048  10.145 -1.4754 -0.5357 -2.0078
10169TIP3    H254703   7.493   6.048  10.249 -0.7949 -1.1242 -1.2781
10170TIP3   OH254704   7.279   7.240  10.225 -0.3255  0.5141 -0.0153
10170TIP3    H154705   7.321   7.156  10.247 -0.2744  0.4678 -0.2929
10170TIP3    H254706   7.240   7.225  10.139  0.3819  1.0317 -0.4341
10171TIP3   OH254707   1.388   0.771  10.431 -0.9972  0.3976  0.1449
10171TIP3    H154708   1.458   0.783  10.495 -0.3494  0.6396 -0.5898
10171TIP3    H254709   1.307   0.787  10.480 -0.5202  0.4263  0.9309
10172TIP3   OH254710   5.579   0.750  10.487  0.3398  0.2862  0.0805
10172TIP3    H154711   5.655   0.757  10.429  1.0387  1.0408  1.0455
10172TIP3    H254712   5.615   0.716  10.569 -0.7777 -1.6033 -0.1664
10173TIP3   OH254713   0.685   2.164  10.704  0.0000  0.0857  0.3183
10173TIP3    H154714   0.618   2.177  10.771  0.6295  0.0301  0.9667
10173TIP3    H254715   0.753   2.229  10.725  0.3725 -0.1805 -0.0431
10174TIP3   OH254716   0.475   0.418  10.903 -0.3054  0.7050  0.4055
10174TIP3    H154717   0.387   0.439  10.871 -0.1083  1.1159  0.1232
10174TIP3    H254718   0.463   0.397  10.995 -0.5609  1.7943  0.6292
10175TIP3   OH254719   6.737   2.012  10.812  0.1866  0.1566  0.2918
10175TIP3    H154720   6.683   2.059  10.748 -0.6013 -0.7981  0.2255
10175TIP3    H254721   6.705   1.922  10.808  2.3502 -0.6536 -0.3602
10176TIP3   OH254722   7.164   0.764  11.035 -0.1943 -0.1374  0.8489
10176TIP3    H154723   7.092   0.705  11.056  0.1494 -0.9829 -0.2066
10176TIP3    H254724   7.125   0.833  10.982 -0.7363  1.0354  2.6980
10177TIP3   OH254725   3.387   1.871  11.518  0.1869 -0.7313  0.1904
10177TIP3    H154726   3.434   1.881  11.435 -0.3628  1.9781  0.1075
10177TIP3    H254727   3.298   1.901  11.498  0.1452  0.3591  1.8271
10178TIP3   OH254728   4.856   5.773  10.952 -0.4181 -0.7460 -0.3349
10178TIP3    H154729   4.926   5.838  10.952 -0.0132 -1.1720 -0.6816
10178TIP3    H254730   4.776   5.824  10.953 -0.1653 -0.1615 -2.6080
10179TIP3   OH254731   0.067   4.371  11.396 -0.1118 -0.0470  0.0505
10179TIP3    H154732   0.120   4.356  11.317  0.5193  0.3879  0.3844
10179TIP3    H254733  -0.022   4.379  11.364  0.3589  2.1893 -0.8740
10180TIP3   OH254734   2.439   0.863  12.305 -0.1875  0.1967  0.0935
10180TIP3    H154735   2.408   0.834  12.220  0.0712 -0.0094  0.0674
10180TIP3    H254736   2.531   0.889  12.290  0.4323 -1.5402  0.6672
10181TIP3   OH254737   0.267   1.369  11.673  0.0780  0.0680  0.0666
10181TIP3    H154738   0.250   1.461  11.651 -0.9767 -0.4426 -1.4029
10181TIP3    H254739   0.359   1.367  11.698  0.5865  1.2622 -1.5302
10182TIP3   OH254740   1.220   5.242  10.888  0.4585 -0.3570  0.3469
10182TIP3    H154741   1.308   5.261  10.921  0.1166  2.0794  0.0999
10182TIP3    H254742   1.161   5.282  10.952 -0.4168 -0.6869 -0.2357
10183TIP3   OH254743   3.234   5.004  11.668 -0.7532 -0.3245  0.2963
10183TIP3    H154744   3.300   4.938  11.647 -0.4055 -0.6388  2.1803
10183TIP3    H254745   3.156   4.953  11.690 -1.3679  0.0191 -0.9693
10184TIP3   OH254746   6.370   1.815  12.542  0.0003  0.1821 -0.3056
10184TIP3    H154747   6.288   1.862  12.556  0.5347  0.6776  1.5398
10184TIP3    H254748   6.393   1.781  12.629  1.6028 -0.1759 -0.8252
10185TIP3   OH254749   4.166   1.487  11.226 -0.3065 -0.2072  0.3184
10185TIP3    H154750   4.167   1.413  11.287  0.6815  0.2915  0.9283
10185TIP3    H254751   4.245   1.536  11.247 -0.2879  0.3355 -0.9384
10186TIP3   OH254752   3.145   2.020  10.653  0.3505  0.4839 -0.0325
10186TIP3    H154753   3.156   2.114  10.641  0.3154  0.2958 -1.8006
10186TIP3    H254754   3.215   1.981  10.600 -2.5476 -0.5514 -3.4856
10187TIP3   OH254755   6.037   1.268  11.975  0.4353  0.3729 -0.5117
10187TIP3    H154756   5.953   1.280  11.930  0.8317 -0.8041 -1.6149
10187TIP3    H254757   6.017   1.282  12.067 -0.7004  1.4167 -0.8890
10188TIP3   OH254758   2.923   0.309   9.581  0.0079  0.0519  0.4391
10188TIP3    H154759   2.944   0.371   9.650  0.7445 -1.9584  2.1126
10188TIP3    H254760   2.873   0.360   9.517  0.1868  2.2196  1.9419
10189TIP3   OH254761   4.128   2.893  10.807  0.1841  0.6516 -0.0535
10189TIP3    H154762   4.134   2.921  10.899 -1.0780 -1.8393  0.8759
10189TIP3    H254763   4.171   2.808  10.806 -1.3954 -0.1663 -1.3698
10190TIP3   OH254764   6.206   2.201  10.485 -0.0706  0.7044 -0.1979
10190TIP3    H154765   6.193   2.240  10.399 -1.4528 -0.1807 -0.4231
10190TIP3    H254766   6.176   2.268  10.546 -0.9419  0.6102 -0.5082
10191TIP3   OH254767   2.589   0.697  10.634 -0.2199  0.4455  0.5431
10191TIP3    H154768   2.642   0.621  10.611 -1.9885 -0.4647 -0.7812
10191TIP3    H254769   2.549   0.673  10.718 -1.1757 -0.3731 -0.1129
10192TIP3   OH254770   7.323   2.223  11.881  0.1432  0.2637  0.3133
10192TIP3    H154771   7.293   2.312  11.899 -0.2036  0.3068 -0.4055
10192TIP3    H254772   7.417   2.232  11.864  0.1303  0.4782  0.3535
10193TIP3   OH254773   6.408   2.966  11.767  0.6653  0.0180 -0.4297
10193TIP3    H154774   6.415   2.880  11.725  1.4779  0.5798 -1.4967
10193TIP3    H254775   6.436   2.951  11.857 -0.0855 -1.0078 -0.3468
10194TIP3   OH254776   5.999   5.173  10.694  0.0831 -0.1364 -0.1701
10194TIP3    H154777   5.985   5.267  10.710 -0.8699 -0.4128  0.7234
10194TIP3    H254778   5.914   5.133  10.714  0.3057 -1.1208 -1.1514
10195TIP3   OH254779   5.737   0.200  11.005 -0.1949  0.0433  0.0503
10195TIP3    H154780   5.716   0.216  10.913  0.5841  3.1341  0.3209
10195TIP3    H254781   5.827   0.229  11.015  0.0753 -1.1828  1.6192
10196TIP3   OH254782   5.487   1.653  12.576 -0.0065  0.0418  0.6149
10196TIP3    H154783   5.458   1.660  12.485 -0.3429  0.3326  0.7418
10196TIP3    H254784   5.459   1.735  12.616  0.7480  0.2011  0.8170
10197TIP3   OH254785   4.890   5.631  11.193 -0.5337  0.1455  0.5023
10197TIP3    H154786   4.878   5.656  11.101  0.1003  0.0301  0.3854
10197TIP3    H254787   4.803   5.604  11.222 -0.9817  1.3435  0.2936
10198TIP3   OH254788   6.009   6.489  10.478  0.3585  0.5692 -0.1603
10198TIP3    H154789   5.929   6.542  10.485  0.0869 -0.0174  1.5897
10198TIP3    H254790   6.022   6.479  10.383 -2.0386  0.0956 -0.5209
10199TIP3   OH254791   2.595   1.823  10.740  0.0298 -0.3966 -0.5272
10199TIP3    H154792   2.654   1.820  10.665  0.7911 -1.2835  0.0848
10199TIP3    H254793   2.581   1.731  10.764  2.2376 -0.1688  2.2326
10200TIP3   OH254794   0.649   1.121  11.473 -0.2936  0.4771 -0.2063
10200TIP3    H154795   0.710   1.058  11.513  0.5717 -0.4938 -2.8422
10200TIP3    H254796   0.623   1.080  11.391 -1.8946  2.3944 -0.7322
10201TIP3   OH254797   5.845   0.023  11.760 -0.4022  0.4335  0.0397
10201TIP3    H154798   5.868   0.115  11.766 -1.3907  0.7153 -0.2457
10201TIP3    H254799   5.881  -0.016  11.840  0.3497  0.9886 -0.0239
10202TIP3   OH254800   6.886   4.725  10.272 -0.0482  0.3014  0.4351
10202TIP3    H154801   6.929   4.682  10.198  0.3249 -0.9020  1.3219
10202TIP3    H254802   6.822   4.785  10.232  0.0147 -0.4658 -0.8468
10203TIP3   OH254803   7.305   5.924  11.070  0.0194  0.3810  0.3021
10203TIP3    H154804   7.356   5.847  11.096 -0.5273 -0.2383 -0.4309
10203TIP3    H254805   7.244   5.892  11.003 -1.5618  1.0315  1.3639
10204TIP3   OH254806   2.581   6.441  11.087  0.6299 -0.5131  0.1098
10204TIP3    H154807   2.515   6.507  11.107 -0.8533 -2.0561  0.5467
10204TIP3    H254808   2.663   6.491  11.078 -0.2552  1.2590  1.2592
10205TIP3   OH254809   3.318   5.995  10.250 -0.3348 -0.1864  0.2919
10205TIP3    H154810   3.382   6.036  10.192  0.4849 -0.2695  1.1132
10205TIP3    H254811   3.272   6.068  10.291 -0.7415 -0.1257 -0.2642
10206TIP3   OH254812   6.628   5.674  12.444 -0.0884 -0.2797 -0.4866
10206TIP3    H154813   6.557   5.738  12.446 -0.3492 -0.5842  0.6899
10206TIP3    H254814   6.655   5.665  12.536  1.4312 -0.2133 -0.9125
10207TIP3   OH254815   5.997   0.673  11.926 -0.0551 -0.3424 -0.3899
10207TIP3    H154816   5.963   0.594  11.884  1.6204 -0.6791 -1.1821
10207TIP3    H254817   5.995   0.740  11.857  0.5444 -0.2763 -0.3478
10208TIP3   OH254818   5.377   4.357  11.510 -0.4584  0.6481  0.2710
10208TIP3    H154819   5.326   4.277  11.515 -1.8946  1.5159  0.0334
10208TIP3    H254820   5.424   4.361  11.593 -0.6835 -0.2371  0.4464
10209TIP3   OH254821   4.298   7.663  12.171 -0.1213  0.1572 -0.4725
10209TIP3    H154822   4.338   7.591  12.123  1.7317  1.7083 -1.3796
10209TIP3    H254823   4.370   7.704  12.219 -1.0246  1.6222 -0.2778
10210TIP3   OH254824   7.497   4.589  10.108 -0.1602  0.4742 -0.4154
10210TIP3    H154825   7.545   4.510  10.083 -2.6256 -0.8432 -1.2162
10210TIP3    H254826   7.527   4.607  10.197 -0.1641 -1.9006  0.1275
10211TIP3   OH254827   1.608   1.507  10.573 -0.2155 -0.0718  0.0291
10211TIP3    H154828   1.642   1.422  10.546  0.8064  0.6239 -0.9459
10211TIP3    H254829   1.668   1.538  10.641  0.9234  0.9416 -1.3594
10212TIP3   OH254830   6.121   3.620  11.536  0.6517  0.2129 -0.6681
10212TIP3    H154831   6.090   3.710  11.548  1.4089  0.2914  0.8996
10212TIP3    H254832   6.064   3.584  11.468 -0.9817  1.2661  0.0825
10213TIP3   OH254833   1.265   2.665  11.222 -0.2992 -0.2407  0.4883
10213TIP3    H154834   1.334   2.731  11.235  0.6891 -1.6183  2.9537
10213TIP3    H254835   1.185   2.711  11.245  0.1350  0.6441  0.2849
10214TIP3   OH254836   2.504   7.071  12.735 -0.1047  0.2544  0.3724
10214TIP3    H154837   2.500   7.156  12.692 -3.8526  0.2452  0.3341
10214TIP3    H254838   2.541   7.012  12.670  0.3209  1.3996 -0.4546
10215TIP3   OH254839   5.628   5.486  10.439  0.3789 -0.8201 -0.4485
10215TIP3    H154840   5.617   5.581  10.436 -0.9132 -0.9713 -1.7858
10215TIP3    H254841   5.548   5.454  10.480  0.6868 -1.3442 -0.2520
10216TIP3   OH254842   6.369   3.571  10.610  0.1369  0.5570  0.1849
10216TIP3    H154843   6.399   3.650  10.657  0.7863  1.6934 -1.9830
10216TIP3    H254844   6.448   3.537  10.569 -0.3279 -0.6624  0.2811
10217TIP3   OH254845   2.575   4.816  12.529  0.5396  0.0466  0.0595
10217TIP3    H154846   2.586   4.748  12.595  0.8760  2.3362  2.5453
10217TIP3    H254847   2.665   4.842  12.507  0.4102  0.1340 -0.3725
10218TIP3   OH254848   0.094   1.275  12.049  0.0935 -0.3334  0.7445
10218TIP3    H154849   0.058   1.339  12.110  0.9658  0.1281  0.7771
10218TIP3    H254850   0.096   1.193  12.099  0.4955 -0.0299  1.2276
10219TIP3   OH254851   4.740   5.285  11.532  0.0907 -0.7951  0.3939
10219TIP3    H154852   4.671   5.306  11.595  0.4860  1.3466  0.2089
10219TIP3    H254853   4.787   5.211  11.572 -0.7736 -0.6655  1.7315
10220TIP3   OH254854   3.016   1.636  10.626 -0.0653 -0.1948  0.3398
10220TIP3    H154855   2.995   1.549  10.660 -1.6817  0.1272  0.2666
10220TIP3    H254856   3.073   1.675  10.692  0.6446 -1.2896  0.3899
10221TIP3   OH254857   7.488   0.709  11.939 -0.2945  0.3061 -0.3628
10221TIP3    H154858   7.493   0.804  11.932 -3.1828  0.5014 -1.0414
10221TIP3    H254859   7.483   0.693  12.033 -1.1811  0.9545 -0.2883
10222TIP3   OH254860   1.053   0.810   9.993  0.0955  0.2174 -0.5006
10222TIP3    H154861   1.078   0.742  10.056 -0.2562  0.0935 -0.4903
10222TIP3    H254862   1.034   0.762   9.912 -0.5163  0.2607 -0.3889
10223TIP3   OH254863   5.637   0.092  12.667 -0.0915 -0.2202  0.6834
10223TIP3    H154864   5.620   0.186  12.679  1.2646  0.4946 -2.0784
10223TIP3    H254865   5.653   0.059  12.755  1.4065  2.6158  1.6192
10224TIP3   OH254866   2.256   0.958  12.793  0.6454 -0.0662 -0.2489
10224TIP3    H154867   2.211   1.036  12.827  1.2162  0.3402 -0.4233
10224TIP3    H254868   2.260   0.971  12.699  0.0701 -0.6680 -0.3655
10225TIP3   OH254869   6.313   4.197  10.736 -0.4196  0.2394  0.4574
10225TIP3    H154870   6.308   4.246  10.654  0.3913  0.0751  0.2999
10225TIP3    H254871   6.245   4.236  10.791 -0.3835  0.9432  0.0210
10226TIP3   OH254872   4.487   1.509  10.123 -0.1730 -0.5901 -0.9738
10226TIP3    H154873   4.462   1.600  10.107 -2.5692 -0.8113  1.0810
10226TIP3    H254874   4.578   1.515  10.153  0.1393  0.9492 -2.0613
10227TIP3   OH254875   2.262   5.909  11.272 -0.4665 -0.8278 -0.4618
10227TIP3    H154876   2.307   5.978  11.223 -2.0763 -0.4517 -1.4876
10227TIP3    H254877   2.332   5.853  11.304  0.7097 -0.9565 -2.9992
10228TIP3   OH254878   5.955   4.817  11.349 -0.1693 -0.4926 -0.0893
10228TIP3    H154879   6.023   4.752  11.333 -0.6165 -0.8454 -0.6280
10228TIP3    H254880   5.873   4.769  11.333 -0.4699  0.8283 -2.9936
10229TIP3   OH254881   6.699   5.735  12.697  0.5339 -0.4468  0.2872
10229TIP3    H154882   6.647   5.687  12.762 -0.0738  2.0521  1.8076
10229TIP3    H254883   6.653   5.818  12.687  0.6103 -0.7286 -3.4842
10230TIP3   OH254884   7.386   6.849  11.116  0.0632  0.5096 -0.4041
10230TIP3    H154885   7.306   6.809  11.081  0.3137 -0.2525 -0.1397
10230TIP3    H254886   7.431   6.883  11.039  0.9214 -1.7077 -0.9737
10231TIP3   OH254887   6.535   0.961  10.703  0.6099  0.2109  0.0783
10231TIP3    H154888   6.453   0.914  10.720  1.6579 -1.9041 -0.4304
10231TIP3    H254889   6.537   1.030  10.770  0.1330 -1.9618  2.4883
10232TIP3   OH254890   0.038   6.141  10.565  0.0689  0.0829 -0.0250
10232TIP3    H154891   0.038   6.191  10.647 -1.1642 -2.2447  1.5092
10232TIP3    H254892  -0.052   6.110  10.556  0.3033 -0.1620 -2.0146
10233TIP3   OH254893   7.507   0.989  11.912  0.2425 -0.4055  0.3399
10233TIP3    H154894   7.496   1.033  11.996 -0.7954 -0.4627  0.2466
10233TIP3    H254895   7.439   1.026  11.856  0.4721 -0.8723 -0.2681
10234TIP3   OH254896   3.129   5.744  12.129 -0.8536 -0.2438  0.2837
10234TIP3    H154897   3.223   5.741  12.145 -0.8139  1.1672  0.4775
10234TIP3    H254898   3.090   5.697  12.203 -0.3521  0.4223  0.9922
10235TIP3   OH254899   0.273   4.568  11.449 -0.2142  0.3347 -0.0160
10235TIP3    H154900   0.196   4.516  11.471 -0.2795 -0.2462 -1.4910
10235TIP3    H254901   0.348   4.513  11.473 -0.2820 -0.5932 -1.8015
10236TIP3   OH254902   0.248   0.339  11.354 -0.5728  0.0044 -0.3389
10236TIP3    H154903   0.234   0.432  11.372  0.7581  0.1350  0.1051
10236TIP3    H254904   0.291   0.305  11.433 -0.7589 -0.9289 -0.6204
10237TIP3   OH254905   7.480   4.846  11.811 -0.1459  0.8176 -0.3161
10237TIP3    H154906   7.507   4.913  11.748  0.1924  0.9644 -0.0177
10237TIP3    H254907   7.540   4.857  11.885 -0.7095  0.8100  0.1432
10238TIP3   OH254908   3.700   6.601  10.833  0.2620  0.2835  0.4646
10238TIP3    H154909   3.643   6.669  10.798  1.7711  1.9147  1.0643
10238TIP3    H254910   3.743   6.641  10.908 -0.0859 -1.9185  1.9456
10239TIP3   OH254911   6.082   3.641  11.255 -0.1397  0.2859 -0.0624
10239TIP3    H154912   6.177   3.644  11.247  0.0435 -0.6554  1.2762
10239TIP3    H254913   6.053   3.731  11.239  1.0176  0.6700 -0.0795
10240TIP3   OH254914   2.022   0.496  11.727 -0.0129 -0.4801 -0.1170
10240TIP3    H154915   1.988   0.467  11.812  0.5508  1.4969  0.8679
10240TIP3    H254916   1.953   0.554  11.693  0.6088  0.3507 -0.0036
10241TIP3   OH254917   7.465   3.970  11.214  0.1777 -0.0489  0.3994
10241TIP3    H154918   7.413   4.047  11.236 -0.9508 -0.7454  0.2644
10241TIP3    H254919   7.475   3.922  11.296 -3.0887 -2.0761 -0.1802
10242TIP3   OH254920   6.269   3.980  11.589  0.0717 -0.2711  0.5205
10242TIP3    H154921   6.331   3.967  11.518 -0.0638  2.5780 -0.2288
10242TIP3    H254922   6.186   3.945  11.556  0.2515  0.0825 -0.3180
10243TIP3   OH254923   3.528   3.628  11.304  0.2438 -0.0370  0.0423
10243TIP3    H154924   3.483   3.545  11.320  0.5491  0.1118  1.9169
10243TIP3    H254925   3.484   3.665  11.228 -1.3196 -0.9290  0.4620
10244TIP3   OH254926   5.291   6.246  11.809 -0.4223  0.4353 -0.3021
10244TIP3    H154927   5.348   6.171  11.826 -2.4340 -0.9931  0.5284
10244TIP3    H254928   5.253   6.267  11.894 -1.1465  1.3315 -0.8237
10245TIP3   OH254929   6.895   6.895  11.748 -0.1190 -0.0898 -0.3210
10245TIP3    H154930   6.905   6.830  11.679  0.1834  0.0702 -0.4287
10245TIP3    H254931   6.835   6.855  11.810  0.2545 -0.5689 -0.2657
10246TIP3   OH254932   2.203   0.181  10.190 -0.0678  0.6634 -0.0427
10246TIP3    H154933   2.146   0.131  10.132 -0.6417  1.7641 -0.4386
10246TIP3    H254934   2.233   0.255  10.137  1.3878  0.3484  0.2889
10247TIP3   OH254935   1.488   3.635  11.230 -0.2372  0.2723 -0.6909
10247TIP3    H154936   1.474   3.730  11.235 -1.9535  0.1233 -1.7631
10247TIP3    H254937   1.577   3.626  11.195 -0.2359  1.4865 -1.0529
10248TIP3   OH254938   7.044   7.436  10.645  0.4983 -0.2007 -0.1361
10248TIP3    H154939   6.973   7.491  10.612  0.2782 -0.7249 -0.5546
10248TIP3    H254940   7.063   7.375  10.574  3.1283  1.5185 -1.0591
10249TIP3   OH254941   3.381   7.087  11.160  0.2253  0.3038  0.5298
10249TIP3    H154942   3.449   7.141  11.200  1.6074  0.8402 -2.3112
10249TIP3    H254943   3.308   7.147  11.144  1.3545  1.1680 -1.6552
10250TIP3   OH254944   1.418   1.148  11.135  0.7202 -0.2394 -0.0736
10250TIP3    H154945   1.350   1.209  11.163 -0.3240 -1.2722 -0.2530
10250TIP3    H254946   1.483   1.202  11.091  0.2818  0.8499  0.5899
10251TIP3   OH254947   1.585   3.264  12.311 -0.6471 -0.1995 -0.6082
10251TIP3    H154948   1.512   3.207  12.337 -0.0183 -0.6526  0.2167
10251TIP3    H254949   1.663   3.221  12.345 -0.0406  0.5771 -0.9671
10252TIP3   OH254950   5.110   0.189  11.841  0.0120  0.4728  0.1700
10252TIP3    H154951   5.106   0.110  11.895 -1.5021  0.6066  0.2875
10252TIP3    H254952   5.133   0.157  11.754  2.1680  0.2231  0.7585
10253TIP3   OH254953   5.081   1.796  10.967  0.4315 -0.6037 -0.2868
10253TIP3    H154954   5.022   1.810  10.893  1.9377 -0.5435 -1.5318
10253TIP3    H254955   5.072   1.875  11.020  0.0941 -0.1702 -0.9670
10254TIP3   OH254956   1.014   1.554  12.048  0.6017 -0.0032  0.0151
10254TIP3    H154957   1.016   1.608  12.127 -0.5998  0.2319 -0.0927
10254TIP3    H254958   0.931   1.507  12.053  0.4030  0.1771 -1.2078
10255TIP3   OH254959   4.888   3.995  10.090  0.1324 -0.0013  0.5552
10255TIP3    H154960   4.842   3.940  10.027 -0.1564  1.2450 -0.3748
10255TIP3    H254961   4.870   3.955  10.175 -2.5908  0.3091  0.2295
10256TIP3   OH254962   5.573   7.530  10.918  0.1103  0.2831 -0.1887
10256TIP3    H154963   5.527   7.614  10.928 -1.3155 -0.5836  0.7481
10256TIP3    H254964   5.658   7.544  10.960 -0.3606  1.0634  0.5215
10257TIP3   OH254965   3.690   0.676  11.524  0.7499 -0.0595  0.1711
10257TIP3    H154966   3.600   0.649  11.508  0.0442  1.0964  1.9523
10257TIP3    H254967   3.686   0.770  11.539  2.5311  0.3516 -1.4145
10258TIP3   OH254968   1.541   3.677  12.565 -0.0963 -0.2042  0.2423
10258TIP3    H154969   1.541   3.583  12.584 -0.9810 -0.1664  0.4591
10258TIP3    H254970   1.626   3.692  12.523 -0.0548 -1.1492 -0.0573
10259TIP3   OH254971   3.094   5.411  11.747 -0.2695  0.6066  1.1155
10259TIP3    H154972   3.138   5.445  11.825  0.0493  1.1502  0.7017
10259TIP3    H254973   3.159   5.355  11.705 -0.0927  1.1124  0.7051
10260TIP3   OH254974   7.330   3.659  11.753  0.6337 -0.0969  0.2058
10260TIP3    H154975   7.269   3.585  11.746  0.6128 -0.4292  2.7541
10260TIP3    H254976   7.275   3.737  11.743  0.2124 -0.4171  0.0108
10261TIP3   OH254977   1.715   0.864  12.372  0.3711  0.3871 -0.0254
10261TIP3    H154978   1.652   0.791  12.373  2.2955 -1.3800  1.0004
10261TIP3    H254979   1.690   0.919  12.446 -1.1774  0.8950 -0.8766
10262TIP3   OH254980   0.322   0.453  12.196 -0.1850  0.7831 -0.4667
10262TIP3    H154981   0.248   0.484  12.145 -0.3986  0.3258 -0.4376
10262TIP3    H254982   0.283   0.400  12.266  0.1158  1.2526  0.0642
10263TIP3   OH254983   7.470   6.296  11.715 -0.0895  0.1704  0.0872
10263TIP3    H154984   7.417   6.375  11.728  0.5970  0.3613  2.1156
10263TIP3    H254985   7.503   6.304  11.626 -0.5449  1.8612  0.0262
10264TIP3   OH254986   3.057   1.208  10.139  0.3624  0.2179  0.3002
10264TIP3    H154987   2.974   1.163  10.154 -0.5008  1.0829 -1.5043
10264TIP3    H254988   3.054   1.285  10.196 -0.2871  0.4871 -0.0959
10265TIP3   OH254989   2.491   3.489  11.556  0.3199  0.7016  0.1115
10265TIP3    H154990   2.408   3.466  11.514  1.8903 -0.3256 -2.6802
10265TIP3    H254991   2.469   3.563  11.613 -2.1902  1.7102 -1.9601
10266TIP3   OH254992   2.727   1.813  12.586  0.0060 -0.1345  0.1389
10266TIP3    H154993   2.809   1.842  12.546 -0.3039 -1.5258 -1.5802
10266TIP3    H254994   2.660   1.864  12.541 -0.2638 -0.8576 -0.2748
10267TIP3   OH254995   6.228   1.103  12.691  0.4591  0.3629  0.4027
10267TIP3    H154996   6.215   1.192  12.659 -0.6363 -0.5242 -1.9178
10267TIP3    H254997   6.165   1.093  12.763  0.9937  1.6159  1.0526
10268TIP3   OH254998   0.390   3.263  11.564  0.6256  0.2074  0.5425
10268TIP3    H154999   0.322   3.206  11.529  0.1128  1.1557 -0.0713
10268TIP3    H255000   0.392   3.244  11.658 -0.5490  0.2160  0.5856
10269TIP3   OH255001   6.088   4.171  11.430 -0.4734  0.1381 -0.1245
10269TIP3    H155002   6.091   4.225  11.509  0.1774 -1.9484  1.3611
10269TIP3    H255003   6.059   4.085  11.461  2.8069 -1.6598 -1.5536
10270TIP3   OH255004   4.402   3.618  10.243  0.1858 -0.3436 -0.3900
10270TIP3    H155005   4.369   3.667  10.318  3.2883  0.9945  0.2343
10270TIP3    H255006   4.386   3.526  10.266 -0.9854  0.1174  0.8091
10271TIP3   OH255007   3.941   5.166  11.254  0.0640  0.3413 -0.3379
10271TIP3    H155008   3.907   5.108  11.322  0.2996  2.1081  1.3753
10271TIP3    H255009   4.021   5.123  11.225  1.1286  0.5254  2.0624
10272TIP3   OH255010   7.478   6.526  10.380  0.0264 -0.0823 -0.0414
10272TIP3    H155011   7.531   6.449  10.362  1.6684  1.3554 -1.7648
10272TIP3    H255012   7.401   6.515  10.324 -0.0489 -0.7331  0.1811
10273TIP3   OH255013   3.732   7.321  10.115 -0.4020  0.0132  0.3173
10273TIP3    H155014   3.788   7.369  10.053 -0.7268 -0.9224 -0.7356
10273TIP3    H255015   3.691   7.253  10.062 -1.7007 -0.0027  1.3113
10274TIP3   OH255016   5.384   3.126  10.530 -0.7901 -0.5758 -0.6304
10274TIP3    H155017   5.396   3.160  10.618  2.7795  1.5558 -1.7465
10274TIP3    H255018   5.452   3.060  10.519  0.0769  0.4978 -2.2754
10275TIP3   OH255019   7.216   6.524  11.177 -0.2359 -0.5610 -0.2448
10275TIP3    H155020   7.301   6.555  11.208  0.9370 -3.4188 -0.2351
10275TIP3    H255021   7.236   6.478  11.096 -1.4455 -2.7024  0.5836
10276TIP3   OH255022   0.470   6.243  12.233 -0.1982 -0.1198 -0.5228
10276TIP3    H155023   0.425   6.308  12.179 -1.7773 -0.5374  0.2299
10276TIP3    H255024   0.458   6.273  12.323 -2.1139 -2.0348 -0.0386
10277TIP3   OH255025   0.095   6.480  12.068 -0.3128  0.4611  0.4598
10277TIP3    H155026   0.034   6.428  12.015  1.0836 -1.7181  0.8381
10277TIP3    H255027   0.058   6.477  12.156 -0.0767 -0.1891  0.5412
10278TIP3   OH255028   4.518   5.493  11.932 -0.6998  0.2717  0.5484
10278TIP3    H155029   4.547   5.472  12.021  0.7893 -1.5515 -0.2984
10278TIP3    H255030   4.538   5.414  11.881  0.5850  2.0317 -1.8691
10279TIP3   OH255031   3.306   5.424  10.526  0.4459  0.2412  0.2781
10279TIP3    H155032   3.364   5.374  10.469 -0.0306 -0.3998  0.3578
10279TIP3    H255033   3.224   5.431  10.478  0.1463 -0.0264  0.7513
10280TIP3   OH255034   2.145   4.471  11.980  0.7643  0.5093 -0.3872
10280TIP3    H155035   2.186   4.439  12.060 -0.8740 -1.0912 -0.1315
10280TIP3    H255036   2.209   4.451  11.910  1.2585 -0.1097  0.2297
10281TIP3   OH255037   3.353   3.162  11.829  0.0025 -0.5310 -0.1801
10281TIP3    H155038   3.429   3.220  11.823 -0.0615 -0.3949  0.2961
10281TIP3    H255039   3.378   3.086  11.775  0.3788 -0.3860 -0.2198
10282TIP3   OH255040   4.458   3.473  11.622  0.5387  0.5816  0.2084
10282TIP3    H155041   4.370   3.447  11.593  0.4351  0.6611  0.4472
10282TIP3    H255042   4.517   3.432  11.559  0.5263 -1.9690  1.7065
10283TIP3   OH255043   7.060   0.899  10.796  0.1702  0.2700 -0.5592
10283TIP3    H155044   6.982   0.872  10.747  0.4848 -0.4666 -0.6642
10283TIP3    H255045   7.025   0.951  10.869 -0.6490 -1.8612  0.6717
10284TIP3   OH255046   7.673   3.465  12.153  0.0792  0.7374  0.2848
10284TIP3    H155047   7.585   3.448  12.187 -0.4306  1.9155 -0.3740
10284TIP3    H255048   7.716   3.380  12.152 -0.5962  0.3457  1.8785
10285TIP3   OH255049   7.370   2.114  12.140 -0.7635 -0.4593 -0.4824
10285TIP3    H155050   7.452   2.147  12.103 -0.2909 -0.5823  0.4280
10285TIP3    H255051   7.302   2.160  12.091 -0.1459  0.1716 -0.7787
10286TIP3   OH255052   7.349   3.964  11.766  0.4699  0.5536  0.2210
10286TIP3    H155053   7.416   3.895  11.773 -0.2856 -0.1134  1.2555
10286TIP3    H255054   7.399   4.045  11.765  1.3291  0.0482  0.4787
10287TIP3   OH255055   0.892   2.215  11.467 -0.1253 -0.0500 -0.5376
10287TIP3    H155056   0.938   2.278  11.411  0.3461 -0.3750 -0.5256
10287TIP3    H255057   0.953   2.142  11.475  0.4890  0.6393  1.7002
10288TIP3   OH255058   0.365   0.195  10.683  0.1370 -0.0009  0.0948
10288TIP3    H155059   0.276   0.172  10.710  0.5808 -2.8636 -0.5520
10288TIP3    H255060   0.415   0.201  10.764  0.0236 -1.7036  0.3144
10289TIP3   OH255061   4.459   7.553  10.484  0.2007  0.2659 -0.1332
10289TIP3    H155062   4.494   7.639  10.462 -0.8011  0.4454 -1.0888
10289TIP3    H255063   4.381   7.543  10.429 -0.9721 -0.3336  1.5427
10290TIP3   OH255064   0.609   7.335  10.641 -0.0169  0.3149  0.2646
10290TIP3    H155065   0.670   7.366  10.573 -2.7452 -0.8248 -3.0052
10290TIP3    H255066   0.580   7.415  10.686  1.0975  1.2564 -0.6246
10291TIP3   OH255067   3.798   7.077  12.307  0.0108 -0.5295  0.1680
10291TIP3    H155068   3.744   7.156  12.304  0.7510 -0.0131  0.0037
10291TIP3    H255069   3.864   7.096  12.374  1.8096  0.0861 -1.6865
10292TIP3   OH255070   2.456   2.796  11.180 -0.0342  0.2283 -0.2484
10292TIP3    H155071   2.455   2.764  11.270 -1.0272 -0.8603 -0.6320
10292TIP3    H255072   2.505   2.730  11.131  1.9157  1.5937 -0.2733
10293TIP3   OH255073   4.599   0.825  12.365  0.3637  0.1698 -0.0438
10293TIP3    H155074   4.681   0.852  12.405  0.6562  0.4540 -0.8108
10293TIP3    H255075   4.605   0.730  12.359  0.3542  0.1309  0.4790
10294TIP3   OH255076   3.971   0.986  12.653 -0.4833  0.3826 -0.2157
10294TIP3    H155077   3.887   0.946  12.676 -0.9371  1.5889  0.3298
10294TIP3    H255078   3.993   1.041  12.728 -0.2003  1.6155 -1.1664
10295TIP3   OH255079   4.991   1.099  11.228  0.0510  0.1660  0.0957
10295TIP3    H155080   5.066   1.053  11.191 -0.8197 -1.0490 -0.1924
10295TIP3    H255081   4.972   1.168  11.164  0.4100 -0.0436 -0.2423
10296TIP3   OH255082   6.054   6.555  12.110  0.0276  0.2088  0.4527
10296TIP3    H155083   6.088   6.510  12.187  0.9134 -0.6050 -0.3795
10296TIP3    H255084   6.016   6.636  12.144  0.1499 -0.2613  1.7636
10297TIP3   OH255085   2.395   2.689  11.882 -0.6066 -0.0358 -0.0921
10297TIP3    H155086   2.440   2.767  11.912  0.2192 -0.0813 -1.1707
10297TIP3    H255087   2.447   2.657  11.808 -0.9418 -1.5837  0.2986
10298TIP3   OH255088   4.068   0.086  12.263  0.0976 -0.7435  0.0273
10298TIP3    H155089   4.118   0.122  12.337  0.0061 -1.3329  0.3831
10298TIP3    H255090   4.134   0.046  12.207  0.1533 -0.4091 -0.1508
10299TIP3   OH255091   0.473   1.053  10.113 -0.1717 -0.0722 -0.0812
10299TIP3    H155092   0.472   0.962  10.082  2.2156 -0.4755  0.8356
10299TIP3    H255093   0.558   1.086  10.086 -0.4721  1.4904  0.7873
10300TIP3   OH255094   6.901   6.147  11.574 -0.3147  0.2076  0.1879
10300TIP3    H155095   6.960   6.220  11.558  0.1091 -0.1060  0.2992
10300TIP3    H255096   6.951   6.087  11.630  0.8899 -2.1177 -3.0608
10301TIP3   OH255097   6.560   4.334  10.948 -0.0694  0.1954  0.2336
10301TIP3    H155098   6.602   4.414  10.917  0.2003 -0.5140 -1.2839
10301TIP3    H255099   6.475   4.363  10.982 -0.3340  1.0405 -1.0736
10302TIP3   OH255100   7.487   0.467  12.245  0.4331 -0.2290 -0.4596
10302TIP3    H155101   7.493   0.562  12.230  2.3334 -0.3876 -0.9664
10302TIP3    H255102   7.429   0.436  12.177 -1.4677  0.7221  0.6228
10303TIP3   OH255103   3.668   3.431  11.093 -0.0051 -0.4220  0.4700
10303TIP3    H155104   3.599   3.368  11.114 -0.1052 -0.3002  0.5099
10303TIP3    H255105   3.732   3.422  11.164  0.4838 -1.2023 -0.0639
10304TIP3   OH255106   3.650   1.786  10.555 -0.0214  0.7329  0.3098
10304TIP3    H155107   3.678   1.745  10.637  1.6710 -0.9864 -1.0131
10304TIP3    H255108   3.721   1.765  10.493 -0.6761  2.9553 -1.3057
10305TIP3   OH255109   3.937   4.860  11.752 -0.5664  0.3624  0.7756
10305TIP3    H155110   3.966   4.792  11.812 -0.8294  0.0879  0.5974
10305TIP3    H255111   3.891   4.812  11.682 -0.5715  0.7044  0.5427
10306TIP3   OH255112   3.777   3.862  10.470  0.4954 -0.3229  0.0059
10306TIP3    H155113   3.849   3.913  10.434  2.1131 -2.1350  0.5374
10306TIP3    H255114   3.767   3.788  10.410  0.1667 -0.9465  0.8106
10307TIP3   OH255115   6.689   6.884  10.970 -0.2875 -0.5212  0.2024
10307TIP3    H155116   6.717   6.973  10.950 -0.3249 -0.2174  1.4276
10307TIP3    H255117   6.629   6.894  11.044 -1.2973 -1.4428 -0.4541
10308TIP3   OH255118   0.570   4.533  10.607 -0.8112 -0.1819  0.1340
10308TIP3    H155119   0.583   4.488  10.523 -1.2310 -0.7017  0.3420
10308TIP3    H255120   0.548   4.623  10.582  0.8981  0.1687 -0.2710
10309TIP3   OH255121   1.692   1.100   9.576  0.1947  0.0527 -0.6695
10309TIP3    H155122   1.602   1.093   9.544 -0.3631  0.7845  0.6808
10309TIP3    H255123   1.715   1.011   9.602 -0.1455 -0.1230 -0.9593
10310TIP3   OH255124   3.017   4.824  11.782  0.3430  0.4849  0.0039
10310TIP3    H155125   2.926   4.837  11.755  0.5786  0.1211 -0.9901
10310TIP3    H255126   3.021   4.732  11.807  1.5027 -0.9352 -4.5277
10311TIP3   OH255127   3.060   0.876  11.119 -0.7870 -0.0203  0.4114
10311TIP3    H155128   3.093   0.947  11.174  2.5390  0.5658 -2.0267
10311TIP3    H255129   3.052   0.916  11.032 -2.0500 -1.8584 -0.3762
10312TIP3   OH255130   6.779   6.188  11.914 -0.8674  0.4114  0.3087
10312TIP3    H155131   6.696   6.215  11.953 -2.1788 -1.0437 -1.2729
10312TIP3    H255132   6.770   6.093  11.901  0.3323  0.4811 -1.4410
10313TIP3   OH255133   0.368   1.967  12.916  0.1221  0.0866 -0.4924
10313TIP3    H155134   0.288   2.006  12.881  0.6681  1.2638 -0.4836
10313TIP3    H255135   0.419   2.042  12.947  0.7709 -0.7255  0.4640
10314TIP3   OH255136   3.665   3.527  10.841 -0.1560 -0.3908 -0.3650
10314TIP3    H155137   3.581   3.513  10.797 -0.6842 -2.6990  1.1991
10314TIP3    H255138   3.649   3.503  10.932  2.2252 -1.0417 -0.0345
10315TIP3   OH255139   2.047   5.063  11.183 -0.3769  0.7162  0.3536
10315TIP3    H155140   2.015   5.006  11.252 -0.9273  1.2691  0.5656
10315TIP3    H255141   1.974   5.122  11.164  0.0337  1.0799 -0.1478
10316TIP3   OH255142   1.042   1.243  12.100  0.2980 -0.1259 -0.3274
10316TIP3    H155143   1.016   1.306  12.167  0.7424  0.1498 -0.4171
10316TIP3    H255144   1.006   1.160  12.131  2.0063 -0.3599  1.1684
10317TIP3   OH255145   2.676   5.512  10.225  0.1029  0.2712  0.2028
10317TIP3    H155146   2.663   5.479  10.136 -1.1910  1.0027  0.0966
10317TIP3    H255147   2.620   5.456  10.279  2.1824 -1.3139  0.8641
10318TIP3   OH255148   4.800   6.909  10.792 -0.0775 -0.4102 -0.1345
10318TIP3    H155149   4.722   6.861  10.820  0.3423 -1.4727 -0.7196
10318TIP3    H255150   4.779   6.940  10.704 -0.0744 -0.1676 -0.0484
10319TIP3   OH255151   0.578   2.300   9.896 -0.2770  0.2511 -0.3208
10319TIP3    H155152   0.586   2.383   9.850  0.1723  0.1521 -0.4312
10319TIP3    H255153   0.491   2.268   9.873  0.2204 -0.1661 -1.7530
10320TIP3   OH255154   6.330   0.640  12.773 -0.2276  0.5651  0.4711
10320TIP3    H155155   6.303   0.719  12.820  0.0397  0.7489  0.3148
10320TIP3    H255156   6.425   0.642  12.776 -0.2203  0.2386  0.4812
10321TIP3   OH255157   5.282   3.496  10.074  0.1512  0.0159 -0.3375
10321TIP3    H155158   5.310   3.486  10.165  0.9402  0.3850 -0.5372
10321TIP3    H255159   5.218   3.426  10.061  0.6716 -0.5788  0.2428
10322TIP3   OH255160   6.326   0.098  10.216  0.7702 -0.4322  0.0157
10322TIP3    H155161   6.330   0.049  10.298  0.8210 -0.2086  0.1493
10322TIP3    H255162   6.239   0.079  10.181  1.3972 -1.9382 -0.7811
10323TIP3   OH255163   0.642   3.892  10.041  0.2903  0.2060 -0.6319
10323TIP3    H155164   0.600   3.959   9.987 -0.4265 -0.0283 -0.3722
10323TIP3    H255165   0.720   3.935  10.076 -0.3527  1.0293 -0.1715
10324TIP3   OH255166   2.331   2.036  12.186  0.0852 -0.3201 -0.4166
10324TIP3    H155167   2.284   2.001  12.110  0.8529 -0.2762 -0.9212
10324TIP3    H255168   2.422   2.040  12.158  0.2835  0.3061  0.2872
10325TIP3   OH255169   5.635   0.378  12.209  0.1401  0.2929 -0.2787
10325TIP3    H155170   5.633   0.455  12.151  1.3724  0.8470  0.3709
10325TIP3    H255171   5.724   0.343  12.198  0.4722  0.5276  1.3942
10326TIP3   OH255172   4.460   6.983  11.647 -0.4093 -0.2336  0.2422
10326TIP3    H155173   4.530   6.968  11.710 -0.4191 -0.3149  0.2341
10326TIP3    H255174   4.381   6.991  11.699 -0.4244 -0.3493  0.2366
10327TIP3   OH255175   0.115   5.325  10.494  0.2948 -0.3593 -0.6607
10327TIP3    H155176   0.178   5.389  10.527  0.1052  0.8074 -2.4336
10327TIP3    H255177   0.166   5.267  10.438 -0.0302  0.0214 -1.3608
10328TIP3   OH255178   4.822   7.247  12.581 -0.4544 -0.4128 -0.0914
10328TIP3    H155179   4.772   7.241  12.500 -1.2891 -0.5317  0.4291
10328TIP3    H255180   4.781   7.185  12.640 -1.5286  1.5081  1.3082
10329TIP3   OH255181   2.323   0.643  12.074 -0.3400  0.3005  0.3152
10329TIP3    H155182   2.407   0.654  12.030 -0.4259 -0.3088 -0.0124
10329TIP3    H255183   2.340   0.582  12.145 -0.2683  1.0497  0.9559
10330TIP3   OH255184   2.214   0.765  11.790  0.2007 -0.1764 -0.1523
10330TIP3    H155185   2.304   0.732  11.802  0.3656  0.6252  0.8652
10330TIP3    H255186   2.174   0.757  11.876 -0.1579  1.0880 -0.1931
10331TIP3   OH255187   6.501   2.424  10.584 -0.2386  0.8298  0.5299
10331TIP3    H155188   6.430   2.449  10.643 -0.0388  1.5543  0.4796
10331TIP3    H255189   6.459   2.370  10.517 -0.6500  0.8344  0.7822
10332TIP3   OH255190   2.220   6.716  11.607 -0.0900 -0.1902 -0.0624
10332TIP3    H155191   2.154   6.774  11.569  0.8706  1.2377  0.3434
10332TIP3    H255192   2.288   6.776  11.640  0.4156 -1.4962  1.3954
10333TIP3   OH255193   6.038   4.579  11.589 -0.0076  0.7757 -0.0883
10333TIP3    H155194   5.949   4.558  11.559 -0.5063  1.1639  1.0716
10333TIP3    H255195   6.091   4.576  11.509 -0.1875 -3.6446 -0.2759
10334TIP3   OH255196   4.566   5.639  11.030  0.4381 -0.1441 -0.6873
10334TIP3    H155197   4.594   5.715  11.081  1.8322 -0.0081 -1.5902
10334TIP3    H255198   4.489   5.606  11.076 -1.1238  2.6511 -1.0584
10335TIP3   OH255199   3.469   3.908  10.119  0.9549 -0.0864  0.1595
10335TIP3    H155200   3.478   3.926  10.026  0.6582 -1.5593 -0.1820
10335TIP3    H255201   3.550   3.941  10.158  0.2137  2.4457 -0.2715
10336TIP3   OH255202   6.911   6.704  11.240 -0.5609 -0.0261 -0.6539
10336TIP3    H155203   6.864   6.622  11.258 -0.6166  0.3087  0.8654
10336TIP3    H255204   6.853   6.772  11.272  0.7510  0.4226  0.8677
10337TIP3   OH255205   0.353   5.462  12.650 -0.0534 -0.1679 -0.0679
10337TIP3    H155206   0.420   5.410  12.607  0.2458  0.3024 -0.1733
10337TIP3    H255207   0.356   5.546  12.605 -0.6083 -0.0934  0.0285
10338TIP3   OH255208   2.361   1.345  10.919  0.7668  0.2523 -0.3507
10338TIP3    H155209   2.287   1.340  10.980 -0.6831  1.0636 -1.9437
10338TIP3    H255210   2.366   1.257  10.881  0.6057  0.1981 -0.2467
10339TIP3   OH255211   3.581   5.510  11.871  0.0811 -0.0437  1.0186
10339TIP3    H155212   3.513   5.577  11.865 -2.6727 -2.7456 -2.5438
10339TIP3    H255213   3.564   5.465  11.954 -1.8117  0.0812  0.7450
10340TIP3   OH255214   3.788   4.247  11.159 -0.6055  0.0317 -0.2675
10340TIP3    H155215   3.848   4.224  11.088  0.8260 -1.6233  1.3716
10340TIP3    H255216   3.834   4.316  11.207 -1.0935  0.4079 -0.3392
10341TIP3   OH255217   5.117   0.703  10.909 -0.0145  0.0442  0.8291
10341TIP3    H155218   5.056   0.776  10.921  0.0642  0.3196 -0.3462
10341TIP3    H255219   5.198   0.744  10.879  0.1086 -0.5096  0.3955
10342TIP3   OH255220   3.055   4.047  10.146 -0.4859  0.1238  0.1543
10342TIP3    H155221   3.056   4.134  10.187  0.9375  1.1299 -1.8812
10342TIP3    H255222   3.116   4.054  10.073  0.0056 -2.7463  0.1819
10343TIP3   OH255223   1.827   1.783  12.300 -0.1105  0.3655  0.1815
10343TIP3    H155224   1.764   1.839  12.346 -1.0781  0.1408 -0.8137
10343TIP3    H255225   1.853   1.835  12.224  1.6445  0.8277  1.0581
10344TIP3   OH255226   6.311   4.728  10.702 -0.0291 -0.5187  0.3160
10344TIP3    H155227   6.365   4.724  10.780 -1.0092 -2.2876  0.9523
10344TIP3    H255228   6.233   4.777  10.729 -0.9601 -2.2366  0.8789
10345TIP3   OH255229   3.407   4.384  10.230 -0.7351 -0.4922  0.3624
10345TIP3    H155230   3.423   4.410  10.321 -0.4181 -0.6938  0.3641
10345TIP3    H255231   3.485   4.412  10.183 -0.5931 -1.0304  0.2800
10346TIP3   OH255232   6.422   1.668  11.409 -0.1484 -0.4358  0.0340
10346TIP3    H155233   6.338   1.710  11.424  0.1282  0.7690 -1.5993
10346TIP3    H255234   6.483   1.740  11.394  0.4460 -1.3285 -2.3441
10347TIP3   OH255235   0.821   4.003  12.380 -0.0116 -0.2472  0.5104
10347TIP3    H155236   0.800   4.067  12.447  2.7931  1.7050 -0.2900
10347TIP3    H255237   0.890   3.949  12.419  0.5179 -0.1179 -0.2161
10348TIP3   OH255238   1.250   0.309  12.591 -0.0626  0.0252 -0.3222
10348TIP3    H155239   1.168   0.332  12.634 -0.3000 -0.9643 -0.2115
10348TIP3    H255240   1.271   0.384  12.536 -0.2290  0.9384  0.8243
10349TIP3   OH255241   7.195   6.908  11.816  0.2862 -0.0122  0.2498
10349TIP3    H155242   7.140   6.904  11.738 -0.5504  0.6194  0.7982
10349TIP3    H255243   7.230   6.819  11.824 -1.8257 -0.8502  0.7210
10350TIP3   OH255244   3.772   3.962  11.075  0.0756  0.0688  0.0627
10350TIP3    H155245   3.851   4.010  11.050  0.4819 -1.1555 -1.0997
10350TIP3    H255246   3.785   3.874  11.040 -2.5354  0.2781 -1.7005
10351TIP3   OH255247   0.764   6.155  12.375 -0.6455  0.2301 -0.2703
10351TIP3    H155248   0.751   6.240  12.417 -1.4804 -0.3852  0.7805
10351TIP3    H255249   0.742   6.171  12.283  0.0284  1.3327 -0.2632
10352TIP3   OH255250   0.885   2.274  11.962  0.1987  0.0758  0.3968
10352TIP3    H155251   0.938   2.239  12.034 -0.1003  0.0703  0.6169
10352TIP3    H255252   0.940   2.263  11.884  0.7809  0.6745  0.7161
10353TIP3   OH255253   7.284   3.993  10.546  0.2357 -0.2987 -0.2874
10353TIP3    H155254   7.214   3.967  10.606 -1.1175  0.9474 -1.2541
10353TIP3    H255255   7.277   3.932  10.473  1.0152 -0.9707  0.1787
10354TIP3   OH255256   5.932   0.003  12.037  0.1755 -0.1952 -0.3683
10354TIP3    H155257   5.892  -0.005  12.124 -2.4441 -0.3558 -1.4829
10354TIP3    H255258   6.026   0.006  12.054 -0.2609  0.4206  2.4979
10355TIP3   OH255259   3.148   2.778  12.006 -0.0328  0.8937 -0.3638
10355TIP3    H155260   3.057   2.751  12.015 -0.2611  2.3842  3.4009
10355TIP3    H255261   3.143   2.870  11.981  0.4492  1.0608  0.1553
10356TIP3   OH255262   7.642   0.635  10.326 -0.4655  0.2330  0.2074
10356TIP3    H155263   7.612   0.632  10.236  1.3631  0.2247 -0.4383
10356TIP3    H255264   7.563   0.622  10.378 -1.2649 -1.8413 -1.4033
10357TIP3   OH255265   4.216   1.537  11.645 -0.2633  0.1659  0.4864
10357TIP3    H155266   4.260   1.481  11.709  1.4336 -0.3600 -1.0596
10357TIP3    H255267   4.211   1.623  11.687  0.3471 -0.2868  1.5164
10358TIP3   OH255268   6.587   1.273  11.601  0.2432 -0.2243  0.1748
10358TIP3    H155269   6.589   1.349  11.543 -1.1819 -2.9270 -3.8552
10358TIP3    H255270   6.661   1.220  11.574 -1.3710 -2.2990 -0.4240
10359TIP3   OH255271   0.467   2.369  11.451 -0.4268  0.6075  0.0589
10359TIP3    H155272   0.525   2.355  11.375 -0.3317  0.9981  0.0552
10359TIP3    H255273   0.392   2.417  11.415 -0.4209  0.7194  0.1936
10360TIP3   OH255274   0.500   5.960  12.168 -0.0890  0.5817 -0.1533
10360TIP3    H155275   0.569   5.996  12.112  0.1746 -0.1443 -0.3133
10360TIP3    H255276   0.469   6.034  12.219  0.1650  1.1107 -0.7515
10361TIP3   OH255277   2.579   3.574  10.569  0.4720  0.6088  0.0966
10361TIP3    H155278   2.500   3.548  10.615 -0.1732  1.8275 -0.2906
10361TIP3    H255279   2.571   3.668  10.558  1.7441  0.6845 -0.3915
10362TIP3   OH255280   3.365   2.138  10.451  0.4715 -0.5788 -0.2763
10362TIP3    H155281   3.459   2.125  10.440  0.3441 -0.5248 -1.5747
10362TIP3    H255282   3.340   2.200  10.383 -0.3429  0.2122  0.7050
10363TIP3   OH255283   3.714   6.797  10.457 -0.2543  0.0863  0.3494
10363TIP3    H155284   3.658   6.783  10.533 -0.2226 -1.0979  0.1738
10363TIP3    H255285   3.667   6.860  10.403  0.5111  2.2918  2.1261
10364TIP3   OH255286   6.205   0.627  12.117  0.3538  0.2296 -0.1546
10364TIP3    H155287   6.138   0.645  12.051 -0.2479 -0.0509  0.3703
10364TIP3    H255288   6.181   0.543  12.155 -0.3535  1.1858  1.6623
10365TIP3   OH255289   0.781   0.168   9.963 -0.6790  0.0545 -0.0101
10365TIP3    H155290   0.687   0.186   9.966 -0.3362  2.0466  0.3041
10365TIP3    H255291   0.788   0.077   9.935 -2.6708  0.1914 -1.0616
10366TIP3   OH255292   5.628   3.704  11.440  0.3769 -0.3040 -0.0831
10366TIP3    H155293   5.654   3.788  11.402 -1.1839  0.2141 -0.0554
10366TIP3    H255294   5.569   3.665  11.375 -1.1130 -0.0937  1.0883
10367TIP3   OH255295   4.024   6.281  11.945 -0.3679 -0.2434  0.1604
10367TIP3    H155296   4.080   6.207  11.971 -2.7577 -1.8868  0.9773
10367TIP3    H255297   3.969   6.296  12.021 -2.4436 -0.1153 -1.3000
10368TIP3   OH255298   0.505   6.244   9.821  0.3878 -0.4058 -0.3845
10368TIP3    H155299   0.456   6.190   9.758  0.0293 -0.1835 -0.3045
10368TIP3    H255300   0.436   6.288   9.872  0.6406  1.2430 -1.3930
10369TIP3   OH255301   7.075   5.150  10.099  0.5511 -0.5466  0.5715
10369TIP3    H155302   7.088   5.066  10.053 -0.7042 -0.6889  0.4393
10369TIP3    H255303   6.980   5.164  10.096  0.9156  2.1735 -1.7055
10370TIP3   OH255304   6.159   1.882  11.431  0.4341  0.0648 -0.1362
10370TIP3    H155305   6.096   1.815  11.404  0.5873  0.1008 -0.5957
10370TIP3    H255306   6.135   1.960  11.381  1.0276 -0.0074 -0.5521
10371TIP3   OH255307   4.543   2.057  10.833 -0.1141 -0.6184  0.3978
10371TIP3    H155308   4.566   2.027  10.744  1.5416  1.7325 -0.0687
10371TIP3    H255309   4.621   2.105  10.862 -1.7826  1.3640  1.8397
10372TIP3   OH255310   3.780   4.552  12.145  0.0543  0.1283  0.3954
10372TIP3    H155311   3.715   4.588  12.205 -2.0303  0.9666 -2.1676
10372TIP3    H255312   3.756   4.460  12.135  0.3975 -0.0097  0.8396
10373TIP3   OH255313   0.068   5.928  11.637 -0.5708 -0.0340  0.0272
10373TIP3    H155314   0.058   5.851  11.692  0.9399 -0.6831 -0.5519
10373TIP3    H255315  -0.009   5.927  11.580  0.5607 -2.5310 -1.6311
10374TIP3   OH255316   6.294   6.156  11.993  0.3980 -0.4045  0.4197
10374TIP3    H155317   6.363   6.122  12.050  1.0300 -0.0661 -0.1219
10374TIP3    H255318   6.243   6.079  11.970  1.9595 -1.0932 -0.9905
10375TIP3   OH255319   6.423   3.104  10.432 -0.0000 -0.5426 -0.3009
10375TIP3    H155320   6.381   3.078  10.351 -1.8764 -1.5543  0.9322
10375TIP3    H255321   6.351   3.118  10.494  1.3508  0.3563  1.1581
10376TIP3   OH255322   6.125   4.914  11.996 -0.2834 -0.0917  0.0620
10376TIP3    H155323   6.091   4.889  12.082 -0.8362 -0.9800 -0.4044
10376TIP3    H255324   6.191   4.848  11.976  2.0133  1.7606  1.0834
10377TIP3   OH255325   7.034   7.628  11.275  0.3286  0.5047  0.0195
10377TIP3    H155326   7.120   7.641  11.315  0.7354  2.0801 -1.2461
10377TIP3    H255327   6.980   7.591  11.345  2.1295 -0.9773  0.7005
10378TIP3   OH255328   4.725   0.937  10.364 -0.2846  0.1943  0.3350
10378TIP3    H155329   4.705   0.911  10.274 -0.6231  2.0478 -0.1796
10378TIP3    H255330   4.754   0.857  10.406  0.1097 -0.6854 -1.4926
10379TIP3   OH255331   7.625   6.747  10.810  0.0616 -0.4962 -0.9707
10379TIP3    H155332   7.598   6.690  10.738  2.1272  0.9569 -3.0651
10379TIP3    H255333   7.549   6.802  10.828 -1.5533 -2.9465  0.2521
10380TIP3   OH255334   2.626   0.594   9.890 -0.3029  0.1398 -0.4571
10380TIP3    H155335   2.576   0.517   9.864 -2.1356  1.1275  0.0402
10380TIP3    H255336   2.613   0.601   9.985 -0.5899  1.3344 -0.5698
10381TIP3   OH255337   2.469   7.305   9.832  0.2521 -0.0828  0.4293
10381TIP3    H155338   2.380   7.308   9.866  0.5499  2.0270  1.1591
10381TIP3    H255339   2.473   7.377   9.769  1.2567 -0.5870 -0.1021
10382TIP3   OH255340   3.249   4.582  10.553  0.1353 -0.0131  0.0261
10382TIP3    H155341   3.193   4.640  10.502 -0.0071  0.5659  0.8028
10382TIP3    H255342   3.190   4.545  10.619  0.7339  1.0263  1.1977
10383TIP3   OH255343   4.643   1.128  11.061  0.3450 -0.3148  0.2726
10383TIP3    H155344   4.645   1.156  10.969  0.8835 -0.8402  0.1185
10383TIP3    H255345   4.670   1.206  11.111 -0.6388  0.1861  0.0453
10384TIP3   OH255346   1.590   0.777  10.949  0.0758 -0.1916 -0.0760
10384TIP3    H155347   1.644   0.704  10.978  1.6973  0.7815 -0.5308
10384TIP3    H255348   1.643   0.855  10.966 -1.4809  0.8739  0.1124
10385TIP3   OH255349   5.333   4.723  11.960  0.7141 -0.3360 -0.4857
10385TIP3    H155350   5.313   4.816  11.950 -0.5313 -0.4855  0.3433
10385TIP3    H255351   5.310   4.703  12.051  2.3802 -1.1337 -0.2047
10386TIP3   OH255352   6.412   5.360  11.103  0.4602  0.4558 -0.0919
10386TIP3    H155353   6.503   5.334  11.095  0.0982 -0.8669 -0.1310
10386TIP3    H255354   6.408   5.446  11.060  1.4556  0.0115 -1.1194
10387TIP3   OH255355   3.188   0.294  13.080 -0.6749 -0.9086  0.3874
10387TIP3    H155356   3.266   0.239  13.080  1.4626  1.8266 -1.6799
10387TIP3    H255357   3.129   0.252  13.017  0.0664 -1.8352  0.2967
10388TIP3   OH255358   4.374   2.159   9.987 -0.8050  0.2317  0.1245
10388TIP3    H155359   4.454   2.124   9.949 -0.0962  1.5793  0.3105
10388TIP3    H255360   4.315   2.083   9.994 -0.0163 -0.5362 -1.1747
10389TIP3   OH255361   1.493   1.584  10.874 -0.8094 -0.3172 -0.8604
10389TIP3    H155362   1.571   1.635  10.852 -0.3182 -0.7508 -0.1578
10389TIP3    H255363   1.437   1.645  10.922 -0.2591 -0.4056 -0.0918
10390TIP3   OH255364   3.050   6.240  10.710 -0.2691 -0.3077 -0.7220
10390TIP3    H155365   3.131   6.204  10.675 -1.0274 -0.9557 -1.8406
10390TIP3    H255366   3.009   6.167  10.757 -1.4632 -0.7666 -2.3968
10391TIP3   OH255367   0.010   3.492  10.710 -0.2732 -0.3878  0.1769
10391TIP3    H155368   0.091   3.450  10.737 -1.3204 -3.0713 -0.5491
10391TIP3    H255369  -0.013   3.549  10.783  2.7340  1.3437 -0.0301
10392TIP3   OH255370   3.349   1.574  11.841 -0.3447  0.1850 -0.2744
10392TIP3    H155371   3.438   1.566  11.806 -0.2714 -0.4939  0.0440
10392TIP3    H255372   3.356   1.639  11.911  0.2442 -0.9662  0.7832
10393TIP3   OH255373   4.344   0.343  12.045  0.6683  0.0365  0.4043
10393TIP3    H155374   4.427   0.366  12.004  1.4753 -0.1487  1.8530
10393TIP3    H255375   4.312   0.268  11.996  3.0221 -2.0173  1.7918
10394TIP3   OH255376   0.931   2.596  10.451  0.1452  0.2605  0.4890
10394TIP3    H155377   0.836   2.594  10.438  0.2144  0.5354 -0.1088
10394TIP3    H255378   0.943   2.654  10.527 -0.1829 -0.0991  0.8235
10395TIP3   OH255379   3.216   3.735  11.665 -0.2544 -0.2304 -0.8798
10395TIP3    H155380   3.200   3.642  11.649 -0.4520 -0.3459 -0.0693
10395TIP3    H255381   3.131   3.777  11.649 -0.4105 -0.3245 -0.3334
10396TIP3   OH255382   7.098   3.875  10.740 -0.2314  0.7947 -0.2127
10396TIP3    H155383   7.133   3.786  10.745  0.7118  0.9793 -2.4287
10396TIP3    H255384   7.007   3.863  10.713  0.9874  0.4257 -5.0697
10397TIP3   OH255385   3.040   0.989  10.830 -0.3903  0.1319  0.0000
10397TIP3    H155386   3.030   0.898  10.805 -0.3026 -0.1961  1.1063
10397TIP3    H255387   3.096   1.028  10.763 -1.0831 -0.4263 -0.9111
10398TIP3   OH255388   5.715   4.060  11.730  0.0411  0.3804 -0.1766
10398TIP3    H155389   5.664   4.044  11.809  1.0343  0.9694  0.6192
10398TIP3    H255390   5.792   4.109  11.761  1.7291 -1.5373 -1.0979
10399TIP3   OH255391   6.528   1.013   9.801 -0.5627 -0.0691 -0.1784
10399TIP3    H155392   6.475   1.092   9.793  0.6917  0.9184  0.8323
10399TIP3    H255393   6.537   0.999   9.895 -0.2384 -1.0530 -0.3444
10400TIP3   OH255394   2.480   1.822  11.433  0.3235  0.3974 -0.8429
10400TIP3    H155395   2.432   1.904  11.420 -0.3496  0.3582  0.9914
10400TIP3    H255396   2.569   1.841  11.404  0.3083  1.9738  0.0143
10401TIP3   OH255397   6.617   0.773  10.174 -0.4822  0.2404 -0.3192
10401TIP3    H155398   6.589   0.752  10.085 -0.7525  0.3482 -0.2591
10401TIP3    H255399   6.576   0.706  10.229 -1.4652  0.9884 -0.1100
10402TIP3   OH255400   0.217   4.706  11.209 -0.1503 -0.0928 -0.7352
10402TIP3    H155401   0.234   4.659  11.291  1.2585  2.7258  0.7254
10402TIP3    H255402   0.222   4.638  11.141  0.1714 -2.2787  1.3505
10403TIP3   OH255403   0.601   0.695   9.953  0.5500  0.2605 -0.0286
10403TIP3    H155404   0.530   0.634   9.975  1.0026 -0.3571 -0.2331
10403TIP3    H255405   0.664   0.641   9.905  0.0783  1.3020 -1.9309
10404TIP3   OH255406   6.780   1.111  12.093 -0.3906 -0.2423 -0.6015
10404TIP3    H155407   6.779   1.031  12.040 -1.7137 -1.1220  0.6814
10404TIP3    H255408   6.704   1.102  12.150  1.3100  0.3731  1.8875
10405TIP3   OH255409   3.892   6.674  10.134  0.0866  0.0861 -0.7898
10405TIP3    H155410   3.799   6.687  10.115  0.0644  0.3989 -0.4571
10405TIP3    H255411   3.937   6.730  10.071  0.0510 -0.1071 -0.9875
10406TIP3   OH255412   1.709   3.099  12.017  0.1722  0.0314  0.1628
10406TIP3    H155413   1.786   3.155  12.027  0.1394  0.5384 -1.8828
10406TIP3    H255414   1.740   3.027  11.961 -0.6966 -0.0425 -0.2314
10407TIP3   OH255415   3.773   4.291  10.674 -0.1956 -0.9021 -0.0804
10407TIP3    H155416   3.711   4.336  10.731  0.4763  1.2963 -0.9669
10407TIP3    H255417   3.723   4.217  10.638 -1.9417  0.1316  0.1029
10408TIP3   OH255418   1.474   1.590  11.584 -0.5676  0.3071 -0.4225
10408TIP3    H155419   1.469   1.669  11.530  0.0878  0.7828  0.1917
10408TIP3    H255420   1.448   1.619  11.671 -0.7247 -0.2474 -0.2855
10409TIP3   OH255421   6.344   2.175  10.827  0.1670 -0.0655 -0.2627
10409TIP3    H155422   6.375   2.259  10.791 -1.4821  0.9869  0.6273
10409TIP3    H255423   6.351   2.186  10.922 -0.5831 -0.7146 -0.1272
10410TIP3   OH255424   2.792   0.801  12.903  0.4337 -0.3497  0.2225
10410TIP3    H155425   2.814   0.889  12.873  1.3225 -0.6679 -0.0817
10410TIP3    H255426   2.847   0.788  12.980  0.5458 -0.7601  0.0732
10411TIP3   OH255427   3.106   7.363  10.098 -0.1940 -0.1702 -0.0701
10411TIP3    H155428   3.068   7.276  10.114 -0.7368  0.2403  0.9583
10411TIP3    H255429   3.191   7.360  10.143  0.3252 -0.5528 -1.0391
10412TIP3   OH255430   0.004   4.651  12.258  0.0098  0.3998 -0.3386
10412TIP3    H155431   0.033   4.575  12.207  0.5751 -0.4662  1.2049
10412TIP3    H255432   0.081   4.676  12.310 -0.0843  2.2214 -0.9854
10413TIP3   OH255433   3.276   6.429  11.160  0.7562 -0.4007 -0.5051
10413TIP3    H155434   3.324   6.379  11.226 -2.4325 -0.4506  2.0053
10413TIP3    H255435   3.330   6.506  11.144  1.8577 -0.6177  1.8558
10414TIP3   OH255436   3.022   0.672  10.148  0.1674 -0.6434  0.3109
10414TIP3    H155437   3.057   0.758  10.172 -1.0697 -0.2171  0.6729
10414TIP3    H255438   3.078   0.643  10.075 -1.4257  2.0487 -2.2280
10415TIP3   OH255439   5.396   7.348  10.232  0.1031  0.4227 -0.1354
10415TIP3    H155440   5.412   7.295  10.310 -2.1521 -1.9992 -1.1666
10415TIP3    H255441   5.465   7.324  10.171 -0.8319 -1.3791 -0.5508
10416TIP3   OH255442   2.833   1.081  10.214 -0.4217 -0.3796 -0.2099
10416TIP3    H155443   2.814   1.039  10.298 -1.8061  0.8209  0.1360
10416TIP3    H255444   2.786   1.028  10.149  0.4091 -1.1388 -0.2071
10417TIP3   OH255445   4.605   2.043  11.425  0.3992  0.1097  0.0743
10417TIP3    H155446   4.612   1.966  11.482  2.6320  1.0787  1.2678
10417TIP3    H255447   4.578   2.008  11.341  0.7032 -1.9125  0.7437
10418TIP3   OH255448   7.568   5.677  11.585 -0.4257  0.0903 -0.3896
10418TIP3    H155449   7.541   5.663  11.676  1.5120 -0.5867  0.1289
10418TIP3    H255450   7.506   5.625  11.534 -0.0166 -1.5931  0.7524
10419TIP3   OH255451   2.605   5.471  12.012  0.1441  0.5233 -0.0626
10419TIP3    H155452   2.660   5.491  11.936  0.5769  0.5186  0.2414
10419TIP3    H255453   2.530   5.423  11.977 -0.3787  1.7543 -0.6684
10420TIP3   OH255454   5.500   0.679  11.483  0.6810  0.8333  0.4566
10420TIP3    H155455   5.494   0.727  11.566 -1.7097 -0.2084  0.9462
10420TIP3    H255456   5.435   0.609  11.490  2.6535 -1.2939 -1.0426
10421TIP3   OH255457   4.640   6.161  10.699  0.2047  0.0639 -0.1491
10421TIP3    H155458   4.722   6.191  10.738 -0.6230  1.7066  0.3906
10421TIP3    H255459   4.652   6.174  10.605  0.8766 -0.5701 -0.1660
10422TIP3   OH255460   0.079   4.375  11.667  0.2910  0.3241  0.2702
10422TIP3    H155461   0.077   4.336  11.580 -1.2538  1.4508 -0.2362
10422TIP3    H255462   0.071   4.300  11.727  0.6641 -0.3984 -0.5577
10423TIP3   OH255463   6.539   0.086  11.619 -0.2440  0.0157  0.4395
10423TIP3    H155464   6.541   0.013  11.680 -0.4314 -0.5146 -0.1818
10423TIP3    H255465   6.491   0.155  11.666  0.7829  0.1086  1.4059
10424TIP3   OH255466   1.584   2.621  12.045 -0.3331  0.0266  0.1472
10424TIP3    H155467   1.600   2.567  12.122 -1.4602  1.0008  1.1138
10424TIP3    H255468   1.668   2.623  11.999 -0.2703 -2.5590  0.0143
10425TIP3   OH255469   2.830   4.195  10.628  0.4165  0.3448 -0.1293
10425TIP3    H155470   2.875   4.280  10.624 -1.3307  1.2874 -1.0544
10425TIP3    H255471   2.900   4.130  10.621  1.8238  1.6957  0.9846
10426TIP3   OH255472   4.201   6.126  12.064 -0.5911  0.1337  0.2219
10426TIP3    H155473   4.267   6.068  12.026 -1.0418 -0.4707  0.3586
10426TIP3    H255474   4.212   6.115  12.158 -0.2881  0.7184  0.2620
10427TIP3   OH255475   2.439   3.157  11.585  0.6035 -0.1565  0.1083
10427TIP3    H155476   2.356   3.111  11.597  0.4784 -0.5895 -2.0442
10427TIP3    H255477   2.433   3.197  11.498  2.1853  0.8165  0.4005
10428TIP3   OH255478   4.438   3.310   9.972  0.0575  0.3586  0.6185
10428TIP3    H155479   4.439   3.251  10.048  2.2439 -0.6092 -0.0590
10428TIP3    H255480   4.425   3.252   9.897  0.8588  0.8987  0.0427
10429TIP3   OH255481   2.890   7.048  11.043  0.0101 -0.0863 -0.1271
10429TIP3    H155482   2.897   6.956  11.069 -1.1799 -0.2324 -0.2390
10429TIP3    H255483   2.873   7.095  11.125  0.6826  0.0459 -0.0611
10430TIP3   OH255484   4.083   3.795  10.676  0.1968  0.8080 -0.3935
10430TIP3    H155485   4.035   3.714  10.696 -0.9121  1.6405  0.4237
10430TIP3    H255486   4.031   3.838  10.608  2.3982 -0.5736 -3.1556
10431TIP3   OH255487   4.052   3.596  11.601 -0.1497  0.0223 -0.0348
10431TIP3    H155488   4.056   3.592  11.696  0.3932  1.0190  0.0022
10431TIP3    H255489   4.087   3.513  11.571  2.9563  0.9773  0.6050
10432TIP3   OH255490   4.884   4.429  10.179 -0.0922  0.4872 -0.6665
10432TIP3    H155491   4.809   4.409  10.123  0.4043 -2.7801 -0.3426
10432TIP3    H255492   4.846   4.442  10.266 -0.5143  2.0962 -1.0483
10433TIP3   OH255493   4.111   7.437  12.160  0.1038  1.1338 -0.1787
10433TIP3    H155494   4.134   7.479  12.243 -0.3517  0.7169  0.1653
10433TIP3    H255495   4.179   7.372  12.145  1.3840  2.6076 -1.2155
10434TIP3   OH255496   4.256   0.452  11.058 -0.2864 -0.2806  0.9361
10434TIP3    H155497   4.239   0.450  10.964 -1.5767 -0.8641  1.1607
10434TIP3    H255498   4.297   0.367  11.076 -1.8598 -1.0279  1.1881
10435TIP3   OH255499   5.948   1.778  10.854  0.0931 -0.3272 -0.0391
10435TIP3    H155500   5.966   1.819  10.939 -0.5252 -0.3065  0.0885
10435TIP3    H255501   6.032   1.780  10.808  0.2826  0.2416  0.3209
10436TIP3   OH255502   4.053   4.304  10.142 -0.7619 -0.1748 -0.2616
10436TIP3    H155503   4.096   4.390  10.139 -2.3225  0.6860  0.8279
10436TIP3    H255504   3.972   4.316  10.092 -1.1570 -0.9090  0.1951
10437TIP3   OH255505   4.641   4.970  11.444 -0.4280  0.0660 -0.3612
10437TIP3    H155506   4.675   4.936  11.361 -1.2429  1.2054 -1.1891
10437TIP3    H255507   4.718   4.977  11.500  0.0421 -1.3488 -0.7650
10438TIP3   OH255508   2.061   6.920  11.492  0.1260 -0.0850  0.3503
10438TIP3    H155509   2.117   6.986  11.451  0.2917  0.6624  1.6989
10438TIP3    H255510   1.979   6.924  11.443  0.5939  0.1789 -0.4271
10439TIP3   OH255511   4.250   0.347  11.645 -0.0089 -0.3998  0.0851
10439TIP3    H155512   4.328   0.313  11.689  0.4083  0.0145 -0.3256
10439TIP3    H255513   4.241   0.292  11.567  1.1111  0.8577 -0.9901
   7.68049   7.68049  30.00000
