Title
55513
    1DOPE     N    1   5.693   6.119   9.310 -0.1660  0.0289 -0.0156
    1DOPE   HN1    2   5.653   6.024   9.325 -2.2728  0.9275  0.4651
    1DOPE   HN2    3   5.723   6.155   9.403 -0.2983  0.2718 -0.0670
    1DOPE   HN3    4   5.614   6.179   9.278 -0.9101  0.2173  2.0160
    1DOPE   C12    5   5.810   6.108   9.217 -0.1294 -0.4048  0.0002
    1DOPE  H12A    6   5.776   6.042   9.134 -1.0507  0.6722 -0.5118
    1DOPE  H12B    7   5.888   6.063   9.282 -0.2656 -2.0444 -0.9309
    1DOPE   C11    8   5.858   6.245   9.166  0.6789  0.1850  0.3573
    1DOPE  H11A    9   5.792   6.283   9.085  1.6400  0.7745 -0.1667
    1DOPE  H11B   10   5.955   6.246   9.112  0.1961  3.0879 -0.6323
    1DOPE     P   11   5.982   6.388   9.348 -0.2002 -0.3334  0.7974
    1DOPE   O13   12   6.068   6.273   9.376  0.0642  0.4496 -0.0192
    1DOPE   O14   13   5.957   6.485   9.456 -0.7033 -0.4279  0.5944
    1DOPE   O11   14   6.064   6.476   9.239  0.2140  0.2720  0.4373
    1DOPE   O12   15   5.847   6.340   9.278  1.1380  0.4459  0.0068
    1DOPE    C1   16   5.992   6.589   9.179  0.5052 -0.0168 -0.2040
    1DOPE    HA   17   6.051   6.681   9.200  1.8445 -0.6673 -0.9674
    1DOPE    HB   18   5.898   6.611   9.234 -0.9769 -2.6986 -1.4656
    1DOPE    C2   19   5.973   6.577   9.022 -0.3939 -0.1066  0.6389
    1DOPE    HS   20   5.996   6.671   8.966  0.8706 -0.4200  0.6084
    1DOPE   O21   21   5.843   6.537   8.988  0.7347  0.4529  0.3436
    1DOPE   C21   22   5.757   6.633   9.001 -0.1243  0.1345 -0.3518
    1DOPE   O22   23   5.784   6.750   9.004  0.6817 -0.6614 -0.0400
    1DOPE   C22   24   5.614   6.580   9.016  0.0585 -0.3878  0.7126
    1DOPE   H2R   25   5.545   6.665   9.035  0.3014 -0.0933  0.2993
    1DOPE   H2S   26   5.616   6.528   9.114 -0.6943 -1.3993  0.2162
    1DOPE    C3   27   6.075   6.478   8.964  0.6559 -0.2901  0.4658
    1DOPE    HX   28   6.089   6.383   9.019  1.6788 -0.6276 -0.3383
    1DOPE    HY   29   6.174   6.528   8.974 -0.8535  2.9372  0.6282
    1DOPE   O31   30   6.043   6.459   8.825 -0.3143  0.0151 -0.3681
    1DOPE   C31   31   5.993   6.339   8.792 -0.8119  0.1794  0.2225
    1DOPE   O32   32   5.971   6.249   8.869 -0.3953 -0.5264  0.2145
    1DOPE   C32   33   5.972   6.328   8.639 -0.9268  0.6573 -0.3990
    1DOPE   H2X   34   5.945   6.431   8.606  1.0424  0.9457 -1.2716
    1DOPE   H2Y   35   6.076   6.305   8.606 -0.2954  2.2685  0.3518
    1DOPE   C23   36   5.574   6.496   8.893  0.8683 -0.1632  0.7078
    1DOPE   H3R   37   5.467   6.464   8.892  0.7161  0.3470  0.3841
    1DOPE   H3S   38   5.642   6.408   8.897  0.9092 -0.1187  1.0723
    1DOPE   C24   39   5.587   6.567   8.757 -0.2327 -1.1264 -0.6243
    1DOPE   H4R   40   5.696   6.575   8.737 -0.2827 -0.8667 -0.7955
    1DOPE   H4S   41   5.552   6.672   8.761  2.2535 -0.2107  3.1249
    1DOPE   C25   42   5.537   6.493   8.634  0.6652 -0.1557 -0.4873
    1DOPE   H5R   43   5.434   6.454   8.647  1.0340 -0.9264  0.1646
    1DOPE   H5S   44   5.594   6.398   8.623  0.9625 -0.5683  3.3101
    1DOPE   C26   45   5.541   6.577   8.502  0.2544 -0.0279  0.0386
    1DOPE   H6R   46   5.648   6.599   8.483  0.8406 -2.1081  0.6966
    1DOPE   H6S   47   5.500   6.678   8.525 -0.1729  0.1864 -1.5761
    1DOPE   C27   48   5.467   6.526   8.378  0.0160 -0.6728  0.1029
    1DOPE   H7R   49   5.449   6.609   8.307  0.9374  1.2626  2.0252
    1DOPE   H7S   50   5.365   6.500   8.412  0.8137 -2.0951  1.5828
    1DOPE   C28   51   5.540   6.422   8.295  0.1509  0.2495 -0.4283
    1DOPE   H8R   52   5.588   6.349   8.363 -1.9408 -1.3562 -0.5618
    1DOPE   H8S   53   5.623   6.472   8.240  0.9423 -0.4644  0.0986
    1DOPE   C29   54   5.449   6.351   8.203 -0.2138  0.2690 -0.3647
    1DOPE   H9R   55   5.414   6.252   8.236 -0.5539  0.3391 -0.5198
    1DOPE  C210   56   5.400   6.390   8.089  0.3970  0.5519  0.1158
    1DOPE  H10R   57   5.327   6.328   8.036 -0.0980 -0.2011  1.6384
    1DOPE  C211   58   5.417   6.522   8.021 -0.0928 -0.2580 -0.0266
    1DOPE  H11R   59   5.468   6.594   8.088  0.2522  1.1375 -1.7238
    1DOPE  H11S   60   5.319   6.571   8.004 -0.0538  0.7649  2.3259
    1DOPE  C212   61   5.503   6.510   7.893  0.3089 -0.8730  0.8470
    1DOPE  H12R   62   5.597   6.452   7.897  1.4752  0.7230 -1.0065
    1DOPE  H12S   63   5.525   6.613   7.857 -0.2481 -0.2411  2.2669
    1DOPE  C213   64   5.433   6.438   7.771 -0.0946 -0.1178  0.3773
    1DOPE  H13R   65   5.348   6.497   7.731 -0.1189 -0.1514  0.3798
    1DOPE  H13S   66   5.398   6.340   7.809 -0.5586 -0.1233 -0.0690
    1DOPE  C214   67   5.527   6.405   7.656 -0.8763  0.8953  0.3163
    1DOPE  H14R   68   5.611   6.338   7.687  0.9069  2.4103 -1.0352
    1DOPE  H14S   69   5.580   6.497   7.623  1.1229 -0.4611 -0.4936
    1DOPE  C215   70   5.448   6.378   7.526 -1.1815  0.4770 -0.0619
    1DOPE  H15R   71   5.375   6.461   7.514  0.6517  1.8210 -2.8344
    1DOPE  H15S   72   5.402   6.278   7.537  0.0583 -0.5079 -2.9549
    1DOPE  C216   73   5.536   6.359   7.396 -0.0561  0.1968  0.0973
    1DOPE  H16R   74   5.603   6.271   7.410  0.9256  1.0006  0.6041
    1DOPE  H16S   75   5.598   6.451   7.388  1.3869 -0.8395 -1.3851
    1DOPE  C217   76   5.458   6.351   7.271 -0.9963 -0.4575  0.4495
    1DOPE  H17R   77   5.380   6.428   7.290  0.3781  0.9968  0.5242
    1DOPE  H17S   78   5.413   6.251   7.256  0.8954 -0.8968 -4.3896
    1DOPE  C218   79   5.552   6.398   7.154  0.4878 -0.1263 -0.0822
    1DOPE  H18R   80   5.647   6.340   7.155  0.3688 -0.3508 -0.8108
    1DOPE  H18S   81   5.581   6.504   7.167  0.7697 -0.2868  0.6499
    1DOPE  H18T   82   5.494   6.382   7.060 -0.8073 -2.0722  0.9596
    1DOPE   C33   83   5.857   6.231   8.608 -0.2277  0.2792  0.1628
    1DOPE   H3X   84   5.763   6.268   8.654 -0.0677  1.9146 -0.7385
    1DOPE   H3Y   85   5.869   6.132   8.655  0.3928 -1.0168 -2.5019
    1DOPE   C34   86   5.845   6.201   8.465  0.4800 -0.1986  0.4631
    1DOPE   H4X   87   5.743   6.168   8.435  0.9227 -1.2053  0.0403
    1DOPE   H4Y   88   5.875   6.290   8.405 -0.3345 -0.3255 -0.1650
    1DOPE   C35   89   5.944   6.088   8.423  0.1994 -0.1090  0.4494
    1DOPE   H5X   90   5.887   5.997   8.451 -1.7892  0.5982 -1.0693
    1DOPE   H5Y   91   6.036   6.094   8.484  0.9799  1.7868 -0.8148
    1DOPE   C36   92   5.992   6.078   8.276  0.2160  0.5984  0.2062
    1DOPE   H6X   93   6.021   5.972   8.258 -3.3725 -0.2804 -1.1735
    1DOPE   H6Y   94   6.074   6.145   8.242  0.6135 -0.0044 -0.0574
    1DOPE   C37   95   5.875   6.108   8.184 -0.6335  0.5738 -0.7928
    1DOPE   H7X   96   5.778   6.065   8.220 -1.3390  1.1233 -1.9792
    1DOPE   H7Y   97   5.874   6.219   8.178  0.6660  0.5716 -1.1719
    1DOPE   C38   98   5.906   6.050   8.047 -0.5007 -0.0512  1.4104
    1DOPE   H8X   99   5.920   5.940   8.061 -1.3476 -0.6449 -1.7250
    1DOPE   H8Y  100   6.003   6.082   8.004 -1.0978 -1.6883 -1.3834
    1DOPE   C39  101   5.792   6.075   7.956  0.6672 -0.5031 -0.0648
    1DOPE   H9X  102   5.696   6.074   8.009 -0.5251 -2.5739 -2.0632
    1DOPE  C310  103   5.793   6.106   7.824 -0.0100  0.4996  0.4249
    1DOPE  H10X  104   5.698   6.128   7.772 -1.1962 -1.4282  1.6397
    1DOPE  C311  105   5.912   6.104   7.732  0.0550  0.5874  0.3306
    1DOPE  H11X  106   5.958   6.204   7.717  0.5337  0.8992  3.1928
    1DOPE  H11Y  107   5.991   6.040   7.777  0.5805  1.6610  0.9802
    1DOPE  C312  108   5.875   6.046   7.593  0.1199 -0.2019  0.2516
    1DOPE  H12X  109   5.811   6.117   7.538  0.1260 -0.7572 -0.4839
    1DOPE  H12Y  110   5.828   5.945   7.600 -2.1952  0.8957  1.8199
    1DOPE  C313  111   5.997   6.030   7.497  0.4718 -0.3211  0.1954
    1DOPE  H13X  112   6.049   6.127   7.487  2.2250 -0.9297  2.4471
    1DOPE  H13Y  113   6.067   5.973   7.561 -0.8274 -1.7913  0.3758
    1DOPE  C314  114   5.958   5.965   7.368  0.6520  0.3194  0.0151
    1DOPE  H14X  115   5.881   6.026   7.316 -1.3859 -1.0819  1.2496
    1DOPE  H14Y  116   5.899   5.874   7.393  1.2496  0.3979  1.8446
    1DOPE  C315  117   6.075   5.930   7.272  0.3005  0.3523  0.2051
    1DOPE  H15X  118   6.125   6.023   7.236  2.1101 -0.8948 -0.6302
    1DOPE  H15Y  119   6.032   5.886   7.180  1.2232 -0.3080  0.0833
    1DOPE  C316  120   6.186   5.836   7.326  0.5673  0.8890  0.3180
    1DOPE  H16X  121   6.145   5.735   7.348  0.2419  0.9197 -0.1301
    1DOPE  H16Y  122   6.232   5.872   7.421 -0.2046  0.0918  1.0116
    1DOPE  C317  123   6.293   5.809   7.226 -0.1271  0.3094 -0.0631
    1DOPE  H17X  124   6.250   5.757   7.137 -1.5305  1.4534 -0.0826
    1DOPE  H17Y  125   6.335   5.906   7.192  0.2000  0.1920  0.0072
    1DOPE  C318  126   6.397   5.724   7.293 -0.2425 -0.4666  0.1335
    1DOPE  H18X  127   6.352   5.626   7.319  1.2360 -0.9236  1.0078
    1DOPE  H18Y  128   6.486   5.714   7.228  1.7031 -0.2139  2.6427
    1DOPE  H18Z  129   6.430   5.772   7.387 -1.0575  0.4909 -0.0413
    2DOPE     N  130   4.876   5.996  10.042 -0.6185 -0.0317  0.4198
    2DOPE   HN1  131   4.783   5.993   9.996 -0.0183 -3.0183 -0.7861
    2DOPE   HN2  132   4.920   5.906  10.016 -1.5480  0.0473 -1.6374
    2DOPE   HN3  133   4.854   6.003  10.144  1.8668 -0.2868  1.0448
    2DOPE   C12  134   4.962   6.124  10.009  0.1131  0.6639  0.0796
    2DOPE  H12A  135   5.045   6.121  10.083  0.8513 -0.0936 -0.7561
    2DOPE  H12B  136   4.901   6.214  10.032  2.1516  1.3740  3.3119
    2DOPE   C11  137   5.008   6.120   9.858  0.3281  0.5451 -0.7357
    2DOPE  H11A  138   5.081   6.042   9.831 -2.4252 -2.5267  0.0863
    2DOPE  H11B  139   5.071   6.208   9.832 -0.6504  1.4377 -0.1608
    2DOPE     P  140   4.822   6.238   9.711 -0.0293  0.0555 -0.1847
    2DOPE   O13  141   4.800   6.348   9.814 -0.2452  0.1161  0.0946
    2DOPE   O14  142   4.699   6.204   9.637  0.6968 -0.1523 -0.3490
    2DOPE   O11  143   4.923   6.294   9.604 -0.0986 -0.5560 -0.7267
    2DOPE   O12  144   4.891   6.106   9.773  0.7454  0.0201 -0.0163
    2DOPE    C1  145   4.946   6.232   9.479 -0.5355  0.0225 -0.2693
    2DOPE    HA  146   4.865   6.243   9.405 -0.0449  1.1449 -0.6669
    2DOPE    HB  147   4.985   6.130   9.497  0.9364  0.8564  1.7287
    2DOPE    C2  148   5.065   6.308   9.413 -0.3587  0.7863  0.1272
    2DOPE    HS  149   5.125   6.366   9.487 -2.0026  0.7297  1.5694
    2DOPE   O21  150   5.019   6.393   9.310  0.0470  0.1045 -0.7693
    2DOPE   C21  151   5.097   6.477   9.262  0.7511  0.3579 -0.0395
    2DOPE   O22  152   5.208   6.510   9.305  0.1844  0.0920 -0.0996
    2DOPE   C22  153   5.024   6.525   9.133 -0.5196 -0.2430  0.4761
    2DOPE   H2R  154   4.926   6.572   9.156  0.7685  1.9609  1.6921
    2DOPE   H2S  155   5.008   6.434   9.071 -0.9817  0.1266  0.0395
    2DOPE    C3  156   5.162   6.193   9.353 -0.2741 -0.2363 -0.4518
    2DOPE    HX  157   5.204   6.137   9.439  0.3783 -0.4924 -0.9393
    2DOPE    HY  158   5.242   6.250   9.301  0.0488 -0.4489 -0.1919
    2DOPE   O31  159   5.089   6.116   9.257  0.0734 -0.1245 -0.3139
    2DOPE   C31  160   5.111   6.139   9.131 -0.4167 -0.0431 -0.1637
    2DOPE   O32  161   5.196   6.216   9.084  0.5890  0.5047  0.4208
    2DOPE   C32  162   5.024   6.055   9.047 -0.6221 -0.0069 -0.2008
    2DOPE   H2X  163   5.093   6.001   8.979  0.1823  0.2582  0.3800
    2DOPE   H2Y  164   4.976   5.978   9.110 -0.5491  0.5852  0.6010
    2DOPE   C23  165   5.108   6.613   9.036 -1.3181 -0.3549 -0.1783
    2DOPE   H3R  166   5.195   6.545   9.020  1.2760  1.3182  4.5234
    2DOPE   H3S  167   5.146   6.710   9.076  0.5542  0.1082 -2.7944
    2DOPE   C24  168   5.036   6.624   8.902 -0.4722 -0.1124 -0.5888
    2DOPE   H4R  169   4.965   6.704   8.934 -0.6942 -0.2245 -0.7965
    2DOPE   H4S  170   4.986   6.528   8.876 -0.3654 -0.3314  0.0144
    2DOPE   C25  171   5.125   6.666   8.786 -0.3878  0.3242  0.1685
    2DOPE   H5R  172   5.207   6.590   8.786 -0.7324 -0.0679  1.3313
    2DOPE   H5S  173   5.179   6.760   8.808  0.9304 -0.5669  0.9231
    2DOPE   C26  174   5.048   6.661   8.646 -0.1496 -0.1017 -0.4010
    2DOPE   H6R  175   4.991   6.756   8.643  1.2947  0.7903 -2.1772
    2DOPE   H6S  176   4.978   6.576   8.661  0.4730 -0.3844  1.0025
    2DOPE   C27  177   5.130   6.642   8.519  0.2522  0.0916  0.0232
    2DOPE   H7R  178   5.157   6.534   8.517 -1.4138 -0.3559 -0.2513
    2DOPE   H7S  179   5.217   6.706   8.543 -0.5885  1.2125  0.1455
    2DOPE   C28  180   5.064   6.688   8.386  0.4686  0.2442 -0.0568
    2DOPE   H8R  181   5.139   6.678   8.305 -0.2679  0.4746 -0.7823
    2DOPE   H8S  182   5.045   6.797   8.403  0.5274  0.3897 -0.8784
    2DOPE   C29  183   4.931   6.620   8.351  0.1870 -0.0648 -0.4387
    2DOPE   H9R  184   4.848   6.626   8.423  0.2488  0.9393 -0.4381
    2DOPE  C210  185   4.910   6.557   8.234  0.5705  0.4474  0.0972
    2DOPE  H10R  186   4.808   6.517   8.226  0.4227  0.1728  2.5442
    2DOPE  C211  187   5.006   6.536   8.120  0.1024  1.0021 -0.0630
    2DOPE  H11R  188   5.019   6.426   8.112 -2.1236  0.6743  0.2929
    2DOPE  H11S  189   5.109   6.572   8.141  0.5993 -0.9969  1.2695
    2DOPE  C212  190   4.945   6.590   7.993  0.0558 -0.4415  0.2474
    2DOPE  H12R  191   4.894   6.687   8.006  2.3367  0.8040  0.4555
    2DOPE  H12S  192   4.855   6.529   7.968 -1.9895  2.3771  0.2831
    2DOPE  C213  193   5.046   6.588   7.878 -0.5744 -0.2953  1.1277
    2DOPE  H13R  194   5.097   6.490   7.889  0.4221  0.3787  2.9426
    2DOPE  H13S  195   5.117   6.670   7.903  0.2365 -0.9772  1.1271
    2DOPE  C214  196   4.996   6.619   7.742  0.1455  0.3078  0.2701
    2DOPE  H14R  197   4.942   6.716   7.744 -1.4284 -0.4858 -1.3694
    2DOPE  H14S  198   4.931   6.535   7.710  0.9540 -0.2101 -0.0471
    2DOPE  C215  199   5.106   6.634   7.639 -0.3395  0.0876 -0.5470
    2DOPE  H15R  200   5.158   6.537   7.622  0.1016  0.1659  0.2865
    2DOPE  H15S  201   5.182   6.704   7.680 -1.7795  0.9424  0.7871
    2DOPE  C216  202   5.063   6.683   7.503 -0.0818 -0.4151  0.4846
    2DOPE  H16R  203   4.996   6.769   7.521  0.8508  0.0078  2.1297
    2DOPE  H16S  204   5.001   6.602   7.459  1.1838 -0.7981 -0.6884
    2DOPE  C217  205   5.174   6.710   7.403  0.1312 -0.4899 -0.8515
    2DOPE  H17R  206   5.238   6.622   7.382 -1.2824 -1.0597 -3.0117
    2DOPE  H17S  207   5.250   6.780   7.444  1.3593 -1.7484 -0.9051
    2DOPE  C218  208   5.119   6.769   7.273 -0.0388  0.2449  0.2530
    2DOPE  H18R  209   5.202   6.787   7.200 -0.6234  1.1179 -0.2184
    2DOPE  H18S  210   5.074   6.870   7.284  0.6091  0.3361  2.3649
    2DOPE  H18T  211   5.039   6.704   7.231 -0.0720  0.1454  0.4732
    2DOPE   C33  212   4.918   6.130   8.959  0.2212  0.0011  0.5078
    2DOPE   H3X  213   4.863   6.199   9.026 -1.3623  0.9599 -1.6638
    2DOPE   H3Y  214   4.841   6.061   8.918 -0.2768  1.5596 -1.3442
    2DOPE   C34  215   4.978   6.213   8.840  0.1046  0.2779  0.2705
    2DOPE   H4X  216   4.898   6.255   8.775 -0.4561 -0.7596  0.2727
    2DOPE   H4Y  217   5.039   6.294   8.885 -0.0718 -0.2381  1.4768
    2DOPE   C35  218   5.062   6.117   8.744 -0.1844  0.2174  0.7933
    2DOPE   H5X  219   4.999   6.027   8.731  0.7242 -0.2916 -0.1793
    2DOPE   H5Y  220   5.150   6.072   8.794  0.2178 -0.1915 -0.2675
    2DOPE   C36  221   5.088   6.184   8.605  0.4659 -0.3386  0.0964
    2DOPE   H6X  222   5.158   6.110   8.560  1.7465 -0.4562  2.1804
    2DOPE   H6Y  223   5.133   6.283   8.628 -2.5642  0.7940  1.7880
    2DOPE   C37  224   4.968   6.187   8.510 -0.6396  0.9228  1.1719
    2DOPE   H7X  225   4.920   6.087   8.512  0.7001  0.1012 -1.8684
    2DOPE   H7Y  226   4.907   6.271   8.549  0.0255  1.2804  1.4442
    2DOPE   C38  227   5.011   6.205   8.356  0.1378  0.3011  0.6143
    2DOPE   H8X  228   5.077   6.294   8.348  0.5436  0.0282  0.9154
    2DOPE   H8Y  229   4.921   6.231   8.296  0.9501  0.1236 -0.7105
    2DOPE   C39  230   5.095   6.093   8.296  0.1095 -0.0078  0.8586
    2DOPE   H9X  231   5.126   6.010   8.362  0.9291  0.6729  1.3460
    2DOPE  C310  232   5.115   6.071   8.160 -0.2231 -0.0218  0.0791
    2DOPE  H10X  233   5.180   5.988   8.129 -1.1784 -0.8547  0.2445
    2DOPE  C311  234   5.054   6.153   8.048 -0.4378 -0.3347 -0.1614
    2DOPE  H11X  235   4.951   6.188   8.067 -0.7714  0.0591 -2.4511
    2DOPE  H11Y  236   5.125   6.238   8.038  0.4776 -0.8652  1.4744
    2DOPE  C312  237   5.058   6.088   7.906 -0.4501 -0.0490  0.0128
    2DOPE  H12X  238   5.004   5.992   7.893 -1.0765  0.3898 -0.6726
    2DOPE  H12Y  239   5.167   6.067   7.893  0.6611  3.3374  2.5079
    2DOPE  C313  240   5.031   6.185   7.796 -0.3494  0.1744  0.5404
    2DOPE  H13X  241   4.922   6.208   7.792 -0.2488  0.5815 -0.2752
    2DOPE  H13Y  242   5.074   6.285   7.819  1.0434 -0.2451 -0.0951
    2DOPE  C314  243   5.072   6.146   7.652 -0.0043  0.4011 -1.0541
    2DOPE  H14X  244   4.998   6.072   7.614  1.2902 -1.4321 -0.1596
    2DOPE  H14Y  245   5.171   6.097   7.661  0.2220  1.2470  2.3264
    2DOPE  C315  246   5.092   6.263   7.557  0.1540  0.3654 -0.4003
    2DOPE  H15X  247   5.169   6.339   7.579  0.8330 -0.7243  1.2269
    2DOPE  H15Y  248   5.002   6.322   7.585 -0.1268 -0.5952  0.8275
    2DOPE  C316  249   5.095   6.226   7.407  1.0509  0.6072  0.1234
    2DOPE  H16X  250   5.032   6.135   7.409  3.3833 -1.1160 -0.5153
    2DOPE  H16Y  251   5.196   6.185   7.385  0.9875  1.3760 -1.8028
    2DOPE  C317  252   5.044   6.328   7.299 -0.9099  0.0026 -0.1653
    2DOPE  H17X  253   4.950   6.363   7.346  0.2697  1.1777  1.4926
    2DOPE  H17Y  254   5.118   6.412   7.301  0.8119 -1.4417 -0.6224
    2DOPE  C318  255   5.035   6.266   7.158 -0.5846 -0.6146 -0.0755
    2DOPE  H18X  256   5.013   6.328   7.068 -1.0336 -0.0766  0.3986
    2DOPE  H18Y  257   5.134   6.222   7.133 -0.3868  1.0443 -2.6421
    2DOPE  H18Z  258   4.960   6.184   7.160 -0.0793 -1.1475 -1.5896
    3DOPE     N  259   3.756   1.075   8.843  0.1227  0.2431 -0.0053
    3DOPE   HN1  260   3.794   1.167   8.813 -2.0220  0.5003 -2.2890
    3DOPE   HN2  261   3.742   1.027   8.752  0.8226  0.1847 -0.0871
    3DOPE   HN3  262   3.663   1.089   8.886 -0.9745 -0.9437 -1.8561
    3DOPE   C12  263   3.845   0.995   8.940  0.4576 -0.1574  0.7807
    3DOPE  H12A  264   3.828   0.887   8.920 -0.0863  0.4379 -2.4941
    3DOPE  H12B  265   3.809   1.001   9.045 -1.3116 -1.3912  0.2811
    3DOPE   C11  266   3.996   1.015   8.923  0.2253 -0.5845  0.0893
    3DOPE  H11A  267   4.060   0.951   8.988 -1.6775 -2.4977  0.1913
    3DOPE  H11B  268   4.013   1.118   8.960  0.1821 -0.4347 -0.3087
    3DOPE     P  269   4.127   0.894   8.737 -0.2447  0.1714  0.1831
    3DOPE   O13  270   4.101   0.771   8.817 -0.1954 -0.0229  0.4667
    3DOPE   O14  271   4.266   0.944   8.741 -0.0802 -0.1339 -0.2202
    3DOPE   O11  272   4.093   0.863   8.583  0.4707  0.7309  0.4773
    3DOPE   O12  273   4.026   1.002   8.783  0.1048 -0.1949  0.2962
    3DOPE    C1  274   3.980   0.927   8.517  0.2719  0.6570 -0.2541
    3DOPE    HA  275   3.957   1.021   8.570  2.9139  0.5306  1.2834
    3DOPE    HB  276   3.890   0.862   8.516  1.1488 -1.1526 -6.8035
    3DOPE    C2  277   4.025   0.952   8.369  0.1121  0.0892 -0.6733
    3DOPE    HS  278   3.964   1.035   8.327  1.4618  0.6443 -1.6412
    3DOPE   O21  279   4.004   0.833   8.296 -0.0313 -0.2611  0.1365
    3DOPE   C21  280   3.876   0.802   8.288 -0.4406  0.0852  0.4955
    3DOPE   O22  281   3.785   0.877   8.327  0.1464  0.1392  0.3599
    3DOPE   C22  282   3.861   0.658   8.238  0.8064  0.2609  0.0691
    3DOPE   H2R  283   3.791   0.606   8.306 -1.0828  1.5197 -0.8406
    3DOPE   H2S  284   3.958   0.604   8.229 -1.0384 -3.0019 -2.7530
    3DOPE    C3  285   4.175   0.980   8.358  0.3589 -0.2504 -0.6162
    3DOPE    HX  286   4.236   0.908   8.418 -0.6678 -0.1956  0.5224
    3DOPE    HY  287   4.208   1.078   8.398 -0.0204 -1.4830  3.0146
    3DOPE   O31  288   4.223   0.974   8.221 -0.0588  0.4163 -0.1869
    3DOPE   C31  289   4.199   1.076   8.144  0.3336 -0.1343  0.6409
    3DOPE   O32  290   4.142   1.176   8.174 -0.6359  0.3260  0.1751
    3DOPE   C32  291   4.268   1.057   8.006 -0.3830 -0.3682 -0.9957
    3DOPE   H2X  292   4.363   1.114   8.009  0.8999 -2.2888 -2.3264
    3DOPE   H2Y  293   4.304   0.952   8.004  0.6089 -0.2066  2.4015
    3DOPE   C23  294   3.793   0.657   8.101  0.2833  0.0072  0.8872
    3DOPE   H3R  295   3.696   0.711   8.096  0.4009  0.1690  0.1774
    3DOPE   H3S  296   3.765   0.550   8.090 -0.0774  0.1150  0.7389
    3DOPE   C24  297   3.889   0.685   7.988 -0.2219 -0.2957  0.5658
    3DOPE   H4R  298   3.983   0.628   8.005  0.2034 -0.7479 -2.7241
    3DOPE   H4S  299   3.912   0.793   7.983 -1.2659 -0.1096 -1.9742
    3DOPE   C25  300   3.842   0.646   7.845 -0.4341  0.5676  0.1772
    3DOPE   H5R  301   3.742   0.684   7.818  0.3201  1.9369 -0.8433
    3DOPE   H5S  302   3.838   0.535   7.845 -0.5432  0.5298 -2.2476
    3DOPE   C26  303   3.934   0.686   7.727  0.3444  0.5900 -0.3074
    3DOPE   H6R  304   4.008   0.603   7.721 -0.6116 -0.1764 -3.1875
    3DOPE   H6S  305   3.996   0.777   7.746 -1.8738  2.4997 -1.6447
    3DOPE   C27  306   3.875   0.698   7.587 -0.0972 -0.3675 -0.4224
    3DOPE   H7R  307   3.960   0.719   7.519 -0.3555  0.4503 -0.5014
    3DOPE   H7S  308   3.801   0.780   7.575  0.4659  0.1653 -0.2676
    3DOPE   C28  309   3.809   0.569   7.538  0.0499 -0.3606  0.0021
    3DOPE   H8R  310   3.733   0.531   7.609 -0.7686 -0.8596 -1.1190
    3DOPE   H8S  311   3.888   0.491   7.534  1.3866  0.8643  1.3805
    3DOPE   C29  312   3.730   0.595   7.416 -0.1018 -0.3217 -0.5814
    3DOPE   H9R  313   3.623   0.607   7.437  0.2472  2.2700  0.0934
    3DOPE  C210  314   3.779   0.597   7.289  0.4053  0.1248 -0.1518
    3DOPE  H10R  315   3.706   0.629   7.214 -0.4194 -1.3937 -0.0367
    3DOPE  C211  316   3.919   0.568   7.247 -0.2428 -0.4723  0.0870
    3DOPE  H11R  317   3.931   0.477   7.184 -0.3698  0.2968 -1.0915
    3DOPE  H11S  318   3.992   0.559   7.330  0.1588 -1.4150 -0.3583
    3DOPE  C212  319   3.980   0.690   7.167  0.8984 -0.4830 -0.7970
    3DOPE  H12R  320   3.920   0.733   7.084 -0.5025  0.8401  0.8300
    3DOPE  H12S  321   4.084   0.663   7.139  1.9100  0.1802  2.0002
    3DOPE  C213  322   4.001   0.821   7.255  0.0461 -0.0926 -0.0683
    3DOPE  H13R  323   4.057   0.791   7.347  0.7507  1.6866  0.1223
    3DOPE  H13S  324   3.908   0.876   7.277  0.5366  0.1077  1.6653
    3DOPE  C214  325   4.107   0.918   7.191  0.0680 -0.6539 -0.1727
    3DOPE  H14R  326   4.195   0.864   7.150  1.3246  1.7167 -0.8237
    3DOPE  H14S  327   4.153   0.977   7.274 -0.0361 -1.8515  0.7623
    3DOPE  C215  328   4.059   1.007   7.079  0.1074 -0.3178  0.1242
    3DOPE  H15R  329   3.968   1.068   7.096  0.7472  0.6709  0.0680
    3DOPE  H15S  330   4.032   0.939   6.995  1.5339  0.9958 -1.4694
    3DOPE  C216  331   4.158   1.111   7.025  0.5826 -0.4352  0.0836
    3DOPE  H16R  332   4.183   1.177   7.110  0.4393  1.7178 -1.4362
    3DOPE  H16S  333   4.099   1.172   6.953 -1.5957 -4.1329 -1.5711
    3DOPE  C217  334   4.287   1.065   6.957  0.1430 -0.0312 -0.6687
    3DOPE  H17R  335   4.353   1.028   7.039 -1.8494 -0.0833  1.0025
    3DOPE  H17S  336   4.339   1.148   6.904  1.9114 -1.4859 -1.3025
    3DOPE  C218  337   4.275   0.955   6.856  0.1768  0.5809  0.0832
    3DOPE  H18R  338   4.207   0.979   6.772 -1.3720  1.6729  1.5988
    3DOPE  H18S  339   4.224   0.875   6.915 -1.6739  3.7770  3.1653
    3DOPE  H18T  340   4.372   0.919   6.814 -0.6003 -0.4134 -0.8983
    3DOPE   C33  341   4.200   1.107   7.881  0.1998  0.0731  0.1707
    3DOPE   H3X  342   4.263   1.167   7.812 -0.3726  0.4201 -0.0584
    3DOPE   H3Y  343   4.121   1.176   7.917 -1.1509 -1.8498  1.0657
    3DOPE   C34  344   4.129   1.003   7.792  0.1761 -0.1600  0.1157
    3DOPE   H4X  345   4.189   0.910   7.785 -0.3194 -0.5924  1.3875
    3DOPE   H4Y  346   4.039   0.964   7.844  1.4319 -2.3435  0.7783
    3DOPE   C35  347   4.087   1.051   7.651  0.3562  0.4141  0.2440
    3DOPE   H5X  348   4.014   0.979   7.608  1.0142 -1.2648  1.7724
    3DOPE   H5Y  349   4.171   1.047   7.579  0.1666 -1.1861  0.0714
    3DOPE   C36  350   4.020   1.191   7.647 -0.1254 -0.2742 -0.2844
    3DOPE   H6X  351   4.075   1.270   7.703 -1.6431  0.3324  0.4313
    3DOPE   H6Y  352   3.923   1.180   7.701  0.0403 -1.4837 -0.1965
    3DOPE   C37  353   3.995   1.242   7.509  0.0486 -0.0866 -0.0119
    3DOPE   H7X  354   4.088   1.268   7.453  0.0545 -2.2987 -1.1142
    3DOPE   H7Y  355   3.948   1.166   7.443 -0.4747  0.6150 -0.4616
    3DOPE   C38  356   3.905   1.366   7.521 -1.0809  0.6999 -0.2569
    3DOPE   H8X  357   3.841   1.358   7.612  0.3537 -1.8685  0.6164
    3DOPE   H8Y  358   3.838   1.361   7.433 -1.5665  0.0837  0.1378
    3DOPE   C39  359   3.981   1.494   7.536 -0.4083 -0.2982  0.2088
    3DOPE   H9X  360   4.003   1.515   7.642  0.3093 -1.2144  0.2513
    3DOPE  C310  361   4.008   1.585   7.441  0.1049  0.6143 -0.4619
    3DOPE  H10X  362   4.043   1.687   7.464  2.4660  0.1953 -1.8184
    3DOPE  C311  363   3.996   1.559   7.293 -0.1244  0.2403  0.2598
    3DOPE  H11X  364   4.085   1.600   7.240 -0.2646 -1.5961 -1.5162
    3DOPE  H11Y  365   4.002   1.449   7.278  1.4062  0.2590  0.6082
    3DOPE  C312  366   3.870   1.627   7.223 -0.2591  0.3961 -0.9106
    3DOPE  H12X  367   3.874   1.734   7.251  0.2547 -0.1054  1.0535
    3DOPE  H12Y  368   3.775   1.586   7.264  0.2481 -1.2183 -1.2613
    3DOPE  C313  369   3.874   1.602   7.072 -0.1462 -0.6803 -0.4940
    3DOPE  H13X  370   3.794   1.660   7.022 -0.3127  1.2638  1.8626
    3DOPE  H13Y  371   3.974   1.627   7.030  0.7693 -2.2254  0.6440
    3DOPE  C314  372   3.857   1.455   7.045  0.2453  0.4396  0.7744
    3DOPE  H14X  373   3.757   1.426   7.083  1.0650  0.0071  2.7465
    3DOPE  H14Y  374   3.923   1.387   7.102 -1.1294  0.8619  2.9775
    3DOPE  C315  375   3.858   1.444   6.892 -0.3422  0.4780  0.1136
    3DOPE  H15X  376   3.956   1.477   6.852  0.3306  1.4492  2.4168
    3DOPE  H15Y  377   3.775   1.499   6.841  0.7907  1.1136 -1.0903
    3DOPE  C316  378   3.856   1.293   6.844  0.0241 -0.2024  0.3288
    3DOPE  H16X  379   3.748   1.275   6.868  0.0758  0.1980  0.8957
    3DOPE  H16Y  380   3.913   1.233   6.918 -1.2981 -1.1369  0.6325
    3DOPE  C317  381   3.903   1.265   6.708 -0.4949 -0.1796 -0.3098
    3DOPE  H17X  382   3.833   1.287   6.625  0.9133 -0.8687 -1.7486
    3DOPE  H17Y  383   3.989   1.335   6.697  0.8166 -1.6603  0.0974
    3DOPE  C318  384   3.949   1.123   6.680 -0.4285  0.3040  0.7903
    3DOPE  H18X  385   4.017   1.120   6.593  1.6851 -0.7837  2.3867
    3DOPE  H18Y  386   4.010   1.100   6.770 -0.4512  0.1501  0.7649
    3DOPE  H18Z  387   3.870   1.045   6.678  2.0101 -2.2942 -0.4274
    4DOPE     N  388   3.742   4.148   8.908  0.3116  0.0410 -0.4362
    4DOPE   HN1  389   3.662   4.190   8.856 -0.0852 -0.9072 -0.6033
    4DOPE   HN2  390   3.781   4.067   8.857 -0.8143 -1.6359  1.2202
    4DOPE   HN3  391   3.718   4.112   9.003  5.2754 -4.4187 -0.4161
    4DOPE   C12  392   3.842   4.260   8.908  0.5633  0.3869  0.5132
    4DOPE  H12A  393   3.945   4.218   8.908  1.3821  2.2448 -0.6077
    4DOPE  H12B  394   3.814   4.322   8.996  1.0798  0.7499  0.4286
    4DOPE   C11  395   3.829   4.322   8.768  0.1235  0.1682  1.2011
    4DOPE  H11A  396   3.876   4.253   8.694 -0.3097  0.8092  0.3100
    4DOPE  H11B  397   3.878   4.418   8.745  0.7282 -0.9998 -3.3070
    4DOPE     P  398   3.616   4.471   8.769 -0.5262  0.4467  0.7478
    4DOPE   O13  399   3.668   4.529   8.893  0.2643 -0.2052  0.7784
    4DOPE   O14  400   3.472   4.457   8.749  0.7959 -0.1014 -0.1055
    4DOPE   O11  401   3.683   4.550   8.649  0.1018 -0.3798 -0.2289
    4DOPE   O12  402   3.688   4.334   8.734 -0.1471 -0.6451 -0.1371
    4DOPE    C1  403   3.658   4.523   8.514 -0.0685  0.8720 -0.5293
    4DOPE    HA  404   3.637   4.620   8.463 -0.2253  0.4432 -1.3019
    4DOPE    HB  405   3.574   4.452   8.496  0.4705 -0.2403  1.1758
    4DOPE    C2  406   3.790   4.468   8.449 -0.0588 -0.2688 -0.4358
    4DOPE    HS  407   3.863   4.439   8.527 -0.7810 -1.1727 -0.0784
    4DOPE   O21  408   3.847   4.563   8.359  0.4679 -0.6903 -0.4336
    4DOPE   C21  409   3.980   4.552   8.346 -0.6555 -0.8452  0.4042
    4DOPE   O22  410   4.054   4.499   8.425 -0.0255 -0.1844  0.1518
    4DOPE   C22  411   4.024   4.619   8.219  0.2534 -0.3657  0.3394
    4DOPE   H2R  412   4.132   4.596   8.211  0.6842  1.2312  1.1096
    4DOPE   H2S  413   4.000   4.726   8.236  0.5464  0.3540 -3.0638
    4DOPE    C3  414   3.765   4.337   8.373  0.0498  1.1863 -0.1200
    4DOPE    HX  415   3.720   4.261   8.441 -0.8365 -0.0877 -2.0310
    4DOPE    HY  416   3.864   4.295   8.342 -0.8862 -0.4978 -0.9704
    4DOPE   O31  417   3.670   4.365   8.264 -0.1334  0.3394 -0.3975
    4DOPE   C31  418   3.662   4.267   8.174  0.0220  0.7384  0.2496
    4DOPE   O32  419   3.705   4.155   8.187  0.1184  0.5689 -0.7824
    4DOPE   C32  420   3.598   4.338   8.048  0.0516  0.2092 -0.4945
    4DOPE   H2X  421   3.499   4.360   8.094  1.2528  0.5400  2.1231
    4DOPE   H2Y  422   3.658   4.432   8.044 -1.5033  1.4162  1.9166
    4DOPE   C23  423   3.948   4.557   8.094  0.1026 -0.4489 -0.0454
    4DOPE   H3R  424   3.881   4.637   8.056  0.2509 -1.2558 -2.1491
    4DOPE   H3S  425   3.891   4.466   8.120 -2.0067  0.8443  0.0307
    4DOPE   C24  426   4.034   4.524   7.977 -0.7341 -0.7633 -0.2991
    4DOPE   H4R  427   4.126   4.472   8.013  0.1901 -0.1775 -1.7554
    4DOPE   H4S  428   4.065   4.621   7.932 -1.0448 -0.3251  0.4004
    4DOPE   C25  429   3.957   4.431   7.882  0.0591  0.7692 -0.0891
    4DOPE   H5R  430   3.850   4.463   7.885 -0.7366 -1.7129  0.5246
    4DOPE   H5S  431   3.962   4.326   7.918  2.9506 -0.2089 -2.8717
    4DOPE   C26  432   4.011   4.433   7.734 -0.4493 -0.7116 -0.4062
    4DOPE   H6R  433   4.119   4.406   7.739  0.2478  1.9561  2.6185
    4DOPE   H6S  434   4.016   4.541   7.711  0.9980 -0.9455 -1.3377
    4DOPE   C27  435   3.922   4.360   7.642 -0.0645  0.2189  0.1410
    4DOPE   H7R  436   3.820   4.404   7.652 -0.3444 -0.8888  3.7344
    4DOPE   H7S  437   3.920   4.259   7.689  2.1030  0.7164  1.4362
    4DOPE   C28  438   3.979   4.354   7.495  0.7881 -0.1170 -0.1502
    4DOPE   H8R  439   4.069   4.289   7.497 -0.2940 -1.6463  0.0982
    4DOPE   H8S  440   4.015   4.456   7.466 -1.4681  0.0756 -2.6218
    4DOPE   C29  441   3.876   4.305   7.393 -0.6382 -0.3813  0.7259
    4DOPE   H9R  442   3.775   4.335   7.426 -0.8271 -1.7167  1.4210
    4DOPE  C210  443   3.908   4.254   7.274 -0.6622  0.5363  0.0714
    4DOPE  H10R  444   3.821   4.244   7.206  0.3018  1.6816 -1.3923
    4DOPE  C211  445   4.043   4.234   7.212  0.4037  1.0011 -0.4940
    4DOPE  H11R  446   4.124   4.225   7.288  0.2260  1.2905 -0.2674
    4DOPE  H11S  447   4.070   4.320   7.148  1.5148  0.7826 -0.3426
    4DOPE  C212  448   4.035   4.100   7.129 -0.1954  0.2369 -0.8789
    4DOPE  H12R  449   4.003   4.015   7.192  0.0131 -0.6073 -1.8906
    4DOPE  H12S  450   4.140   4.081   7.098 -0.1312  0.8485 -1.0541
    4DOPE  C213  451   3.944   4.117   7.002  0.1352 -0.4599  0.6145
    4DOPE  H13R  452   3.840   4.112   7.042  1.1125 -1.9527  3.1794
    4DOPE  H13S  453   3.954   4.023   6.944  2.8265 -0.4789  1.0230
    4DOPE  C214  454   3.952   4.243   6.906  0.1361  0.1344  0.0675
    4DOPE  H14R  455   4.060   4.267   6.896  1.0668 -3.1705  0.8579
    4DOPE  H14S  456   3.905   4.324   6.966 -2.8356 -1.4425  0.0669
    4DOPE  C215  457   3.873   4.232   6.770  0.4747 -0.4017  0.4195
    4DOPE  H15R  458   3.768   4.203   6.790  1.0958 -1.7637  2.0277
    4DOPE  H15S  459   3.910   4.142   6.715 -3.6965 -1.9695 -0.1604
    4DOPE  C216  460   3.877   4.360   6.682 -0.4264  0.4313 -0.0177
    4DOPE  H16R  461   3.983   4.386   6.663 -0.1318 -1.8926 -2.1997
    4DOPE  H16S  462   3.824   4.440   6.739 -2.9404 -1.3452  0.3094
    4DOPE  C217  463   3.805   4.335   6.541  0.7093  0.4490 -0.4906
    4DOPE  H17R  464   3.696   4.325   6.560  0.8010  0.1037 -0.1189
    4DOPE  H17S  465   3.836   4.235   6.502 -1.3463 -0.3456 -0.2329
    4DOPE  C218  466   3.842   4.437   6.435 -0.3290 -0.3448  0.1075
    4DOPE  H18R  467   3.830   4.535   6.485 -1.0166 -0.6622  0.5784
    4DOPE  H18S  468   3.789   4.423   6.338  0.2554  0.5301 -0.3556
    4DOPE  H18T  469   3.950   4.419   6.416  0.3667  1.4648  1.9873
    4DOPE   C33  470   3.599   4.249   7.918  0.7272 -0.4023 -0.5988
    4DOPE   H3X  471   3.519   4.172   7.921  2.0494 -1.8618 -1.5762
    4DOPE   H3Y  472   3.696   4.198   7.903  0.7344 -0.0110 -2.0507
    4DOPE   C34  473   3.571   4.335   7.794  0.8263 -1.0266  0.0860
    4DOPE   H4X  474   3.470   4.381   7.796 -0.0192 -2.7795  0.2326
    4DOPE   H4Y  475   3.648   4.415   7.791  1.9343 -2.0761 -0.1515
    4DOPE   C35  476   3.562   4.243   7.664 -0.3434 -0.5818 -0.2655
    4DOPE   H5X  477   3.486   4.162   7.676 -2.2572  1.0128 -0.9994
    4DOPE   H5Y  478   3.657   4.194   7.635 -0.1582 -1.7079  1.9568
    4DOPE   C36  479   3.497   4.320   7.544 -0.2023  0.6189 -0.1117
    4DOPE   H6X  480   3.560   4.411   7.532  0.8307  0.1178  1.2776
    4DOPE   H6Y  481   3.398   4.355   7.580 -0.6380 -1.2643  0.6225
    4DOPE   C37  482   3.495   4.232   7.419  0.0012  0.0252  0.0892
    4DOPE   H7X  483   3.597   4.189   7.415 -0.1249 -0.2803  0.1171
    4DOPE   H7Y  484   3.444   4.134   7.435  1.0685 -0.2435  2.2944
    4DOPE   C38  485   3.437   4.289   7.290  0.4479  0.4427 -0.4347
    4DOPE   H8X  486   3.326   4.293   7.303  0.5883  1.6723  0.5773
    4DOPE   H8Y  487   3.441   4.212   7.210 -1.5077  0.9133 -1.0467
    4DOPE   C39  488   3.486   4.425   7.239 -0.0015 -0.2618 -0.3499
    4DOPE   H9X  489   3.494   4.500   7.319 -1.8785 -1.3796  0.9687
    4DOPE  C310  490   3.511   4.461   7.113 -0.4843  0.3320  0.6747
    4DOPE  H10X  491   3.551   4.562   7.095 -2.4130  1.1360  0.6865
    4DOPE  C311  492   3.511   4.358   7.003 -0.0051  0.3272 -0.2937
    4DOPE  H11X  493   3.586   4.280   7.030 -1.7695 -0.8642  1.5482
    4DOPE  H11Y  494   3.414   4.303   7.006  0.1661  0.0230 -0.1975
    4DOPE  C312  495   3.527   4.424   6.864 -0.1385 -0.1680 -0.1918
    4DOPE  H12X  496   3.530   4.334   6.798  2.0648  0.4854 -1.0593
    4DOPE  H12Y  497   3.631   4.460   6.855  0.3293 -1.2384  0.6579
    4DOPE  C313  498   3.418   4.530   6.839  0.4048 -0.1388  0.8409
    4DOPE  H13X  499   3.316   4.488   6.842  0.4835 -0.2915  2.0175
    4DOPE  H13Y  500   3.410   4.606   6.920 -1.0047  0.2654  0.3493
    4DOPE  C314  501   3.431   4.585   6.685  0.3712 -0.1152 -0.3858
    4DOPE  H14X  502   3.534   4.617   6.661  0.0396  1.4300  0.1778
    4DOPE  H14Y  503   3.357   4.667   6.672  1.6831  1.1713  0.0293
    4DOPE  C315  504   3.400   4.473   6.587  0.3008  0.4575 -0.1602
    4DOPE  H15X  505   3.293   4.447   6.602  0.6816 -0.6531  0.7531
    4DOPE  H15Y  506   3.455   4.381   6.616 -1.7853 -0.4626  1.1001
    4DOPE  C316  507   3.423   4.520   6.447  0.4874  0.1071 -0.1081
    4DOPE  H16X  508   3.520   4.573   6.436 -0.6096  2.2984  0.3339
    4DOPE  H16Y  509   3.334   4.584   6.430  0.6288  0.4476  0.4098
    4DOPE  C317  510   3.409   4.406   6.345  0.0891  0.2361 -0.3682
    4DOPE  H17X  511   3.488   4.329   6.356  1.1567  1.5651  1.9739
    4DOPE  H17Y  512   3.309   4.356   6.347  0.3145 -0.2315 -0.6993
    4DOPE  C318  513   3.413   4.459   6.204 -0.1016 -0.1116  0.1304
    4DOPE  H18X  514   3.332   4.535   6.196 -0.3539 -0.5557 -2.1345
    4DOPE  H18Y  515   3.505   4.519   6.188  0.2754  1.0742  5.1247
    4DOPE  H18Z  516   3.376   4.382   6.133 -0.1569 -0.7811  0.8755
    5DOPE     N  517   3.088   0.086   8.889 -0.0665 -0.5029 -0.0378
    5DOPE   HN1  518   3.034   0.166   8.848 -2.8190 -1.0721  2.1803
    5DOPE   HN2  519   3.187   0.085   8.856  0.1487 -3.1003  0.4686
    5DOPE   HN3  520   3.042  -0.005   8.868 -0.1545 -0.0225 -2.1711
    5DOPE   C12  521   3.091   0.122   9.033  0.4770 -0.2114  0.5432
    5DOPE  H12A  522   3.159   0.053   9.088  0.3023 -1.3461 -0.6051
    5DOPE  H12B  523   2.986   0.127   9.072  0.3749  1.1660  0.1267
    5DOPE   C11  524   3.147   0.266   9.030 -0.7554 -0.0162  0.0439
    5DOPE  H11A  525   3.252   0.258   8.993 -0.4113 -0.3510  1.0579
    5DOPE  H11B  526   3.166   0.286   9.137  1.4481  0.1461 -0.3386
    5DOPE     P  527   3.092   0.440   8.834  0.1739 -0.3260 -0.3364
    5DOPE   O13  528   3.234   0.487   8.841 -0.7900  0.0599  0.4866
    5DOPE   O14  529   2.982   0.538   8.810  0.0545  0.7211  0.2747
    5DOPE   O11  530   3.083   0.312   8.732  0.3531 -0.3197 -0.2778
    5DOPE   O12  531   3.066   0.367   8.973 -0.0472 -0.2583  0.2704
    5DOPE    C1  532   3.123   0.328   8.597 -0.5913  0.0741  0.7621
    5DOPE    HA  533   3.218   0.277   8.571  0.4022  1.3613  1.6912
    5DOPE    HB  534   3.143   0.433   8.566  3.1841 -0.8520 -0.4256
    5DOPE    C2  535   3.017   0.293   8.491  0.5006 -0.2025 -0.2197
    5DOPE    HS  536   2.978   0.190   8.505 -1.4667  0.4538 -0.5476
    5DOPE   O21  537   3.063   0.323   8.358 -1.0311  0.1226  0.4359
    5DOPE   C21  538   3.022   0.239   8.264 -0.1241 -0.2284  0.3794
    5DOPE   O22  539   2.964   0.134   8.281  0.1729 -0.1039  0.6754
    5DOPE   C22  540   3.062   0.292   8.123  0.8105  0.0934 -0.5078
    5DOPE   H2R  541   3.172   0.299   8.117  0.7005  0.5781 -2.5952
    5DOPE   H2S  542   3.019   0.394   8.128 -0.2438 -0.3534  0.1558
    5DOPE    C3  543   2.893   0.392   8.517  0.1105  0.1989  1.0668
    5DOPE    HX  544   2.935   0.492   8.540  0.1500  1.0793 -2.3450
    5DOPE    HY  545   2.836   0.358   8.606 -0.0619 -2.6540 -0.0243
    5DOPE   O31  546   2.805   0.394   8.402  0.1328  0.0614  0.4717
    5DOPE   C31  547   2.713   0.306   8.394 -1.1011 -0.1463 -0.0258
    5DOPE   O32  548   2.704   0.204   8.461  0.8776  0.4347 -0.5005
    5DOPE   C32  549   2.634   0.330   8.274  0.8742 -0.4256  0.4591
    5DOPE   H2X  550   2.526   0.342   8.299  1.0187 -2.3805  2.2340
    5DOPE   H2Y  551   2.660   0.421   8.215 -3.4596  1.0074  0.3799
    5DOPE   C23  552   3.006   0.205   8.007  0.0792  0.3247  0.3871
    5DOPE   H3R  553   2.898   0.224   7.992  0.1936 -0.1102 -1.2092
    5DOPE   H3S  554   3.008   0.095   8.022 -2.4100  0.2269  0.3563
    5DOPE   C24  555   3.066   0.238   7.868 -0.3755  0.0438 -0.0026
    5DOPE   H4R  556   3.172   0.208   7.855 -0.6494 -1.9868  1.8730
    5DOPE   H4S  557   3.044   0.346   7.853  2.0445  0.7008  0.7039
    5DOPE   C25  558   2.992   0.162   7.751 -0.0393 -0.4068 -0.4874
    5DOPE   H5R  559   2.963   0.064   7.793  1.7361 -0.8186 -0.1175
    5DOPE   H5S  560   3.059   0.149   7.663 -1.1289 -2.0949 -1.1134
    5DOPE   C26  561   2.868   0.237   7.688 -0.4459  0.5569  0.0998
    5DOPE   H6R  562   2.896   0.339   7.654  2.2393 -0.4787 -1.0628
    5DOPE   H6S  563   2.797   0.241   7.773  1.8338  0.1468  2.1274
    5DOPE   C27  564   2.797   0.162   7.567 -0.1300  0.1138  0.1126
    5DOPE   H7R  565   2.758   0.060   7.586 -0.9056 -0.1885 -2.6989
    5DOPE   H7S  566   2.856   0.152   7.474  0.2084 -0.3127  0.3705
    5DOPE   C28  567   2.666   0.240   7.530 -1.1738 -0.2960 -0.0558
    5DOPE   H8R  568   2.711   0.327   7.477  0.6451  0.2489  2.1948
    5DOPE   H8S  569   2.613   0.283   7.618 -1.4231  0.6855 -0.6730
    5DOPE   C29  570   2.553   0.174   7.452 -0.0324  0.5613 -0.3816
    5DOPE   H9R  571   2.462   0.157   7.512  2.0754 -1.9283  2.4096
    5DOPE  C210  572   2.554   0.153   7.318 -0.0017 -0.2140 -0.2974
    5DOPE  H10R  573   2.462   0.107   7.279 -1.0990  0.9015  0.8570
    5DOPE  C211  574   2.662   0.187   7.225  0.0188 -0.4255 -0.4410
    5DOPE  H11R  575   2.732   0.269   7.252  0.3257 -0.3418 -1.4551
    5DOPE  H11S  576   2.614   0.238   7.139  2.4721 -1.0956 -2.3041
    5DOPE  C212  577   2.734   0.057   7.177 -0.2475  0.7568 -0.8817
    5DOPE  H12R  578   2.654  -0.001   7.127  0.3569  0.5778 -1.6718
    5DOPE  H12S  579   2.769  -0.002   7.264 -0.1857  2.4365  0.2770
    5DOPE  C213  580   2.853   0.087   7.092 -0.5014 -0.4560  0.5184
    5DOPE  H13R  581   2.904  -0.008   7.065  1.1608  0.6273 -0.3999
    5DOPE  H13S  582   2.930   0.155   7.134 -0.4530  0.8661 -1.5596
    5DOPE  C214  583   2.828   0.171   6.960 -0.2815  0.0759  0.8351
    5DOPE  H14R  584   2.797   0.274   6.987 -1.8107  0.3440 -1.6360
    5DOPE  H14S  585   2.735   0.132   6.911 -0.3393 -0.1102  1.0867
    5DOPE  C215  586   2.949   0.163   6.864  0.0776  0.4002  0.6867
    5DOPE  H15R  587   2.993   0.061   6.860  0.4975  0.4626  2.5856
    5DOPE  H15S  588   3.030   0.223   6.910  0.7202 -0.5736  0.8596
    5DOPE  C216  589   2.912   0.202   6.720 -0.1368  0.4941 -0.0233
    5DOPE  H16R  590   2.895   0.311   6.727  0.9270  0.7676 -1.1915
    5DOPE  H16S  591   2.818   0.157   6.680  0.3697  0.9787 -1.8907
    5DOPE  C217  592   3.026   0.183   6.625 -0.5753  0.2636  0.7771
    5DOPE  H17R  593   3.063   0.078   6.624  2.7785  1.3100 -1.3230
    5DOPE  H17S  594   3.105   0.236   6.681  0.7931 -1.7643  0.8778
    5DOPE  C218  595   3.017   0.233   6.480  0.0707  0.1292  0.0262
    5DOPE  H18R  596   3.114   0.215   6.428  0.0041 -0.5716  0.1424
    5DOPE  H18S  597   2.990   0.341   6.489 -0.9933 -0.1442  0.2397
    5DOPE  H18T  598   2.950   0.178   6.411  0.9407  1.3628 -1.9106
    5DOPE   C33  599   2.645   0.205   8.184  0.3066  0.1265 -0.1972
    5DOPE   H3X  600   2.609   0.119   8.245 -0.7318  1.1454  0.6604
    5DOPE   H3Y  601   2.753   0.199   8.159  0.1897 -0.5229 -0.5960
    5DOPE   C34  602   2.578   0.212   8.054  0.2187  0.0408 -0.6334
    5DOPE   H4X  603   2.474   0.249   8.069 -0.2443 -1.4910  0.1674
    5DOPE   H4Y  604   2.633   0.278   7.983 -0.3362 -2.6509 -3.8397
    5DOPE   C35  605   2.581   0.076   7.979 -0.6548  0.3432 -0.0171
    5DOPE   H5X  606   2.539  -0.006   8.041 -0.5313  0.3617  0.0894
    5DOPE   H5Y  607   2.680   0.028   7.963 -1.6647 -2.0838  0.5065
    5DOPE   C36  608   2.505   0.082   7.841  0.1944 -0.4355 -0.2546
    5DOPE   H6X  609   2.538   0.174   7.788 -2.5113  0.3398 -0.7725
    5DOPE   H6Y  610   2.395   0.098   7.846  0.2912  0.8960 -1.4804
    5DOPE   C37  611   2.529  -0.044   7.759  0.1099  0.7960  0.6005
    5DOPE   H7X  612   2.499  -0.024   7.654 -2.7079  0.1399  1.1834
    5DOPE   H7Y  613   2.634  -0.078   7.773 -0.3694 -1.7837 -1.2745
    5DOPE   C38  614   2.423  -0.143   7.799 -0.4215  0.6047 -0.1389
    5DOPE   H8X  615   2.334  -0.110   7.740 -0.8153 -0.3494 -0.0956
    5DOPE   H8Y  616   2.402  -0.126   7.907  0.5801  0.8864  0.0165
    5DOPE   C39  617   2.447  -0.295   7.774 -0.2633 -0.2792 -0.2863
    5DOPE   H9X  618   2.510  -0.348   7.847 -1.4432 -0.2583  0.7634
    5DOPE  C310  619   2.405  -0.371   7.673  0.2228 -0.1340 -0.1789
    5DOPE  H10X  620   2.422  -0.479   7.677  1.1241 -0.0409 -1.1817
    5DOPE  C311  621   2.323  -0.308   7.558 -0.8586  0.4152 -0.3131
    5DOPE  H11X  622   2.254  -0.388   7.525  1.1133 -0.9769 -1.1906
    5DOPE  H11Y  623   2.254  -0.233   7.603 -1.8210 -0.5715 -0.0998
    5DOPE  C312  624   2.394  -0.262   7.431 -0.6357  0.4148 -0.6155
    5DOPE  H12X  625   2.421  -0.351   7.371 -2.8355 -0.1480 -0.8524
    5DOPE  H12Y  626   2.479  -0.197   7.462  0.3536 -1.9663  2.1183
    5DOPE  C313  627   2.304  -0.174   7.344  0.6179 -0.0192  0.3561
    5DOPE  H13X  628   2.211  -0.233   7.333 -0.9698  2.3155  0.3567
    5DOPE  H13Y  629   2.285  -0.084   7.407 -2.0728  0.8669 -1.5151
    5DOPE  C314  630   2.357  -0.143   7.198 -0.4094  0.1199 -0.4791
    5DOPE  H14X  631   2.383  -0.241   7.153 -2.1280  0.5959 -2.7024
    5DOPE  H14Y  632   2.456  -0.092   7.193 -0.5688  0.3374 -1.7889
    5DOPE  C315  633   2.266  -0.048   7.114 -0.3823  0.2727  0.0597
    5DOPE  H15X  634   2.248   0.041   7.179  2.9499  1.1265  0.0041
    5DOPE  H15Y  635   2.171  -0.096   7.082 -1.2974  0.9639  1.5783
    5DOPE  C316  636   2.321   0.007   6.978 -0.1346  0.0668 -0.0048
    5DOPE  H16X  637   2.416   0.063   6.991 -0.5482  1.1725 -1.5278
    5DOPE  H16Y  638   2.254   0.074   6.922  0.3225  0.4865 -0.0578
    5DOPE  C317  639   2.345  -0.109   6.873  0.2121 -0.2139 -0.0742
    5DOPE  H17X  640   2.371  -0.068   6.774  1.3491 -0.2613  0.1848
    5DOPE  H17Y  641   2.426  -0.174   6.913  0.4760 -0.5214 -1.0972
    5DOPE  C318  642   2.222  -0.196   6.847 -0.5482  0.3168 -0.4078
    5DOPE  H18X  643   2.179  -0.241   6.939  0.5369  0.3339  0.1201
    5DOPE  H18Y  644   2.143  -0.142   6.791  0.2371  1.3382 -0.5647
    5DOPE  H18Z  645   2.244  -0.282   6.779 -1.2976  0.7205 -1.1808
    6DOPE     N  646   3.473   0.422   8.745  0.5605 -0.2949 -0.2054
    6DOPE   HN1  647   3.494   0.324   8.772  1.4180 -0.3470 -1.0079
    6DOPE   HN2  648   3.387   0.460   8.788  0.7971  0.0075 -0.0000
    6DOPE   HN3  649   3.461   0.412   8.642 -0.1473  1.1639 -0.2870
    6DOPE   C12  650   3.583   0.511   8.780  0.2443 -0.0502 -0.7942
    6DOPE  H12A  651   3.669   0.475   8.720  0.2948 -3.1934  0.9119
    6DOPE  H12B  652   3.612   0.498   8.886  0.4421  1.4732 -0.6478
    6DOPE   C11  653   3.558   0.663   8.755 -0.2851 -0.0924 -0.4574
    6DOPE  H11A  654   3.532   0.687   8.650  0.8369  0.1849 -0.6882
    6DOPE  H11B  655   3.656   0.713   8.770 -0.8476  0.7289  0.5992
    6DOPE     P  656   3.393   0.856   8.836 -0.0280 -0.1374 -0.5171
    6DOPE   O13  657   3.479   0.973   8.866 -0.6993  0.6782 -0.1024
    6DOPE   O14  658   3.259   0.853   8.907 -0.2470 -0.3427 -0.3946
    6DOPE   O11  659   3.363   0.858   8.685 -0.1170 -0.2990  0.0456
    6DOPE   O12  660   3.472   0.719   8.862  0.6582 -0.3270  0.1189
    6DOPE    C1  661   3.263   0.781   8.621 -1.0139 -0.6294  0.0861
    6DOPE    HA  662   3.160   0.817   8.643 -1.0498  0.5239 -1.7707
    6DOPE    HB  663   3.268   0.673   8.647 -0.8579 -0.8043 -0.6501
    6DOPE    C2  664   3.274   0.805   8.472 -0.0701  0.6111  0.4560
    6DOPE    HS  665   3.259   0.914   8.455 -0.0457  1.0230  2.7465
    6DOPE   O21  666   3.179   0.723   8.403  0.4829 -0.8133 -0.0025
    6DOPE   C21  667   3.065   0.786   8.378 -0.0368  0.3122  0.9822
    6DOPE   O22  668   3.032   0.903   8.399 -0.0494  0.1830 -0.1640
    6DOPE   C22  669   2.989   0.686   8.282 -0.5159 -0.6441 -0.3607
    6DOPE   H2R  670   2.932   0.617   8.348 -0.0448 -0.0223  0.7222
    6DOPE   H2S  671   3.066   0.627   8.228  0.2401  0.9955 -1.1433
    6DOPE    C3  672   3.417   0.772   8.409  0.4341  0.3993 -0.3134
    6DOPE    HX  673   3.456   0.677   8.453  0.3323  0.2692 -0.5051
    6DOPE    HY  674   3.471   0.859   8.453 -0.4812  1.5539 -1.3817
    6DOPE   O31  675   3.416   0.774   8.266 -0.1763 -0.2102 -0.0344
    6DOPE   C31  676   3.395   0.651   8.206  0.6831  0.7038 -0.5713
    6DOPE   O32  677   3.426   0.543   8.256  0.3356 -0.2889 -0.1029
    6DOPE   C32  678   3.345   0.674   8.063 -0.4541 -0.0989 -0.3411
    6DOPE   H2X  679   3.252   0.735   8.062 -0.8634 -0.4474  2.9992
    6DOPE   H2Y  680   3.428   0.734   8.019 -0.3084 -0.0454  0.0010
    6DOPE   C23  681   2.911   0.749   8.173 -0.0394  0.5768  0.0266
    6DOPE   H3R  682   2.977   0.801   8.101 -1.6829 -0.6975 -2.5775
    6DOPE   H3S  683   2.827   0.818   8.197 -1.7522 -0.3116 -2.8294
    6DOPE   C24  684   2.852   0.645   8.081 -0.4174 -0.1834 -0.8507
    6DOPE   H4R  685   2.818   0.565   8.151  1.0616 -0.3712 -0.3052
    6DOPE   H4S  686   2.935   0.611   8.015  0.3682 -1.7169  0.8410
    6DOPE   C25  687   2.741   0.697   8.000  0.6206 -0.2533 -0.3779
    6DOPE   H5R  688   2.779   0.783   7.941  1.3995  0.1676  0.7183
    6DOPE   H5S  689   2.661   0.735   8.067 -1.5338 -1.9254 -1.8591
    6DOPE   C26  690   2.688   0.599   7.893 -0.1491 -0.1284 -0.4697
    6DOPE   H6R  691   2.602   0.649   7.843 -0.2676  1.0775  0.8579
    6DOPE   H6S  692   2.650   0.510   7.947 -0.2465 -0.0982 -0.4875
    6DOPE   C27  693   2.793   0.550   7.786  0.2523 -0.2843  0.1944
    6DOPE   H7R  694   2.733   0.471   7.736 -0.7486 -0.8099  2.1265
    6DOPE   H7S  695   2.879   0.500   7.834  1.0585  0.4173 -0.4919
    6DOPE   C28  696   2.855   0.658   7.696  0.3554  0.6279  0.1252
    6DOPE   H8R  697   2.951   0.619   7.657  0.6550  2.4886 -1.1062
    6DOPE   H8S  698   2.873   0.754   7.749 -0.1717  0.6289  0.3111
    6DOPE   C29  699   2.764   0.691   7.579  0.0146 -0.0694  0.5200
    6DOPE   H9R  700   2.670   0.736   7.613 -0.0964 -0.9860  1.4651
    6DOPE  C210  701   2.773   0.658   7.446  0.0698  0.1463 -0.0672
    6DOPE  H10R  702   2.698   0.698   7.375 -0.1695  0.6484  0.4633
    6DOPE  C211  703   2.881   0.593   7.375 -1.1659 -0.6495  0.3484
    6DOPE  H11R  704   2.917   0.501   7.424  1.9061 -0.4864 -1.3522
    6DOPE  H11S  705   2.966   0.665   7.375 -2.3751  0.9001 -1.3648
    6DOPE  C212  706   2.847   0.556   7.226  0.8473  0.3463 -0.1936
    6DOPE  H12R  707   2.804   0.650   7.186 -0.6361  1.0568  2.7460
    6DOPE  H12S  708   2.767   0.478   7.232 -1.7937  2.9505  1.0233
    6DOPE  C213  709   2.969   0.488   7.156 -0.3999 -0.7517  0.0407
    6DOPE  H13R  710   2.958   0.380   7.178 -0.1862 -0.3820  2.1587
    6DOPE  H13S  711   3.064   0.505   7.211 -1.3179  2.3545  0.8664
    6DOPE  C214  712   2.985   0.507   7.006  0.1096  0.1649 -0.8893
    6DOPE  H14R  713   2.886   0.496   6.957  1.1355 -1.8093 -2.6990
    6DOPE  H14S  714   3.065   0.441   6.966  0.1147  0.2168 -0.9655
    6DOPE  C215  715   3.032   0.649   6.966 -0.2431  0.0651 -0.3022
    6DOPE  H15R  716   3.131   0.669   7.013 -1.5520  0.2371  2.6113
    6DOPE  H15S  717   2.957   0.721   7.002 -0.0851 -0.4631  1.1600
    6DOPE  C216  718   3.054   0.659   6.815  0.1737  0.1356  0.4860
    6DOPE  H16R  719   2.960   0.631   6.762  0.5542 -1.4353  0.5945
    6DOPE  H16S  720   3.125   0.579   6.784 -2.0019 -2.0171  0.7508
    6DOPE  C217  721   3.091   0.808   6.778  0.9737  0.4458 -0.4396
    6DOPE  H17R  722   3.185   0.826   6.834 -0.7825  0.2994  2.8197
    6DOPE  H17S  723   3.014   0.882   6.809  0.2890  0.1465 -1.3869
    6DOPE  C218  724   3.113   0.814   6.631  0.1005  0.6970  0.4536
    6DOPE  H18R  725   3.027   0.772   6.575 -0.9082  0.6722  1.9625
    6DOPE  H18S  726   3.206   0.762   6.599 -2.6678 -2.6764 -3.2699
    6DOPE  H18T  727   3.123   0.918   6.594 -0.8623  0.2085 -1.3096
    6DOPE   C33  728   3.326   0.545   7.981  0.1551  0.4009 -0.2572
    6DOPE   H3X  729   3.243   0.485   8.023  1.7396 -1.3228  0.5537
    6DOPE   H3Y  730   3.418   0.483   7.991  0.0660 -0.1910 -2.5867
    6DOPE   C34  731   3.298   0.564   7.829 -0.3406  0.0657 -0.4773
    6DOPE   H4X  732   3.188   0.577   7.822 -0.3535  1.9822  1.9621
    6DOPE   H4Y  733   3.349   0.660   7.804  0.4274 -0.0314  0.6403
    6DOPE   C35  734   3.333   0.437   7.751 -0.0991 -0.0806  0.7092
    6DOPE   H5X  735   3.292   0.345   7.798 -2.1850 -1.1886 -2.8911
    6DOPE   H5Y  736   3.443   0.425   7.747 -0.0999  0.1506 -1.8227
    6DOPE   C36  737   3.282   0.444   7.607  0.1604 -0.2588  0.0978
    6DOPE   H6X  738   3.171   0.455   7.613  0.2347 -0.0761  1.3036
    6DOPE   H6Y  739   3.313   0.354   7.550  0.2083 -0.2518  0.1128
    6DOPE   C37  740   3.333   0.573   7.539 -0.0831  0.3548  0.7711
    6DOPE   H7X  741   3.277   0.664   7.567 -0.0697 -0.3667  3.3398
    6DOPE   H7Y  742   3.441   0.586   7.561  0.4622 -0.8964 -0.9185
    6DOPE   C38  743   3.301   0.551   7.390 -0.3890  0.4349  0.3893
    6DOPE   H8X  744   3.196   0.519   7.373 -0.3503  0.6967 -0.4082
    6DOPE   H8Y  745   3.350   0.458   7.353  1.5681  1.6064 -0.1305
    6DOPE   C39  746   3.329   0.668   7.298 -0.5264 -0.3947  0.9668
    6DOPE   H9X  747   3.295   0.761   7.345 -2.3104 -1.3490  1.6622
    6DOPE  C310  748   3.384   0.667   7.176 -0.1392  0.4889 -0.1919
    6DOPE  H10X  749   3.388   0.763   7.124 -1.6216  1.2458  1.0036
    6DOPE  C311  750   3.423   0.535   7.108 -0.3677  0.2599 -0.1082
    6DOPE  H11X  751   3.532   0.521   7.124 -0.5701 -1.8975 -0.2694
    6DOPE  H11Y  752   3.377   0.445   7.152  0.4017  0.8695  2.0541
    6DOPE  C312  753   3.392   0.528   6.957 -0.2710  0.4867  0.0205
    6DOPE  H12X  754   3.423   0.625   6.914 -1.0828  1.2460  1.1006
    6DOPE  H12Y  755   3.288   0.499   6.927  0.4537 -1.4145 -0.8223
    6DOPE  C313  756   3.483   0.424   6.875 -0.8847 -0.1365 -0.3567
    6DOPE  H13X  757   3.590   0.447   6.894 -0.5120 -1.7812 -0.3737
    6DOPE  H13Y  758   3.476   0.325   6.924  0.6616 -0.3338 -0.4921
    6DOPE  C314  759   3.462   0.404   6.721 -1.1283 -0.0748 -0.1997
    6DOPE  H14X  760   3.475   0.498   6.663 -1.4729 -0.3904 -0.7874
    6DOPE  H14Y  761   3.358   0.369   6.706 -0.4979 -1.7149 -1.0452
    6DOPE  C315  762   3.556   0.297   6.676  0.5409  0.2522 -0.0626
    6DOPE  H15X  763   3.567   0.206   6.739  1.3610 -0.1779 -0.8104
    6DOPE  H15Y  764   3.658   0.340   6.679  0.2720  0.9530 -0.5242
    6DOPE  C316  765   3.546   0.252   6.537  0.8250  0.8753 -0.1610
    6DOPE  H16X  766   3.629   0.180   6.524 -1.0237 -1.2456 -0.8526
    6DOPE  H16Y  767   3.557   0.331   6.460  2.1217  0.9689  0.1089
    6DOPE  C317  768   3.416   0.184   6.502 -0.4001  0.0973 -0.1599
    6DOPE  H17X  769   3.392   0.097   6.566  0.1301 -2.2726 -2.9412
    6DOPE  H17Y  770   3.332   0.257   6.496  0.4920  1.1790  0.2713
    6DOPE  C318  771   3.416   0.114   6.364  0.1999  0.4533  0.3072
    6DOPE  H18X  772   3.445   0.182   6.281  0.9271  1.6904  1.5225
    6DOPE  H18Y  773   3.488   0.030   6.356  1.4082  1.6334 -2.0987
    6DOPE  H18Z  774   3.313   0.079   6.340  0.5730 -2.1340  2.0619
    7DOPE     N  775   5.629   1.886   9.389 -0.2047 -0.4439  0.4802
    7DOPE   HN1  776   5.624   1.882   9.492 -1.0459 -0.2082  0.4538
    7DOPE   HN2  777   5.621   1.793   9.342  0.1901 -0.0001 -0.4989
    7DOPE   HN3  778   5.728   1.907   9.363 -1.0883  0.7821 -2.3117
    7DOPE   C12  779   5.528   1.985   9.340  0.0057 -0.2725  0.0017
    7DOPE  H12A  780   5.509   2.061   9.419  1.5656  0.7366 -0.5339
    7DOPE  H12B  781   5.439   1.926   9.309  0.4279 -1.1453  0.4088
    7DOPE   C11  782   5.584   2.062   9.217 -0.4281 -0.4234 -0.9748
    7DOPE  H11A  783   5.653   2.008   9.148 -1.1898  1.0452 -3.0112
    7DOPE  H11B  784   5.649   2.135   9.270  0.0219 -2.3272  1.2432
    7DOPE     P  785   5.454   2.112   8.994 -0.2119 -0.0633 -0.2321
    7DOPE   O13  786   5.574   2.164   8.924 -0.4559  0.1328 -0.2276
    7DOPE   O14  787   5.325   2.168   8.950  0.8093 -0.0498  0.0668
    7DOPE   O11  788   5.445   1.952   8.985  0.2846 -0.0708 -0.1461
    7DOPE   O12  789   5.484   2.136   9.147  0.2927 -0.1660  0.5753
    7DOPE    C1  790   5.552   1.871   8.935  0.0375 -0.7591  0.6452
    7DOPE    HA  791   5.558   1.776   8.993 -1.2714 -0.9439  0.5133
    7DOPE    HB  792   5.649   1.924   8.928  0.6908 -2.1112 -1.1428
    7DOPE    C2  793   5.528   1.835   8.787 -0.0910  0.5716 -0.7044
    7DOPE    HS  794   5.617   1.776   8.757 -0.1500 -0.1029  0.3940
    7DOPE   O21  795   5.505   1.952   8.705  0.2149  0.1711  0.2100
    7DOPE   C21  796   5.611   1.993   8.646 -0.7139 -0.6168 -0.5713
    7DOPE   O22  797   5.720   1.935   8.657  0.0942 -0.1669 -0.1117
    7DOPE   C22  798   5.575   2.117   8.565 -1.1373  0.0228  0.0389
    7DOPE   H2R  799   5.571   2.195   8.645  3.5744 -0.6536  1.2087
    7DOPE   H2S  800   5.483   2.101   8.505 -0.1632 -0.8617 -1.2642
    7DOPE    C3  801   5.406   1.742   8.758 -0.9265  1.1068  0.2967
    7DOPE    HX  802   5.304   1.780   8.777 -2.1230 -1.8780  0.3382
    7DOPE    HY  803   5.411   1.668   8.840 -3.5104 -0.0443 -0.4957
    7DOPE   O31  804   5.436   1.678   8.636 -0.0944 -0.1753  1.2208
    7DOPE   C31  805   5.407   1.737   8.523  0.2368 -0.4395  0.3077
    7DOPE   O32  806   5.344   1.836   8.508  0.4985 -0.3718 -0.3575
    7DOPE   C32  807   5.460   1.653   8.412  0.0297  0.1328 -0.7383
    7DOPE   H2X  808   5.541   1.583   8.442 -1.7970 -1.8601 -0.2313
    7DOPE   H2Y  809   5.379   1.587   8.375 -1.0860  2.3136 -2.4561
    7DOPE   C23  810   5.695   2.150   8.480 -0.2577  0.2588  0.7868
    7DOPE   H3R  811   5.795   2.128   8.523  1.1910  1.9382 -1.4881
    7DOPE   H3S  812   5.693   2.259   8.460  1.6566  0.5173  1.8418
    7DOPE   C24  813   5.678   2.084   8.345 -0.4960 -0.3433  0.3301
    7DOPE   H4R  814   5.580   2.109   8.299  0.1997  0.1696 -0.9378
    7DOPE   H4S  815   5.683   1.973   8.352  1.2378 -0.3830 -0.9429
    7DOPE   C25  816   5.798   2.114   8.240  0.2818  0.3145 -0.5777
    7DOPE   H5R  817   5.903   2.101   8.273  0.7704  3.1726 -0.7395
    7DOPE   H5S  818   5.785   2.219   8.207  2.0650  1.1633  1.1833
    7DOPE   C26  819   5.776   2.026   8.120  0.5322 -0.2656 -0.1181
    7DOPE   H6R  820   5.667   2.013   8.099 -0.0571 -1.7183  3.1456
    7DOPE   H6S  821   5.807   1.920   8.131 -1.6005 -0.8040  1.3368
    7DOPE   C27  822   5.843   2.074   7.989 -0.1633  0.0993 -0.0759
    7DOPE   H7R  823   5.951   2.086   8.010 -0.4352  1.1855  0.8083
    7DOPE   H7S  824   5.810   2.178   7.966 -0.6101  0.0693  0.4049
    7DOPE   C28  825   5.803   1.986   7.866 -0.3466  0.3786 -0.1524
    7DOPE   H8R  826   5.706   2.026   7.830  0.1200  1.8073  0.0937
    7DOPE   H8S  827   5.784   1.886   7.910 -3.5664  1.3504  0.9191
    7DOPE   C29  828   5.901   1.970   7.754  0.1642 -0.4374 -0.1953
    7DOPE   H9R  829   5.971   1.885   7.763  1.0103  0.1125 -1.2226
    7DOPE  C210  830   5.901   2.027   7.632  0.3532  0.0148 -0.5365
    7DOPE  H10R  831   5.980   1.989   7.565  1.8468 -1.0879  1.7308
    7DOPE  C211  832   5.802   2.132   7.581 -0.0008  0.5855 -0.6677
    7DOPE  H11R  833   5.811   2.224   7.642 -0.2290  0.8243 -0.9966
    7DOPE  H11S  834   5.695   2.104   7.591 -0.1842  1.8082  1.3641
    7DOPE  C212  835   5.814   2.173   7.431  0.0701  0.3166  0.0276
    7DOPE  H12R  836   5.924   2.176   7.411  0.1213  2.2377  0.3227
    7DOPE  H12S  837   5.764   2.271   7.413 -0.0831  0.3100  0.4236
    7DOPE  C213  838   5.743   2.071   7.335  0.3333  0.2710 -0.7620
    7DOPE  H13R  839   5.637   2.101   7.329 -0.0019 -0.9102 -0.9690
    7DOPE  H13S  840   5.754   1.966   7.371  0.0166  0.1297 -1.0827
    7DOPE  C214  841   5.800   2.076   7.192 -0.5152  0.0585  0.1508
    7DOPE  H14R  842   5.908   2.067   7.214 -0.5511  0.6535  0.5966
    7DOPE  H14S  843   5.784   2.170   7.136 -0.5361  0.5383  0.9384
    7DOPE  C215  844   5.736   1.965   7.102 -0.3852  0.3220  0.2656
    7DOPE  H15R  845   5.627   1.974   7.123 -0.7142 -0.3999 -1.0089
    7DOPE  H15S  846   5.769   1.869   7.147 -1.6354  0.1138  0.7783
    7DOPE  C216  847   5.766   1.976   6.953 -0.3144  0.1398  0.1885
    7DOPE  H16R  848   5.733   1.887   6.895 -2.2596  1.2347 -0.4650
    7DOPE  H16S  849   5.876   1.981   6.966 -0.2251  1.3961 -0.8738
    7DOPE  C217  850   5.711   2.107   6.887  0.4790 -0.0636  0.1002
    7DOPE  H17R  851   5.749   2.205   6.922 -1.8408  0.3651  1.5850
    7DOPE  H17S  852   5.601   2.113   6.900  0.4978 -0.6296  0.6057
    7DOPE  C218  853   5.736   2.116   6.732  0.1567 -0.1480  0.1086
    7DOPE  H18R  854   5.684   2.029   6.687 -2.5380  0.5847  1.5723
    7DOPE  H18S  855   5.843   2.106   6.704  0.0796 -2.0643  0.3791
    7DOPE  H18T  856   5.688   2.209   6.692 -3.0236 -0.4243  2.8127
    7DOPE   C33  857   5.497   1.727   8.278 -0.8140 -0.1994  1.1109
    7DOPE   H3X  858   5.561   1.816   8.297  2.1351 -1.8856 -0.1544
    7DOPE   H3Y  859   5.402   1.767   8.236  0.2869  0.6288 -0.7220
    7DOPE   C34  860   5.563   1.629   8.176  0.1730 -0.3182 -0.4398
    7DOPE   H4X  861   5.667   1.616   8.212  1.5969  2.3694 -3.0660
    7DOPE   H4Y  862   5.510   1.532   8.175  1.0515 -0.8533 -2.6463
    7DOPE   C35  863   5.566   1.674   8.035  0.0687  0.2848 -0.0477
    7DOPE   H5X  864   5.636   1.759   8.023  0.7117 -0.3653 -1.0105
    7DOPE   H5Y  865   5.467   1.721   8.018  0.3061  0.2351 -1.6872
    7DOPE   C36  866   5.593   1.565   7.930  0.2827  0.3308 -0.5994
    7DOPE   H6X  867   5.496   1.513   7.920  0.3499 -0.0166  0.4171
    7DOPE   H6Y  868   5.665   1.491   7.972 -0.5292 -2.5863 -3.9132
    7DOPE   C37  869   5.623   1.605   7.783 -0.2705 -0.1616 -0.7629
    7DOPE   H7X  870   5.706   1.678   7.786 -0.5733  0.2047  2.7549
    7DOPE   H7Y  871   5.646   1.514   7.724  1.8152 -0.6165  0.6301
    7DOPE   C38  872   5.504   1.674   7.722  0.2514 -0.1998  0.5418
    7DOPE   H8X  873   5.460   1.753   7.786  0.3611  0.9632 -0.7681
    7DOPE   H8Y  874   5.429   1.595   7.699 -2.7362  2.7191 -0.6182
    7DOPE   C39  875   5.528   1.733   7.581 -0.2958  0.0955 -0.3188
    7DOPE   H9X  876   5.568   1.835   7.589 -0.0800 -0.1207  3.2943
    7DOPE  C310  877   5.514   1.666   7.464 -0.1058 -0.1930  0.4113
    7DOPE  H10X  878   5.551   1.710   7.371  0.6340 -0.3172  0.6428
    7DOPE  C311  879   5.460   1.527   7.453 -0.5734 -0.7259 -0.1340
    7DOPE  H11X  880   5.509   1.455   7.522 -0.8798 -0.3949  0.4430
    7DOPE  H11Y  881   5.353   1.524   7.486 -0.1867 -0.7834  1.1851
    7DOPE  C312  882   5.450   1.488   7.305  0.6359 -0.3845 -0.0173
    7DOPE  H12X  883   5.542   1.528   7.257  0.7199  0.8671  1.1055
    7DOPE  H12Y  884   5.359   1.534   7.260  0.1405  0.6364  1.9165
    7DOPE  C313  885   5.450   1.336   7.272 -0.1925 -0.1929 -0.1590
    7DOPE  H13X  886   5.545   1.299   7.316 -0.6314 -0.0824  0.9225
    7DOPE  H13Y  887   5.360   1.304   7.329 -0.5316 -1.1535 -1.2003
    7DOPE  C314  888   5.441   1.292   7.128 -0.0286  0.6481  0.8635
    7DOPE  H14X  889   5.528   1.325   7.068 -0.0947 -0.3485  0.2028
    7DOPE  H14Y  890   5.353   1.323   7.067  1.6374  1.3384 -1.2937
    7DOPE  C315  891   5.434   1.142   7.130 -0.6211  0.9857 -0.4900
    7DOPE  H15X  892   5.361   1.124   7.211  0.2471  4.0518  1.1195
    7DOPE  H15Y  893   5.533   1.096   7.152 -2.3060 -2.0942  1.4056
    7DOPE  C316  894   5.390   1.101   6.989 -0.3731 -0.2644  0.3952
    7DOPE  H16X  895   5.291   1.146   6.969  0.3386  0.7821 -0.9075
    7DOPE  H16Y  896   5.375   0.991   6.992  1.2044 -0.4830  1.9202
    7DOPE  C317  897   5.499   1.126   6.881 -0.0274  0.1596  0.6393
    7DOPE  H17X  898   5.525   1.233   6.865 -1.5721  0.7606  1.8293
    7DOPE  H17Y  899   5.592   1.082   6.921  1.6454  0.9737 -2.1285
    7DOPE  C318  900   5.465   1.068   6.740 -0.4225 -0.2110 -0.7924
    7DOPE  H18X  901   5.377   1.120   6.697  0.4506  1.1002 -1.0527
    7DOPE  H18Y  902   5.544   1.086   6.664 -1.4768 -0.3596 -1.9502
    7DOPE  H18Z  903   5.452   0.958   6.739 -0.9858 -0.2325  1.6091
    8DOPE     N  904   1.340   1.604   8.775  0.5337 -0.1131 -0.8054
    8DOPE   HN1  905   1.325   1.638   8.873 -1.3070  1.7839 -1.6711
    8DOPE   HN2  906   1.325   1.501   8.780 -0.2400  0.0510  1.4562
    8DOPE   HN3  907   1.439   1.625   8.750  0.9107 -0.2519  0.4835
    8DOPE   C12  908   1.248   1.681   8.682  0.0619  0.2861 -0.2116
    8DOPE  H12A  909   1.262   1.641   8.579  0.6207 -0.7750  0.2563
    8DOPE  H12B  910   1.255   1.791   8.688 -0.0201  0.3696 -1.4138
    8DOPE   C11  911   1.104   1.657   8.722  0.4361  0.0847  0.7482
    8DOPE  H11A  912   1.047   1.730   8.660  2.3690 -0.7144 -2.2073
    8DOPE  H11B  913   1.096   1.676   8.831  0.1627 -1.5422  1.0252
    8DOPE     P  914   0.921   1.480   8.678  0.3520  0.0256  0.7091
    8DOPE   O13  915   0.855   1.536   8.802  0.3755  0.6963 -0.2148
    8DOPE   O14  916   0.905   1.332   8.662  0.0180  0.4636 -0.0554
    8DOPE   O11  917   0.866   1.567   8.557  0.1148  0.0819  0.3660
    8DOPE   O12  918   1.070   1.521   8.686  0.1683  0.6121  0.2878
    8DOPE    C1  919   0.926   1.575   8.425  0.1560  0.2274 -0.2484
    8DOPE    HA  920   1.024   1.526   8.408  0.9445  2.1484 -1.7180
    8DOPE    HB  921   0.945   1.681   8.397  0.9221  0.1084 -0.1902
    8DOPE    C2  922   0.843   1.517   8.316  0.0931  0.0079 -0.1505
    8DOPE    HS  923   0.907   1.517   8.225  0.9667  1.2823  0.4239
    8DOPE   O21  924   0.724   1.597   8.292  0.6969  0.6699  0.1921
    8DOPE   C21  925   0.753   1.697   8.210  0.3045 -0.2751  0.1105
    8DOPE   O22  926   0.862   1.733   8.171 -0.4444  0.5010 -0.0625
    8DOPE   C22  927   0.619   1.774   8.192  0.0608  0.2944  0.1244
    8DOPE   H2R  928   0.608   1.838   8.283 -0.8996  1.1896 -0.5909
    8DOPE   H2S  929   0.533   1.705   8.207 -0.3593  0.3399 -1.8602
    8DOPE    C3  930   0.819   1.368   8.348  0.5399  0.4319  0.4490
    8DOPE    HX  931   0.745   1.365   8.430 -1.1868 -0.2115 -1.0637
    8DOPE    HY  932   0.914   1.321   8.382 -0.8443 -1.2460  2.1794
    8DOPE   O31  933   0.756   1.301   8.235  0.0929 -0.6202 -0.4288
    8DOPE   C31  934   0.841   1.238   8.150 -0.5309 -0.0843 -0.1316
    8DOPE   O32  935   0.964   1.233   8.163  0.0261 -0.0464 -1.1810
    8DOPE   C32  936   0.764   1.169   8.043  0.8237 -0.3966  0.7804
    8DOPE   H2X  937   0.668   1.130   8.082 -0.1700 -0.2198 -1.3360
    8DOPE   H2Y  938   0.746   1.249   7.968  0.2029  0.0059  1.3475
    8DOPE   C23  939   0.624   1.859   8.063  0.1511  0.1420 -0.0673
    8DOPE   H3R  940   0.723   1.909   8.062  1.4528 -2.2946 -0.3848
    8DOPE   H3S  941   0.553   1.944   8.065 -1.7237 -1.3773  1.0085
    8DOPE   C24  942   0.588   1.787   7.934 -0.3029 -0.1194  0.0756
    8DOPE   H4R  943   0.481   1.756   7.933 -0.1124 -0.7944  0.0742
    8DOPE   H4S  944   0.654   1.698   7.920  0.5219  0.3715  0.7741
    8DOPE   C25  945   0.601   1.885   7.813  0.7636 -0.1184  0.1294
    8DOPE   H5R  946   0.707   1.918   7.806  0.8016 -0.5301 -1.5272
    8DOPE   H5S  947   0.536   1.974   7.829  1.3269  0.2183  0.6036
    8DOPE   C26  948   0.567   1.815   7.684  0.3963 -0.2668 -0.1259
    8DOPE   H6R  949   0.457   1.803   7.680  0.3563 -0.2579  0.6855
    8DOPE   H6S  950   0.607   1.712   7.691  0.1627 -0.2665  2.3983
    8DOPE   C27  951   0.628   1.876   7.562  0.2166  0.4020 -1.0927
    8DOPE   H7R  952   0.739   1.876   7.570  0.1757 -0.6950 -0.3571
    8DOPE   H7S  953   0.597   1.983   7.561  2.1877  1.0695  0.7561
    8DOPE   C28  954   0.597   1.797   7.434  0.7611 -0.2464 -0.1003
    8DOPE   H8R  955   0.589   1.689   7.460  0.0101  0.2630  1.9893
    8DOPE   H8S  956   0.688   1.798   7.369  1.1886 -0.0528  0.4873
    8DOPE   C29  957   0.481   1.855   7.355 -0.1441  0.8490 -0.2365
    8DOPE   H9R  958   0.401   1.887   7.423  1.1928  0.6011  1.5060
    8DOPE  C210  959   0.466   1.881   7.222  0.4003 -0.2343  0.1288
    8DOPE  H10R  960   0.367   1.920   7.194  0.8383  1.5529  0.9227
    8DOPE  C211  961   0.565   1.867   7.102  1.3673  0.3844  0.1470
    8DOPE  H11R  962   0.557   1.761   7.068  1.1172  0.0467  1.2232
    8DOPE  H11S  963   0.667   1.866   7.146  1.0516  0.1913  0.8879
    8DOPE  C212  964   0.558   1.975   6.999 -0.4591  0.2599  0.7991
    8DOPE  H12R  965   0.643   1.985   6.929  0.4039  0.6537  1.8779
    8DOPE  H12S  966   0.561   2.064   7.065 -3.2990  1.5679 -0.6442
    8DOPE  C213  967   0.421   1.995   6.931  0.2001  0.2635 -0.0015
    8DOPE  H13R  968   0.382   2.099   6.936 -1.2848 -0.3438  2.3675
    8DOPE  H13S  969   0.344   1.935   6.983 -1.2614  1.1682 -1.0613
    8DOPE  C214  970   0.399   1.933   6.790 -0.4126 -0.0801 -0.1066
    8DOPE  H14R  971   0.431   1.827   6.795 -0.7516 -0.1310  2.1663
    8DOPE  H14S  972   0.460   2.000   6.726 -2.9366  1.1549 -1.3848
    8DOPE  C215  973   0.253   1.940   6.746  0.4601  0.3569  0.0472
    8DOPE  H15R  974   0.209   2.041   6.759 -4.5947 -1.4809 -0.6681
    8DOPE  H15S  975   0.185   1.882   6.812 -2.1119  1.8744 -1.1434
    8DOPE  C216  976   0.212   1.923   6.597 -0.9759  0.0129 -0.3569
    8DOPE  H16R  977   0.223   1.815   6.575 -1.5875 -0.6705  2.3538
    8DOPE  H16S  978   0.297   1.967   6.540 -0.0937 -1.6618 -0.3963
    8DOPE  C217  979   0.073   1.962   6.558  0.1136  0.5727  0.5758
    8DOPE  H17R  980   0.049   2.070   6.548  0.3708  0.5780  0.0218
    8DOPE  H17S  981   0.009   1.921   6.639  0.9888  0.7050  1.3486
    8DOPE  C218  982   0.039   1.886   6.431  0.7460 -0.3271 -0.7030
    8DOPE  H18R  983   0.083   1.784   6.422  0.8431 -0.4571  0.8872
    8DOPE  H18S  984   0.089   1.938   6.347  3.4017 -2.2413 -0.4289
    8DOPE  H18T  985  -0.071   1.888   6.414  0.9739  2.4707 -2.4072
    8DOPE   C33  986   0.847   1.054   7.985 -0.0760 -0.0917  0.7085
    8DOPE   H3X  987   0.848   0.980   8.068 -2.2338 -0.4631  0.4845
    8DOPE   H3Y  988   0.941   1.108   7.962 -0.4540  0.0228 -0.7159
    8DOPE   C34  989   0.817   0.980   7.849 -0.1791  0.1612 -0.0460
    8DOPE   H4X  990   0.887   0.894   7.843 -1.2330 -0.6590 -1.1380
    8DOPE   H4Y  991   0.712   0.943   7.847 -0.0792 -0.0902 -1.1718
    8DOPE   C35  992   0.833   1.076   7.729 -0.2447  0.7428 -0.3511
    8DOPE   H5X  993   0.913   1.152   7.740 -0.1867  0.4686  1.5238
    8DOPE   H5Y  994   0.746   1.136   7.697 -1.0878 -0.9640 -1.4194
    8DOPE   C36  995   0.883   0.992   7.610  0.2178 -0.6836  0.4173
    8DOPE   H6X  996   0.805   0.921   7.575  1.4244 -0.2670 -3.6891
    8DOPE   H6Y  997   0.981   0.949   7.641  0.7635  0.7714  0.8003
    8DOPE   C37  998   0.916   1.083   7.485 -0.1893 -0.2036 -0.2978
    8DOPE   H7X  999   0.837   1.161   7.478 -0.1566  0.1812  2.4792
    8DOPE   H7Y 1000   1.012   1.128   7.518 -0.3005 -0.9513  1.1688
    8DOPE   C38 1001   0.904   0.998   7.360  0.1768 -0.0981 -0.1989
    8DOPE   H8X 1002   0.797   0.972   7.344 -0.7683  1.0658  3.3840
    8DOPE   H8Y 1003   0.959   0.904   7.384 -1.3976 -0.4622  2.3940
    8DOPE   C39 1004   0.969   1.079   7.257 -0.7411  0.1685 -0.0208
    8DOPE   H9X 1005   1.077   1.095   7.265 -0.6835  1.1001 -1.9678
    8DOPE  C310 1006   0.917   1.129   7.144  0.8689  0.0556  0.9462
    8DOPE  H10X 1007   0.982   1.162   7.062 -1.7117 -0.3214 -1.4130
    8DOPE  C311 1008   0.774   1.123   7.096 -0.4646 -0.5147  0.1972
    8DOPE  H11X 1009   0.725   1.029   7.129 -2.4966  0.8361  1.1597
    8DOPE  H11Y 1010   0.721   1.214   7.131  0.5143  0.4011 -0.6160
    8DOPE  C312 1011   0.782   1.118   6.943  0.0727  0.4305 -0.4222
    8DOPE  H12X 1012   0.865   1.050   6.913  1.0574  1.4655 -0.1174
    8DOPE  H12Y 1013   0.810   1.219   6.907  1.1040  0.4572  0.3856
    8DOPE  C313 1014   0.656   1.074   6.882  0.6220 -0.1884  0.5155
    8DOPE  H13X 1015   0.651   0.966   6.909 -1.0786 -0.8557 -2.1387
    8DOPE  H13Y 1016   0.560   1.122   6.910 -0.6474  0.1117 -3.6453
    8DOPE  C314 1017   0.668   1.075   6.732 -0.3263  0.0600 -0.1615
    8DOPE  H14X 1018   0.753   1.014   6.695 -1.6070 -0.5069 -2.3316
    8DOPE  H14Y 1019   0.701   1.173   6.689  1.8964 -0.3021  0.5927
    8DOPE  C315 1020   0.548   1.023   6.655 -0.0809  0.1783 -0.3253
    8DOPE  H15X 1021   0.462   1.091   6.677  0.7289  1.1720 -0.1730
    8DOPE  H15Y 1022   0.520   0.924   6.697 -2.2293 -0.2572 -2.5454
    8DOPE  C316 1023   0.563   1.012   6.496 -0.1372  0.5578  0.5018
    8DOPE  H16X 1024   0.485   0.946   6.454  0.3134 -1.0049  1.9945
    8DOPE  H16Y 1025   0.656   0.962   6.460 -0.8529  0.9070 -2.0250
    8DOPE  C317 1026   0.540   1.147   6.433 -0.3968 -0.0964  0.3168
    8DOPE  H17X 1027   0.454   1.186   6.492 -1.0858 -1.5340  0.2970
    8DOPE  H17Y 1028   0.631   1.210   6.438  1.8370 -3.1433  0.7257
    8DOPE  C318 1029   0.501   1.140   6.282  0.0588 -1.1716 -0.8250
    8DOPE  H18X 1030   0.420   1.065   6.270 -2.2888  0.8180  1.3571
    8DOPE  H18Y 1031   0.595   1.136   6.223  1.1805  1.0232  0.6708
    8DOPE  H18Z 1032   0.458   1.237   6.249 -0.2468 -0.5533  1.2501
    9DOPE     N 1033   3.269   6.239   8.836 -0.1906 -0.4997  0.0334
    9DOPE   HN1 1034   3.368   6.227   8.864  0.9854  2.1791 -2.4598
    9DOPE   HN2 1035   3.271   6.296   8.749 -1.4211 -1.0803 -0.4053
    9DOPE   HN3 1036   3.228   6.300   8.910  2.1486  1.6107 -0.2633
    9DOPE   C12 1037   3.188   6.116   8.797  0.1297 -0.2976 -0.1750
    9DOPE  H12A 1038   3.171   6.062   8.893  0.7541 -0.8267 -0.3578
    9DOPE  H12B 1039   3.256   6.058   8.731  1.8807  0.6266  0.7533
    9DOPE   C11 1040   3.053   6.150   8.723  0.3104  0.4300 -0.1221
    9DOPE  H11A 1041   3.018   6.051   8.688 -0.4868  0.6011  0.1745
    9DOPE  H11B 1042   3.070   6.213   8.633 -0.9525  0.0730 -0.6293
    9DOPE     P 1043   2.895   6.347   8.799 -0.3757 -0.0122  0.0452
    9DOPE   O13 1044   2.990   6.443   8.867  0.5848  0.3775 -0.0154
    9DOPE   O14 1045   2.753   6.351   8.837  0.2266  0.7026  0.5415
    9DOPE   O11 1046   2.903   6.376   8.639  0.3840  0.1171 -0.3678
    9DOPE   O12 1047   2.949   6.197   8.811 -0.4504  0.3929  0.0405
    9DOPE    C1 1048   2.823   6.300   8.553  0.2121  0.4001  0.0588
    9DOPE    HA 1049   2.725   6.352   8.549  0.4229  0.8251 -3.5728
    9DOPE    HB 1050   2.816   6.196   8.592  1.9984  0.5592  0.9062
    9DOPE    C2 1051   2.857   6.287   8.406 -0.6416 -0.1021  0.7805
    9DOPE    HS 1052   2.780   6.227   8.353  0.4892  0.3294 -1.4805
    9DOPE   O21 1053   2.983   6.221   8.402  0.0501  0.5216  0.3666
    9DOPE   C21 1054   2.994   6.094   8.353 -0.3522 -0.3222  0.1005
    9DOPE   O22 1055   2.906   6.028   8.309 -0.3667 -0.3480 -0.2366
    9DOPE   C22 1056   3.137   6.068   8.358 -0.5918  0.4600 -0.3360
    9DOPE   H2R 1057   3.157   5.959   8.352 -0.2884  0.4587  0.6462
    9DOPE   H2S 1058   3.180   6.095   8.456  4.6943 -2.7227 -1.4224
    9DOPE    C3 1059   2.872   6.425   8.333  0.4372  0.1792 -0.0033
    9DOPE    HX 1060   2.938   6.478   8.405  0.5296  2.6133 -1.7782
    9DOPE    HY 1061   2.769   6.465   8.325 -0.5251 -2.3641 -1.7385
    9DOPE   O31 1062   2.932   6.405   8.201  0.4048  0.8054 -0.1805
    9DOPE   C31 1063   2.847   6.358   8.106 -0.2683 -0.6967  0.5352
    9DOPE   O32 1064   2.732   6.328   8.130  0.4377 -1.0091 -0.1100
    9DOPE   C32 1065   2.921   6.355   7.967 -0.6332 -0.2352 -0.2040
    9DOPE   H2X 1066   2.943   6.462   7.944 -0.1859  0.0828  1.5689
    9DOPE   H2Y 1067   3.024   6.313   7.975 -0.3239  0.9127  2.9845
    9DOPE   C23 1068   3.210   6.128   8.238 -0.6897 -0.3474  0.4132
    9DOPE   H3R 1069   3.320   6.130   8.258 -0.6370  0.5268  0.0814
    9DOPE   H3S 1070   3.187   6.237   8.240  0.0713 -0.1783  0.4711
    9DOPE   C24 1071   3.190   6.056   8.106  0.4049  0.1548 -0.2505
    9DOPE   H4R 1072   3.081   6.046   8.089  0.3760 -1.5314  0.7203
    9DOPE   H4S 1073   3.242   5.958   8.115 -1.1450 -0.6621  0.1565
    9DOPE   C25 1074   3.257   6.136   7.993  0.4085 -0.3453  0.2584
    9DOPE   H5R 1075   3.363   6.151   8.023 -0.2571  2.3733  1.6238
    9DOPE   H5S 1076   3.218   6.240   7.983  2.0571  0.1436 -2.0968
    9DOPE   C26 1077   3.252   6.049   7.863 -0.5143 -0.3734  0.3331
    9DOPE   H6R 1078   3.147   6.022   7.838 -0.3387 -0.8812  0.1201
    9DOPE   H6S 1079   3.293   5.954   7.903 -0.2265 -1.0070 -1.3605
    9DOPE   C27 1080   3.337   6.110   7.752  0.1710 -0.0415  0.6629
    9DOPE   H7R 1081   3.443   6.108   7.786  0.5993  0.0646 -0.6053
    9DOPE   H7S 1082   3.324   6.218   7.732 -2.3148 -0.4699 -0.4286
    9DOPE   C28 1083   3.329   6.030   7.618 -0.5192 -0.3924 -0.8294
    9DOPE   H8R 1084   3.348   5.921   7.629  0.3381 -0.1152  0.6622
    9DOPE   H8S 1085   3.420   6.064   7.565  2.0734 -1.4460  2.6336
    9DOPE   C29 1086   3.212   6.073   7.532  0.1278  0.2314  0.3293
    9DOPE   H9R 1087   3.120   6.093   7.587 -0.4817 -3.0595  0.7477
    9DOPE  C210 1088   3.216   6.088   7.400  0.4796 -0.3970  0.0577
    9DOPE  H10R 1089   3.123   6.101   7.343 -0.4289 -1.3314  1.2646
    9DOPE  C211 1090   3.334   6.056   7.316 -0.4736 -0.5854  1.2513
    9DOPE  H11R 1091   3.398   5.972   7.352 -0.8137 -2.4434 -2.1272
    9DOPE  H11S 1092   3.400   6.143   7.294 -0.4762 -1.4395 -2.9519
    9DOPE  C212 1093   3.280   6.026   7.177  0.1348 -0.4173 -0.3006
    9DOPE  H12R 1094   3.209   6.104   7.143 -0.8910 -1.2478 -0.1093
    9DOPE  H12S 1095   3.208   5.942   7.174 -0.9748  0.4978 -3.0745
    9DOPE  C213 1096   3.384   6.000   7.070 -0.4459 -0.7125  0.3196
    9DOPE  H13R 1097   3.461   5.927   7.103  0.2385 -1.5796 -2.8084
    9DOPE  H13S 1098   3.429   6.096   7.036 -1.0778 -0.0034  1.4189
    9DOPE  C214 1099   3.323   5.930   6.948 -0.1474  0.3345  0.4340
    9DOPE  H14R 1100   3.253   6.006   6.909 -0.7348  1.5696  3.5674
    9DOPE  H14S 1101   3.267   5.841   6.983  2.3380 -1.3579  0.4345
    9DOPE  C215 1102   3.422   5.893   6.834 -0.3091 -0.8139  0.3830
    9DOPE  H15R 1103   3.488   5.818   6.883 -0.8853 -1.5862  0.0110
    9DOPE  H15S 1104   3.473   5.990   6.818  0.9553 -1.6754 -1.1006
    9DOPE  C216 1105   3.367   5.823   6.717 -0.3587 -0.2966  0.1263
    9DOPE  H16R 1106   3.292   5.885   6.662 -0.8247 -0.8605  0.1177
    9DOPE  H16S 1107   3.329   5.724   6.748  0.4265 -0.3346  1.0018
    9DOPE  C217 1108   3.472   5.780   6.611  0.2697 -0.0924  0.3231
    9DOPE  H17R 1109   3.426   5.753   6.514  0.0955 -0.0392  0.3919
    9DOPE  H17S 1110   3.532   5.692   6.642  0.3114  0.0259  0.5834
    9DOPE  C218 1111   3.575   5.884   6.564  0.1889 -0.3329  0.6747
    9DOPE  H18R 1112   3.620   5.939   6.649 -0.1584 -2.4733  2.3472
    9DOPE  H18S 1113   3.519   5.960   6.506 -0.6233 -0.1779  1.6411
    9DOPE  H18T 1114   3.654   5.843   6.497 -0.8022 -0.4769 -0.4250
    9DOPE   C33 1115   2.855   6.275   7.855 -0.2004 -0.2817 -0.8439
    9DOPE   H3X 1116   2.746   6.295   7.856  0.3402  3.4009 -1.1649
    9DOPE   H3Y 1117   2.856   6.166   7.876 -0.1516  0.0792  1.1629
    9DOPE   C34 1118   2.904   6.300   7.711 -0.8657  0.1507 -0.2353
    9DOPE   H4X 1119   2.884   6.404   7.678 -1.8936  0.0386 -0.0218
    9DOPE   H4Y 1120   3.014   6.291   7.707 -0.6169  2.7490 -4.0301
    9DOPE   C35 1121   2.840   6.197   7.609  0.1850  0.5884  0.8062
    9DOPE   H5X 1122   2.729   6.200   7.609  0.0941 -1.4738  0.6099
    9DOPE   H5Y 1123   2.866   6.093   7.638 -1.1860  0.2064  0.7529
    9DOPE   C36 1124   2.870   6.214   7.459 -0.1108  0.5281  0.1075
    9DOPE   H6X 1125   2.891   6.116   7.411  2.1753  1.3199 -0.6398
    9DOPE   H6Y 1126   2.961   6.275   7.444 -0.2207  0.3491 -1.4204
    9DOPE   C37 1127   2.754   6.283   7.384 -0.2819 -0.3156  0.0934
    9DOPE   H7X 1128   2.660   6.227   7.400 -0.8907  0.7856  0.4186
    9DOPE   H7Y 1129   2.754   6.387   7.422  0.3906 -0.0134 -0.7177
    9DOPE   C38 1130   2.775   6.304   7.233 -0.4787  0.3432 -0.3220
    9DOPE   H8X 1131   2.866   6.366   7.223  0.3186 -0.4453  1.5869
    9DOPE   H8Y 1132   2.682   6.353   7.196  0.0922  1.9473  0.2774
    9DOPE   C39 1133   2.769   6.172   7.159  0.2466 -0.7123 -0.6320
    9DOPE   H9X 1134   2.708   6.091   7.201  1.7937 -2.3861 -1.5002
    9DOPE  C310 1135   2.860   6.127   7.073  0.4641 -0.1029  0.7772
    9DOPE  H10X 1136   2.855   6.024   7.035  1.6852  0.1987 -0.2698
    9DOPE  C311 1137   2.961   6.210   6.998 -0.2429  0.2615 -0.2567
    9DOPE  H11X 1138   2.979   6.306   7.051 -0.3492  0.3961 -0.4639
    9DOPE  H11Y 1139   3.056   6.153   7.005  1.0639  2.2769 -0.6677
    9DOPE  C312 1140   2.921   6.240   6.853 -0.4913 -0.6730  0.2090
    9DOPE  H12X 1141   2.883   6.146   6.807 -1.3060  0.3182 -1.1983
    9DOPE  H12Y 1142   3.014   6.276   6.805  0.6238 -0.6817  2.2390
    9DOPE  C313 1143   2.801   6.340   6.838 -0.6263 -0.4333  0.1591
    9DOPE  H13X 1144   2.710   6.286   6.872 -0.7472 -1.6171 -1.8511
    9DOPE  H13Y 1145   2.822   6.432   6.897 -2.1786  0.6125 -0.8324
    9DOPE  C314 1146   2.777   6.385   6.690  0.4915 -0.1552  0.2789
    9DOPE  H14X 1147   2.759   6.294   6.629  1.3954 -1.3194  1.6973
    9DOPE  H14Y 1148   2.865   6.437   6.647 -1.1574 -0.0281 -3.2586
    9DOPE  C315 1149   2.662   6.488   6.682  0.1957  0.2069 -0.3946
    9DOPE  H15X 1150   2.693   6.577   6.740  1.7769 -1.5973  1.6967
    9DOPE  H15Y 1151   2.564   6.443   6.711 -0.0224  0.7352 -0.3098
    9DOPE  C316 1152   2.631   6.541   6.543 -0.1754  0.2804 -0.5447
    9DOPE  H16X 1153   2.614   6.450   6.481  2.0975 -1.2619  0.9260
    9DOPE  H16Y 1154   2.725   6.591   6.509  0.9330 -1.0433  0.4345
    9DOPE  C317 1155   2.515   6.636   6.555 -0.6723  0.0314  0.1629
    9DOPE  H17X 1156   2.422   6.578   6.569 -0.5681 -0.0922  0.3422
    9DOPE  H17Y 1157   2.523   6.701   6.645 -1.8504  0.2846  0.0899
    9DOPE  C318 1158   2.496   6.731   6.429 -0.0719 -0.3618  0.3933
    9DOPE  H18X 1159   2.412   6.799   6.456 -2.0655 -2.2398 -0.7714
    9DOPE  H18Y 1160   2.593   6.784   6.418 -0.9254  1.0560 -0.5713
    9DOPE  H18Z 1161   2.465   6.672   6.340 -1.3399  0.4720  0.2484
   10DOPE     N 1162   2.314   1.468   8.653 -0.1917 -0.5835 -0.8306
   10DOPE   HN1 1163   2.248   1.543   8.681  0.8129 -0.0294  0.1479
   10DOPE   HN2 1164   2.308   1.400   8.732  2.4721  0.3057  0.2447
   10DOPE   HN3 1165   2.407   1.515   8.654 -0.1749 -0.2845  3.6792
   10DOPE   C12 1166   2.289   1.422   8.509 -0.1029 -0.1620 -0.0718
   10DOPE  H12A 1167   2.249   1.513   8.459 -2.1828 -1.3955 -0.7849
   10DOPE  H12B 1168   2.211   1.343   8.510  0.5562 -0.8583  2.6336
   10DOPE   C11 1169   2.413   1.376   8.445  0.1422 -0.3550  0.1488
   10DOPE  H11A 1170   2.476   1.464   8.419 -0.5866  0.1483  0.0501
   10DOPE  H11B 1171   2.382   1.349   8.341 -0.5778  1.1448 -0.0524
   10DOPE     P 1172   2.408   1.125   8.526 -0.1588 -0.2276  0.0712
   10DOPE   O13 1173   2.327   1.123   8.646 -0.3133 -0.7135  0.2809
   10DOPE   O14 1174   2.507   1.017   8.512 -0.3722  0.4832  0.4628
   10DOPE   O11 1175   2.322   1.126   8.403 -0.1363  0.9269  0.5641
   10DOPE   O12 1176   2.482   1.266   8.512  0.5785 -0.0304 -0.0345
   10DOPE    C1 1177   2.323   1.033   8.294 -0.1536 -0.5074 -0.4997
   10DOPE    HA 1178   2.219   0.999   8.275 -0.4521  0.3412 -0.4158
   10DOPE    HB 1179   2.382   0.942   8.316  1.5640  1.2783  3.0318
   10DOPE    C2 1180   2.392   1.105   8.168 -0.0380  0.1529  0.2376
   10DOPE    HS 1181   2.411   1.027   8.092 -0.0116  1.5554 -1.2416
   10DOPE   O21 1182   2.518   1.171   8.194 -0.3928  0.5953 -0.3352
   10DOPE   C21 1183   2.627   1.090   8.194 -0.4077  0.4513 -0.7004
   10DOPE   O22 1184   2.617   0.969   8.188 -0.6554 -0.3939  0.1156
   10DOPE   C22 1185   2.757   1.166   8.208  0.0293  0.9562 -0.5558
   10DOPE   H2R 1186   2.791   1.155   8.313  0.3751  0.8889 -0.6711
   10DOPE   H2S 1187   2.738   1.273   8.187  1.8425  1.5225  0.4825
   10DOPE    C3 1188   2.289   1.193   8.091  0.3977  0.9241 -0.5728
   10DOPE    HX 1189   2.239   1.264   8.160 -1.6568 -1.5417  0.6945
   10DOPE    HY 1190   2.205   1.120   8.088  1.0156  0.0460  1.5232
   10DOPE   O31 1191   2.334   1.236   7.963 -0.4353 -0.6932 -0.0572
   10DOPE   C31 1192   2.371   1.368   7.958  0.4070  1.2050 -0.2672
   10DOPE   O32 1193   2.352   1.450   8.046 -0.2199  0.2755  0.3968
   10DOPE   C32 1194   2.437   1.386   7.822  0.1018 -0.5441 -0.3069
   10DOPE   H2X 1195   2.506   1.471   7.846 -1.0782 -0.1395  1.9757
   10DOPE   H2Y 1196   2.491   1.293   7.793  1.1800  0.0759 -0.3495
   10DOPE   C23 1197   2.870   1.134   8.106  0.2095  0.7356 -0.5542
   10DOPE   H3R 1198   2.892   1.027   8.085  0.6729  0.8323 -0.5491
   10DOPE   H3S 1199   2.967   1.180   8.134  0.4382 -0.7654  1.3763
   10DOPE   C24 1200   2.848   1.201   7.970  0.2901  0.0593  0.4971
   10DOPE   H4R 1201   2.941   1.208   7.911 -0.6410 -0.0644 -1.0382
   10DOPE   H4S 1202   2.799   1.299   7.988 -0.2474  0.4495 -2.6136
   10DOPE   C25 1203   2.750   1.123   7.880 -0.8288 -0.3917  0.1862
   10DOPE   H5R 1204   2.651   1.121   7.931 -0.3334  1.5844  1.3399
   10DOPE   H5S 1205   2.797   1.023   7.879 -1.7186 -0.8230  0.0407
   10DOPE   C26 1206   2.732   1.168   7.738  0.5526  0.3056  0.4617
   10DOPE   H6R 1207   2.827   1.171   7.680  0.3889  0.5952  0.2073
   10DOPE   H6S 1208   2.692   1.271   7.727  2.0661  0.8239 -0.5585
   10DOPE   C27 1209   2.643   1.079   7.643 -0.4430  0.0220  0.0091
   10DOPE   H7R 1210   2.542   1.071   7.687  0.0570  1.4173  1.5407
   10DOPE   H7S 1211   2.690   0.980   7.626  0.1380  0.3339 -0.2594
   10DOPE   C28 1212   2.615   1.138   7.501 -0.1547  1.2506 -0.8448
   10DOPE   H8R 1213   2.550   1.226   7.516  0.6466  1.8876 -1.0247
   10DOPE   H8S 1214   2.555   1.058   7.451  1.0008 -1.4644  1.8112
   10DOPE   C29 1215   2.745   1.168   7.420 -0.4088  0.1820  0.5243
   10DOPE   H9R 1216   2.800   1.246   7.476 -1.1165  1.1707 -0.1182
   10DOPE  C210 1217   2.787   1.110   7.311  0.2389  0.3585 -0.0943
   10DOPE  H10R 1218   2.880   1.153   7.271  0.5798  2.4371  2.6349
   10DOPE  C211 1219   2.719   0.987   7.249 -0.8218 -0.0581 -0.0239
   10DOPE  H11R 1220   2.609   0.996   7.265 -0.6442  2.6559  0.0818
   10DOPE  H11S 1221   2.756   0.887   7.283  1.2282  0.4467 -0.6246
   10DOPE  C212 1222   2.753   0.973   7.098  0.1388 -0.6307 -0.3924
   10DOPE  H12R 1223   2.699   0.885   7.057  0.0367 -1.4054  1.3172
   10DOPE  H12S 1224   2.861   0.949   7.087  0.6017  1.3354 -0.5369
   10DOPE  C213 1225   2.721   1.088   7.015  0.4368 -0.4214 -0.0282
   10DOPE  H13R 1226   2.786   1.176   7.034  0.1992  0.0534 -1.3225
   10DOPE  H13S 1227   2.614   1.114   7.031  0.2363 -1.9498  1.4200
   10DOPE  C214 1228   2.750   1.075   6.856 -0.4219  1.0011 -0.6665
   10DOPE  H14R 1229   2.745   0.966   6.837  1.1899  0.9735 -1.1228
   10DOPE  H14S 1230   2.853   1.112   6.835 -0.1673  1.0968  0.6353
   10DOPE  C215 1231   2.656   1.159   6.775  0.0363 -0.2163  0.4941
   10DOPE  H15R 1232   2.681   1.267   6.784  1.3419  0.0605 -3.8881
   10DOPE  H15S 1233   2.561   1.135   6.827  1.4075  1.1187  3.9257
   10DOPE  C216 1234   2.645   1.124   6.624 -0.0700  0.2646 -0.4707
   10DOPE  H16R 1235   2.558   1.185   6.593  1.7276  2.2078 -1.9691
   10DOPE  H16S 1236   2.619   1.018   6.601  1.5079 -0.2798  0.0695
   10DOPE  C217 1237   2.766   1.163   6.540  0.0747 -0.0502  0.0555
   10DOPE  H17R 1238   2.847   1.090   6.564 -1.0224 -0.0471  4.9649
   10DOPE  H17S 1239   2.809   1.261   6.571  0.3078 -0.1867  0.1629
   10DOPE  C218 1240   2.745   1.148   6.389  0.4140 -0.1688 -0.4154
   10DOPE  H18R 1241   2.669   1.219   6.350 -0.0730  1.1915  2.6590
   10DOPE  H18S 1242   2.704   1.048   6.364  0.5111  0.2014 -2.1564
   10DOPE  H18T 1243   2.836   1.173   6.330  0.3671  1.8533  0.2870
   10DOPE   C33 1244   2.337   1.422   7.706 -0.3003  0.3021 -0.2287
   10DOPE   H3X 1245   2.255   1.481   7.754 -0.0091  1.4469 -1.0725
   10DOPE   H3Y 1246   2.299   1.330   7.657 -2.5365  0.9377  0.1659
   10DOPE   C34 1247   2.400   1.508   7.596  0.3688  0.4258  0.4849
   10DOPE   H4X 1248   2.452   1.597   7.639 -0.4914  1.2431 -0.1486
   10DOPE   H4Y 1249   2.470   1.440   7.543  0.6242  0.6232  0.5650
   10DOPE   C35 1250   2.291   1.551   7.499  0.1078 -0.4371 -0.1148
   10DOPE   H5X 1251   2.216   1.605   7.561  0.3528 -2.2921  1.9289
   10DOPE   H5Y 1252   2.239   1.465   7.451 -2.2046  2.1601 -2.6641
   10DOPE   C36 1253   2.351   1.638   7.382  0.7446  0.3287  0.1162
   10DOPE   H6X 1254   2.428   1.713   7.410  2.2780 -1.0289 -0.3127
   10DOPE   H6Y 1255   2.269   1.702   7.345  0.7739  0.0262 -0.4818
   10DOPE   C37 1256   2.405   1.544   7.270  0.5021  0.2110  0.5622
   10DOPE   H7X 1257   2.493   1.487   7.307 -0.6378 -1.1524  1.2571
   10DOPE   H7Y 1258   2.324   1.471   7.247 -1.0415  1.4639  1.7559
   10DOPE   C38 1259   2.444   1.614   7.138  0.2227  0.1180 -0.6343
   10DOPE   H8X 1260   2.517   1.692   7.169  0.4105 -0.5794  0.7886
   10DOPE   H8Y 1261   2.355   1.667   7.099  1.0747  2.8774  0.8779
   10DOPE   C39 1262   2.498   1.518   7.038 -0.2485  0.3380 -0.9944
   10DOPE   H9X 1263   2.576   1.450   7.074 -0.0301  1.6319  1.2098
   10DOPE  C310 1264   2.485   1.522   6.903 -0.5829 -0.5883 -0.4019
   10DOPE  H10X 1265   2.533   1.443   6.842 -0.9699 -0.6727 -0.6029
   10DOPE  C311 1266   2.420   1.623   6.820  0.4086 -0.2795 -0.0906
   10DOPE  H11X 1267   2.361   1.697   6.879  2.1534  0.6533  0.5520
   10DOPE  H11Y 1268   2.507   1.676   6.776  1.9150 -1.4332  1.3446
   10DOPE  C312 1269   2.337   1.565   6.713  0.1984 -0.6477  0.3503
   10DOPE  H12X 1270   2.269   1.644   6.672 -0.5611 -0.3147  2.1736
   10DOPE  H12Y 1271   2.264   1.499   6.765  1.3395  0.5656  3.6899
   10DOPE  C313 1272   2.423   1.486   6.610  0.0906  0.3962  0.7907
   10DOPE  H13X 1273   2.478   1.408   6.666 -1.1016 -0.2980  1.0297
   10DOPE  H13Y 1274   2.364   1.426   6.537 -0.7802  2.2281 -0.0763
   10DOPE  C314 1275   2.503   1.570   6.509 -0.3303  0.3406  0.5210
   10DOPE  H14X 1276   2.562   1.491   6.458 -0.6995  0.0092  0.6007
   10DOPE  H14Y 1277   2.582   1.629   6.561 -0.8887  1.1464  0.4806
   10DOPE  C315 1278   2.429   1.652   6.398 -0.1382  0.5939  0.4126
   10DOPE  H15X 1279   2.391   1.745   6.445  1.0640  1.6443 -0.6237
   10DOPE  H15Y 1280   2.344   1.598   6.351  1.3488 -0.9450 -0.6159
   10DOPE  C316 1281   2.528   1.678   6.286 -0.4615  0.2129 -0.4374
   10DOPE  H16X 1282   2.566   1.583   6.244 -2.1231 -0.5212 -0.3649
   10DOPE  H16Y 1283   2.617   1.729   6.330  0.6715 -0.9656 -1.2845
   10DOPE  C317 1284   2.479   1.782   6.177  0.2610 -0.1186 -0.0966
   10DOPE  H17X 1285   2.448   1.873   6.232 -0.2639  0.1086 -0.7556
   10DOPE  H17Y 1286   2.576   1.807   6.129  2.4084  0.1488  3.9252
   10DOPE  C318 1287   2.385   1.719   6.076  0.2749 -0.2120 -0.1274
   10DOPE  H18X 1288   2.347   1.795   6.005 -1.2487 -1.0547 -0.2527
   10DOPE  H18Y 1289   2.428   1.629   6.028 -0.5997 -0.3314 -0.7205
   10DOPE  H18Z 1290   2.296   1.670   6.123  0.0857 -0.8430 -1.1216
   11DOPE     N 1291   3.203   4.383   8.881 -0.2157  0.3238  0.0962
   11DOPE   HN1 1292   3.222   4.485   8.872 -2.0988  0.8006  0.8906
   11DOPE   HN2 1293   3.164   4.370   8.977 -0.5985 -1.2344 -0.2385
   11DOPE   HN3 1294   3.289   4.327   8.863 -1.3874 -1.3857 -0.4199
   11DOPE   C12 1295   3.111   4.335   8.766 -0.1096 -1.2335 -0.3702
   11DOPE  H12A 1296   3.041   4.262   8.811 -1.0895 -0.3210 -0.3854
   11DOPE  H12B 1297   3.178   4.294   8.687 -0.1946 -1.2727 -0.4219
   11DOPE   C11 1298   3.021   4.448   8.712 -0.2145 -0.2100 -0.3386
   11DOPE  H11A 1299   2.942   4.397   8.653  0.2789 -1.6806  0.2255
   11DOPE  H11B 1300   3.093   4.506   8.651 -1.4860 -0.4198 -2.1013
   11DOPE     P 1301   2.828   4.533   8.869  0.3756 -0.1861 -0.1130
   11DOPE   O13 1302   2.794   4.669   8.901  0.1520  0.0243 -0.1864
   11DOPE   O14 1303   2.813   4.437   8.981  0.0249  0.0691  0.3014
   11DOPE   O11 1304   2.740   4.475   8.754  0.3554 -0.1667  0.1228
   11DOPE   O12 1305   2.969   4.535   8.814  0.2729 -0.0703 -0.0802
   11DOPE    C1 1306   2.693   4.553   8.645 -0.1439 -0.1191  0.3677
   11DOPE    HA 1307   2.754   4.644   8.624  0.4189 -0.7602 -0.9210
   11DOPE    HB 1308   2.584   4.577   8.647 -0.5050 -1.0235 -2.8632
   11DOPE    C2 1309   2.693   4.462   8.516  0.4075 -0.3106  0.5329
   11DOPE    HS 1310   2.797   4.432   8.491  0.4892  0.5591 -0.2271
   11DOPE   O21 1311   2.623   4.544   8.412 -0.1782  0.2084 -0.1409
   11DOPE   C21 1312   2.679   4.526   8.292  0.0145 -0.0920  0.2397
   11DOPE   O22 1313   2.762   4.442   8.266 -0.6946 -0.1692 -0.1280
   11DOPE   C22 1314   2.602   4.628   8.198 -0.0403  1.0572 -0.2285
   11DOPE   H2R 1315   2.593   4.729   8.244  0.5581  2.4385 -2.9545
   11DOPE   H2S 1316   2.505   4.578   8.177 -0.0328 -0.5681  2.9068
   11DOPE    C3 1317   2.596   4.338   8.538 -0.6107 -0.4507  0.1665
   11DOPE    HX 1318   2.508   4.391   8.580  1.2430  1.0603  2.4007
   11DOPE    HY 1319   2.645   4.281   8.621  1.7560 -0.6614 -1.2680
   11DOPE   O31 1320   2.564   4.267   8.415 -0.1218  0.1321 -0.2801
   11DOPE   C31 1321   2.667   4.183   8.389  0.3072 -0.0715 -0.3852
   11DOPE   O32 1322   2.751   4.152   8.471  0.0735  0.5938 -0.1708
   11DOPE   C32 1323   2.654   4.135   8.242 -0.7247  0.2558 -0.2610
   11DOPE   H2X 1324   2.591   4.043   8.242 -1.0608  0.4836  0.1794
   11DOPE   H2Y 1325   2.599   4.213   8.186 -0.9611  2.1212  2.3833
   11DOPE   C23 1326   2.666   4.633   8.057 -0.2901 -1.0044 -0.2548
   11DOPE   H3R 1327   2.650   4.537   8.004  0.3035 -1.4545  0.3642
   11DOPE   H3S 1328   2.775   4.650   8.071 -0.3776 -1.3951  1.0265
   11DOPE   C24 1329   2.620   4.752   7.973 -0.3858 -0.4727 -0.3232
   11DOPE   H4R 1330   2.613   4.841   8.040  0.9535 -1.1264  0.7369
   11DOPE   H4S 1331   2.521   4.738   7.924  0.1774  1.5023 -2.1156
   11DOPE   C25 1332   2.718   4.773   7.856  0.0802 -0.1190 -0.0049
   11DOPE   H5R 1333   2.822   4.748   7.887 -0.9805 -3.9452  0.9340
   11DOPE   H5S 1334   2.705   4.881   7.833  0.6040 -0.0929 -0.2087
   11DOPE   C26 1335   2.677   4.693   7.734  0.4720 -0.0600 -0.8795
   11DOPE   H6R 1336   2.567   4.701   7.720  0.4919 -1.2642 -1.8963
   11DOPE   H6S 1337   2.700   4.584   7.737 -0.1700 -0.2234 -1.5120
   11DOPE   C27 1338   2.729   4.766   7.618 -0.4042 -0.0598  0.4729
   11DOPE   H7R 1339   2.834   4.800   7.625 -0.4327  0.3032 -0.7527
   11DOPE   H7S 1340   2.675   4.861   7.598 -1.8639 -1.2524 -1.6631
   11DOPE   C28 1341   2.722   4.694   7.476  0.4018  0.2549  0.2557
   11DOPE   H8R 1342   2.755   4.588   7.477 -2.2190 -0.6526 -0.6782
   11DOPE   H8S 1343   2.804   4.743   7.420 -0.5200 -0.1842 -1.5471
   11DOPE   C29 1344   2.586   4.692   7.407 -0.0316  0.2926  0.2406
   11DOPE   H9R 1345   2.512   4.640   7.470  0.7478 -0.0779  0.8770
   11DOPE  C210 1346   2.549   4.754   7.291  0.2051 -0.0706 -0.6562
   11DOPE  H10R 1347   2.446   4.739   7.256  0.2426 -2.8722  0.2355
   11DOPE  C211 1348   2.647   4.823   7.195  0.0806  1.0566 -0.3275
   11DOPE  H11R 1349   2.750   4.794   7.223 -0.8719 -1.9403  0.3544
   11DOPE  H11S 1350   2.632   4.932   7.211  0.6948  1.1473 -0.3201
   11DOPE  C212 1351   2.627   4.769   7.055  0.4508 -0.1561  0.2699
   11DOPE  H12R 1352   2.643   4.659   7.059 -0.1139 -0.2292  0.5900
   11DOPE  H12S 1353   2.707   4.811   6.991 -1.4738  2.4606 -0.6131
   11DOPE  C213 1354   2.503   4.808   6.970  0.1639  0.5737 -0.4937
   11DOPE  H13R 1355   2.417   4.784   7.037  1.8014 -2.4153  0.7155
   11DOPE  H13S 1356   2.486   4.746   6.880 -0.0466  0.6816 -0.5311
   11DOPE  C214 1357   2.500   4.951   6.918 -0.0475  0.8780 -0.6480
   11DOPE  H14R 1358   2.527   5.022   6.999  3.4595  0.5703 -1.4050
   11DOPE  H14S 1359   2.395   4.967   6.884 -1.0592  0.3545  1.9567
   11DOPE  C215 1360   2.589   4.972   6.794  0.3679 -0.0772  0.4183
   11DOPE  H15R 1361   2.606   4.876   6.741  0.5524 -0.2222  0.7355
   11DOPE  H15S 1362   2.692   4.991   6.832  0.5885  0.8986 -0.6110
   11DOPE  C216 1363   2.543   5.081   6.700  0.3588 -0.6058 -0.0794
   11DOPE  H16R 1364   2.575   5.178   6.743 -0.2985  0.1531 -1.2517
   11DOPE  H16S 1365   2.432   5.069   6.700  0.2149  0.6663  0.2977
   11DOPE  C217 1366   2.604   5.072   6.560 -0.0803  0.7658  0.9336
   11DOPE  H17R 1367   2.554   4.989   6.505  1.4060  1.3454 -1.4523
   11DOPE  H17S 1368   2.707   5.031   6.565 -0.8896 -1.2654  2.0365
   11DOPE  C218 1369   2.590   5.200   6.474  0.2950 -0.1258 -0.1690
   11DOPE  H18R 1370   2.636   5.179   6.375  0.6413  0.1385 -0.0674
   11DOPE  H18S 1371   2.645   5.282   6.526  0.2224 -0.6708  0.8027
   11DOPE  H18T 1372   2.484   5.223   6.452  0.1434 -1.2502 -0.6999
   11DOPE   C33 1373   2.788   4.095   8.177 -0.1496  0.2049  0.3887
   11DOPE   H3X 1374   2.826   4.006   8.232  0.1358 -0.5585 -0.9910
   11DOPE   H3Y 1375   2.861   4.179   8.182  0.2856  0.0410 -2.1428
   11DOPE   C34 1376   2.775   4.058   8.033 -0.7580  0.3135 -0.1994
   11DOPE   H4X 1377   2.855   3.990   7.996 -2.2776 -0.2965 -2.5758
   11DOPE   H4Y 1378   2.681   3.998   8.034 -1.2092  1.0088  0.3658
   11DOPE   C35 1379   2.765   4.185   7.944 -0.2359  0.4416  0.2650
   11DOPE   H5X 1380   2.867   4.227   7.930 -0.0092 -0.3225 -0.4143
   11DOPE   H5Y 1381   2.700   4.257   7.999 -0.7004  0.5133 -0.3665
   11DOPE   C36 1382   2.721   4.153   7.798 -0.1583 -0.2199  0.1833
   11DOPE   H6X 1383   2.610   4.156   7.799 -0.1818  1.6310 -1.7303
   11DOPE   H6Y 1384   2.768   4.065   7.748  0.6245  1.6290 -2.5239
   11DOPE   C37 1385   2.765   4.264   7.702  0.0513  0.4209 -0.0057
   11DOPE   H7X 1386   2.707   4.355   7.729 -0.5031 -0.0615  0.4659
   11DOPE   H7Y 1387   2.875   4.279   7.709 -0.0452  0.6186  1.6549
   11DOPE   C38 1388   2.733   4.223   7.555  0.0832 -0.0194 -1.0159
   11DOPE   H8X 1389   2.794   4.132   7.538  2.2089  0.8752  1.1796
   11DOPE   H8Y 1390   2.777   4.296   7.483 -0.2677  0.6014 -0.6122
   11DOPE   C39 1391   2.591   4.179   7.527 -0.7800 -0.5426 -0.1091
   11DOPE   H9X 1392   2.521   4.168   7.612  1.9161 -0.4680  2.2709
   11DOPE  C310 1393   2.537   4.162   7.399  0.4817  0.1672 -0.3197
   11DOPE  H10X 1394   2.438   4.114   7.403  0.6896 -0.1904  1.1616
   11DOPE  C311 1395   2.608   4.182   7.266 -1.4828  0.9209 -0.0538
   11DOPE  H11X 1396   2.705   4.127   7.270 -0.8836  1.9900  0.4638
   11DOPE  H11Y 1397   2.554   4.133   7.182  0.7192 -3.7851  0.9184
   11DOPE  C312 1398   2.623   4.325   7.229 -0.5205  0.4459 -0.1567
   11DOPE  H12X 1399   2.698   4.371   7.297  2.4513 -1.7837 -1.7098
   11DOPE  H12Y 1400   2.533   4.385   7.254  0.2946  2.4571 -1.7560
   11DOPE  C313 1401   2.678   4.347   7.082  0.2132  0.3063 -0.5136
   11DOPE  H13X 1402   2.733   4.443   7.087 -0.0251  0.5814 -2.3001
   11DOPE  H13Y 1403   2.749   4.265   7.059  0.5454 -0.0540  1.6048
   11DOPE  C314 1404   2.567   4.337   6.974 -0.5450  0.9126 -0.0023
   11DOPE  H14X 1405   2.480   4.404   6.987 -1.0500  0.3278 -0.3678
   11DOPE  H14Y 1406   2.514   4.240   6.975  0.7898  0.1542  1.3732
   11DOPE  C315 1407   2.621   4.375   6.829 -0.0860  0.3673 -0.7712
   11DOPE  H15X 1408   2.708   4.313   6.798  0.6046  1.1395 -0.4273
   11DOPE  H15Y 1409   2.663   4.476   6.850 -2.5905  1.5784 -1.2868
   11DOPE  C316 1410   2.518   4.389   6.714 -0.0224  0.8775 -0.1976
   11DOPE  H16X 1411   2.456   4.480   6.728 -0.1405  0.5717  1.4790
   11DOPE  H16Y 1412   2.465   4.292   6.703 -1.4107  1.4084  1.4031
   11DOPE  C317 1413   2.590   4.406   6.577  0.1908 -0.2472  0.1187
   11DOPE  H17X 1414   2.675   4.477   6.590 -0.4232  0.7952 -1.2694
   11DOPE  H17Y 1415   2.636   4.310   6.545  3.4986  1.3480 -0.2802
   11DOPE  C318 1416   2.492   4.439   6.461  0.6258 -0.4265  1.0199
   11DOPE  H18X 1417   2.541   4.438   6.362 -0.0177 -0.9350  0.7043
   11DOPE  H18Y 1418   2.409   4.366   6.463  0.5318 -0.6688 -3.1737
   11DOPE  H18Z 1419   2.440   4.536   6.476  1.0901 -0.4520  3.1248
   12DOPE     N 1420   4.793   0.925   9.564 -0.5142 -0.3493  0.0585
   12DOPE   HN1 1421   4.896   0.926   9.548 -0.4014  0.6060  0.7617
   12DOPE   HN2 1422   4.790   0.948   9.666 -0.7019  1.5613 -0.3444
   12DOPE   HN3 1423   4.756   0.829   9.550  0.5909 -0.6155 -1.1831
   12DOPE   C12 1424   4.727   1.022   9.461  0.5296  0.0804 -0.9461
   12DOPE  H12A 1425   4.732   1.128   9.495 -0.9572 -0.3104  0.6369
   12DOPE  H12B 1426   4.618   1.003   9.465  0.3069  1.3253 -0.5830
   12DOPE   C11 1427   4.769   1.005   9.317 -0.8327  0.2604  0.1571
   12DOPE  H11A 1428   4.694   1.044   9.244 -2.4906 -0.6790  1.2936
   12DOPE  H11B 1429   4.772   0.897   9.293  1.5609  0.2607  0.2326
   12DOPE     P 1430   4.940   1.160   9.174  0.0897  0.3059 -0.0726
   12DOPE   O13 1431   5.087   1.150   9.155  0.2790 -0.5919 -0.0498
   12DOPE   O14 1432   4.876   1.292   9.193  1.0615  0.4256 -0.2441
   12DOPE   O11 1433   4.884   1.078   9.051  0.0515 -0.2549 -0.5007
   12DOPE   O12 1434   4.900   1.069   9.299  0.2999  0.1394  0.0314
   12DOPE    C1 1435   4.897   0.939   9.025 -0.5409 -0.5631 -0.0887
   12DOPE    HA 1436   4.802   0.887   9.052 -1.6554  0.5821 -1.5995
   12DOPE    HB 1437   4.978   0.892   9.084  0.4327  0.2917 -0.7265
   12DOPE    C2 1438   4.941   0.908   8.877  0.5875  0.1074 -0.2487
   12DOPE    HS 1439   4.935   0.797   8.873 -2.2690  0.2351 -1.7184
   12DOPE   O21 1440   5.072   0.958   8.841 -0.3901 -0.2413 -0.2111
   12DOPE   C21 1441   5.176   0.895   8.896  0.1093 -0.1156 -0.0113
   12DOPE   O22 1442   5.170   0.796   8.966  0.1089 -0.0501 -0.3934
   12DOPE   C22 1443   5.305   0.967   8.850  0.0758 -0.7199 -0.2234
   12DOPE   H2R 1444   5.361   1.007   8.938 -2.1326  2.0326  0.0625
   12DOPE   H2S 1445   5.273   1.043   8.776 -0.5148 -2.4393 -1.8088
   12DOPE    C3 1446   4.833   0.956   8.780  0.4427  0.8048  0.1904
   12DOPE    HX 1447   4.824   1.064   8.803  0.0581  0.2975  2.6768
   12DOPE    HY 1448   4.735   0.910   8.803  0.2097  1.5994  0.8191
   12DOPE   O31 1449   4.880   0.946   8.638  0.2970  0.5995  0.1370
   12DOPE   C31 1450   4.790   0.957   8.542  0.0792 -0.2587 -0.1622
   12DOPE   O32 1451   4.670   0.953   8.565 -0.3189 -0.2688 -1.0076
   12DOPE   C32 1452   4.852   0.977   8.411 -0.0696  0.3119  0.6777
   12DOPE   H2X 1453   4.930   1.056   8.407  0.4245 -0.2017 -0.1790
   12DOPE   H2Y 1454   4.898   0.878   8.389  0.8574  0.7145  0.7340
   12DOPE   C23 1455   5.389   0.864   8.773 -0.1575 -0.3553 -0.2551
   12DOPE   H3R 1456   5.429   0.793   8.849 -0.8679  0.6298  1.0935
   12DOPE   H3S 1457   5.475   0.923   8.733 -0.7312 -0.3616 -1.5425
   12DOPE   C24 1458   5.319   0.791   8.651 -0.2202 -0.9329  0.2741
   12DOPE   H4R 1459   5.244   0.720   8.691 -1.5345  0.1323 -0.2060
   12DOPE   H4S 1460   5.398   0.731   8.602  0.2183 -1.0235  1.0921
   12DOPE   C25 1461   5.263   0.888   8.551  0.8840 -0.1087  0.1869
   12DOPE   H5R 1462   5.342   0.962   8.526  0.5083  0.1106 -0.3778
   12DOPE   H5S 1463   5.175   0.940   8.595 -1.2616 -1.3983 -2.2905
   12DOPE   C26 1464   5.222   0.832   8.416 -0.6123  0.3398 -0.7971
   12DOPE   H6R 1465   5.154   0.906   8.368 -0.8711 -1.2309 -2.9596
   12DOPE   H6S 1466   5.160   0.742   8.435 -0.9268  0.3960 -1.5484
   12DOPE   C27 1467   5.333   0.804   8.315 -0.4686  0.4501 -0.4201
   12DOPE   H7R 1468   5.386   0.713   8.350  1.6267  1.5750 -0.4909
   12DOPE   H7S 1469   5.413   0.881   8.316 -0.2434  0.2387 -1.4079
   12DOPE   C28 1470   5.270   0.801   8.171 -0.0623 -0.3143 -0.1946
   12DOPE   H8R 1471   5.207   0.891   8.156 -1.6336 -1.4438 -0.6864
   12DOPE   H8S 1472   5.194   0.719   8.173 -1.1056  0.6442  0.5789
   12DOPE   C29 1473   5.370   0.782   8.059 -0.3038 -0.4068  0.1096
   12DOPE   H9R 1474   5.462   0.725   8.084 -0.5708 -0.3080  1.4181
   12DOPE  C210 1475   5.347   0.809   7.928  0.4515 -0.4610 -0.0562
   12DOPE  H10R 1476   5.426   0.773   7.860 -0.7416 -0.5815 -1.4091
   12DOPE  C211 1477   5.231   0.884   7.866 -0.0304  0.3204 -0.1336
   12DOPE  H11R 1478   5.269   0.986   7.845 -1.8836  0.9235 -0.7870
   12DOPE  H11S 1479   5.146   0.879   7.938  0.3210 -4.0296  0.2455
   12DOPE  C212 1480   5.179   0.816   7.735  0.6537 -0.6821 -0.2521
   12DOPE  H12R 1481   5.103   0.881   7.687  0.9892 -0.3467 -0.3292
   12DOPE  H12S 1482   5.139   0.716   7.763 -0.0551 -0.4220 -0.3127
   12DOPE  C213 1483   5.293   0.794   7.630 -0.2130 -0.0542  0.1438
   12DOPE  H13R 1484   5.390   0.766   7.677 -0.2704 -0.0956  0.2401
   12DOPE  H13S 1485   5.302   0.897   7.588 -0.9671  0.8335  2.0078
   12DOPE  C214 1486   5.264   0.699   7.517 -0.3697  0.3601  1.1783
   12DOPE  H14R 1487   5.234   0.597   7.551 -0.0756 -0.2246 -0.2644
   12DOPE  H14S 1488   5.353   0.695   7.452 -2.7819  1.0455 -2.4619
   12DOPE  C215 1489   5.151   0.749   7.424 -0.3832  0.3479  0.8367
   12DOPE  H15R 1490   5.184   0.842   7.373  1.3604  0.0444  1.3512
   12DOPE  H15S 1491   5.066   0.778   7.490 -0.6577 -1.1812  1.2041
   12DOPE  C216 1492   5.106   0.650   7.312 -0.2795  0.5163 -0.2759
   12DOPE  H16R 1493   5.008   0.678   7.268 -0.4599  0.4880  0.1123
   12DOPE  H16S 1494   5.111   0.545   7.346  0.7919  0.4539 -0.5650
   12DOPE  C217 1495   5.210   0.650   7.198  0.2370  0.2070  0.0176
   12DOPE  H17R 1496   5.202   0.553   7.144  0.9647 -0.0346  0.3305
   12DOPE  H17S 1497   5.312   0.658   7.242 -1.3248  3.0292  3.5724
   12DOPE  C218 1498   5.167   0.762   7.102 -0.1410 -0.5006  0.5365
   12DOPE  H18R 1499   5.184   0.867   7.134  1.9226 -0.8863  0.7986
   12DOPE  H18S 1500   5.066   0.750   7.057 -0.6012  0.5398  1.2485
   12DOPE  H18T 1501   5.238   0.771   7.017 -0.4892 -0.1820  0.2754
   12DOPE   C33 1502   4.751   1.015   8.297  0.3722 -0.2418  0.4610
   12DOPE   H3X 1503   4.721   1.122   8.296  0.0293 -0.2564 -3.0597
   12DOPE   H3Y 1504   4.663   0.948   8.300  0.9475 -0.9893  0.9460
   12DOPE   C34 1505   4.829   0.991   8.166  0.4974 -0.2071  0.2863
   12DOPE   H4X 1506   4.904   1.073   8.157  0.4522 -0.2930 -1.0195
   12DOPE   H4Y 1507   4.886   0.896   8.159 -0.3240 -0.5965 -3.1058
   12DOPE   C35 1508   4.743   1.011   8.033 -0.3638  0.0626  0.2568
   12DOPE   H5X 1509   4.712   1.118   8.031  0.9691  0.4781  0.7013
   12DOPE   H5Y 1510   4.666   0.931   8.031  0.1447 -0.4276  0.0680
   12DOPE   C36 1511   4.836   0.989   7.907 -1.0417  0.0720 -0.1582
   12DOPE   H6X 1512   4.939   0.973   7.946 -0.6781  1.8986 -0.2816
   12DOPE   H6Y 1513   4.837   1.077   7.840 -0.8945  0.3708  0.2370
   12DOPE   C37 1514   4.788   0.861   7.829  0.3367  0.5187  0.3138
   12DOPE   H7X 1515   4.877   0.825   7.774  0.2326 -0.5763  0.8264
   12DOPE   H7Y 1516   4.768   0.789   7.911 -1.6696  1.1561  0.4365
   12DOPE   C38 1517   4.673   0.890   7.741 -0.0749  0.2925  0.2012
   12DOPE   H8X 1518   4.597   0.952   7.793 -1.1670 -1.0562  0.2960
   12DOPE   H8Y 1519   4.626   0.793   7.714 -1.5446  1.2422 -0.8404
   12DOPE   C39 1520   4.720   0.975   7.626  0.4167  0.1594 -0.6494
   12DOPE   H9X 1521   4.805   1.042   7.643  0.4317 -0.0922  0.2897
   12DOPE  C310 1522   4.677   0.952   7.500 -0.9171  0.4751 -0.1539
   12DOPE  H10X 1523   4.726   1.011   7.421 -0.7135  0.3566 -0.1179
   12DOPE  C311 1524   4.569   0.858   7.456  0.0086  0.3115  0.1962
   12DOPE  H11X 1525   4.554   0.777   7.530  0.4046  2.0343  2.2407
   12DOPE  H11Y 1526   4.474   0.916   7.450  0.7296  2.0051  3.2979
   12DOPE  C312 1527   4.589   0.795   7.314  0.7011 -0.6428  0.0347
   12DOPE  H12X 1528   4.503   0.730   7.289  1.2172 -0.9467 -1.0260
   12DOPE  H12Y 1529   4.683   0.735   7.317  1.1333  0.0032 -0.2014
   12DOPE  C313 1530   4.576   0.902   7.205  0.9357 -0.1167  0.1919
   12DOPE  H13X 1531   4.485   0.965   7.197 -0.6108 -2.1185  0.8950
   12DOPE  H13Y 1532   4.655   0.978   7.213  1.6352 -0.4977 -2.1851
   12DOPE  C314 1533   4.587   0.846   7.061 -0.0449  0.0995 -0.0543
   12DOPE  H14X 1534   4.563   0.920   6.982 -1.7292 -0.4482 -0.1025
   12DOPE  H14Y 1535   4.518   0.759   7.053  1.4245 -0.9694 -2.1639
   12DOPE  C315 1536   4.732   0.789   7.029  1.4740 -0.1373 -0.3861
   12DOPE  H15X 1537   4.756   0.691   7.075 -0.3261 -0.3978  0.0452
   12DOPE  H15Y 1538   4.812   0.862   7.056  0.5902  0.6931  0.0510
   12DOPE  C316 1539   4.744   0.768   6.872  0.4474  0.1680 -0.1645
   12DOPE  H16X 1540   4.850   0.736   6.861  0.5215  0.1758  0.4914
   12DOPE  H16Y 1541   4.739   0.869   6.827 -0.5128  1.7099  3.0636
   12DOPE  C317 1542   4.641   0.661   6.813  0.1799 -0.2557 -0.6770
   12DOPE  H17X 1543   4.665   0.568   6.869  1.6781 -0.3425 -1.3968
   12DOPE  H17Y 1544   4.537   0.691   6.837  0.4320  0.4981 -0.4838
   12DOPE  C318 1545   4.650   0.630   6.666  0.0247  0.0935 -0.1890
   12DOPE  H18X 1546   4.591   0.539   6.640  0.9065 -0.4942 -0.1867
   12DOPE  H18Y 1547   4.614   0.713   6.601 -1.6446 -1.6451 -1.6100
   12DOPE  H18Z 1548   4.757   0.610   6.644 -0.1408 -1.4514  0.2667
   13DOPE     N 1549   2.783   3.446   8.728  0.3702  0.5632 -0.5316
   13DOPE   HN1 1550   2.740   3.364   8.775  0.2115  1.6903  1.3738
   13DOPE   HN2 1551   2.873   3.459   8.779 -0.8898  2.4378  1.3845
   13DOPE   HN3 1552   2.722   3.529   8.745  1.5495  1.3975 -0.2511
   13DOPE   C12 1553   2.811   3.422   8.580  0.3893 -0.5934  0.0727
   13DOPE  H12A 1554   2.860   3.518   8.553 -0.1249 -0.6620 -1.1967
   13DOPE  H12B 1555   2.714   3.410   8.528 -0.2448 -0.1239  1.1157
   13DOPE   C11 1556   2.899   3.304   8.544 -0.2231  0.3325 -0.3948
   13DOPE  H11A 1557   2.995   3.303   8.600 -1.2255  0.8907  1.4402
   13DOPE  H11B 1558   2.933   3.318   8.440  0.1910  1.8371 -0.0728
   13DOPE     P 1559   2.803   3.073   8.460  0.4387  0.0557 -0.2779
   13DOPE   O13 1560   2.673   2.999   8.502 -0.1164 -0.1255 -0.0661
   13DOPE   O14 1561   2.926   2.999   8.455  0.3906 -0.3946 -0.2369
   13DOPE   O11 1562   2.791   3.153   8.326 -0.2154 -0.3191 -0.2148
   13DOPE   O12 1563   2.837   3.180   8.570  0.1879 -0.1030 -0.1743
   13DOPE    C1 1564   2.666   3.204   8.274  0.3192  0.2839 -0.1608
   13DOPE    HA 1565   2.602   3.248   8.354  0.3365  0.2616 -0.1348
   13DOPE    HB 1566   2.602   3.119   8.244 -1.1479  0.5165  2.1075
   13DOPE    C2 1567   2.676   3.311   8.160 -0.2797 -0.0662 -0.4825
   13DOPE    HS 1568   2.579   3.354   8.127 -0.2598  1.7235  1.5551
   13DOPE   O21 1569   2.751   3.260   8.059  0.1191  0.6193 -0.0879
   13DOPE   C21 1570   2.685   3.195   7.964 -0.0687 -0.0409  0.1272
   13DOPE   O22 1571   2.565   3.203   7.945 -0.9504  0.3267 -0.0563
   13DOPE   C22 1572   2.780   3.116   7.869 -0.2095  0.9301 -0.4094
   13DOPE   H2R 1573   2.769   3.009   7.895 -1.5431  0.8998 -1.0217
   13DOPE   H2S 1574   2.884   3.141   7.900  0.3194 -0.2692 -1.1411
   13DOPE    C3 1575   2.744   3.441   8.205 -0.4456 -0.2958 -0.3720
   13DOPE    HX 1576   2.850   3.423   8.232  0.3213  0.9267 -2.3941
   13DOPE    HY 1577   2.695   3.473   8.299  0.7407 -0.4577  0.3208
   13DOPE   O31 1578   2.732   3.553   8.105  0.5211  0.1674  0.3518
   13DOPE   C31 1579   2.826   3.559   8.017 -0.1666 -0.2690  0.6128
   13DOPE   O32 1580   2.931   3.495   8.022 -0.1060 -0.7708  0.3251
   13DOPE   C32 1581   2.777   3.638   7.900  0.2065 -0.1642  0.1566
   13DOPE   H2X 1582   2.687   3.588   7.860 -1.2436  1.4785  1.2222
   13DOPE   H2Y 1583   2.742   3.740   7.926 -1.3668 -0.5628 -0.3091
   13DOPE   C23 1584   2.755   3.149   7.722  0.0263  0.0638  0.5124
   13DOPE   H3R 1585   2.645   3.141   7.707  0.0378 -0.9083  0.9191
   13DOPE   H3S 1586   2.796   3.066   7.661  0.8973  0.8885 -0.0569
   13DOPE   C24 1587   2.818   3.273   7.661  0.6983  0.3649  0.4388
   13DOPE   H4R 1588   2.927   3.263   7.683  1.4675  0.1317 -2.8842
   13DOPE   H4S 1589   2.767   3.358   7.710 -1.2143 -0.6337  0.2747
   13DOPE   C25 1590   2.819   3.270   7.507  0.0039  0.0450  0.8428
   13DOPE   H5R 1591   2.888   3.349   7.471 -0.3236 -0.5456 -1.2424
   13DOPE   H5S 1592   2.721   3.299   7.462  0.4832  1.4358  0.6528
   13DOPE   C26 1593   2.865   3.144   7.435 -0.0092 -0.1179  0.3653
   13DOPE   H6R 1594   2.790   3.063   7.433 -0.5740  0.3060  2.1941
   13DOPE   H6S 1595   2.953   3.103   7.490 -0.7589 -0.7972  1.0850
   13DOPE   C27 1596   2.910   3.163   7.291  0.4370  0.0933  0.5726
   13DOPE   H7R 1597   2.942   3.072   7.235  1.4399  1.1173 -0.6002
   13DOPE   H7S 1598   3.001   3.226   7.304 -0.3210  1.2206  0.5385
   13DOPE   C28 1599   2.812   3.240   7.206  0.6943 -0.5986  0.4267
   13DOPE   H8R 1600   2.864   3.283   7.118 -1.1189 -2.1358 -1.5025
   13DOPE   H8S 1601   2.774   3.333   7.254 -1.2429  0.0579 -2.1570
   13DOPE   C29 1602   2.682   3.172   7.158 -0.1210  0.0790 -0.3000
   13DOPE   H9R 1603   2.613   3.133   7.233  0.1387  0.9055  0.3902
   13DOPE  C210 1604   2.638   3.158   7.030  0.2947  0.1399 -0.5164
   13DOPE  H10R 1605   2.549   3.100   7.002  0.8339  0.5697 -3.4108
   13DOPE  C211 1606   2.725   3.203   6.917  0.5001 -0.2399 -0.2724
   13DOPE  H11R 1607   2.829   3.163   6.919  0.5783 -0.0751 -0.7747
   13DOPE  H11S 1608   2.737   3.313   6.927  1.0201 -0.3076 -0.1079
   13DOPE  C212 1609   2.654   3.171   6.778 -0.6573 -0.4631  0.1369
   13DOPE  H12R 1610   2.547   3.200   6.782 -1.0724 -1.7926 -0.7513
   13DOPE  H12S 1611   2.660   3.061   6.769 -1.9967 -0.5724  0.3702
   13DOPE  C213 1612   2.723   3.229   6.655  0.5498 -0.0880  0.3533
   13DOPE  H13R 1613   2.829   3.210   6.682 -0.7295 -3.6523  3.9305
   13DOPE  H13S 1614   2.700   3.337   6.651 -0.4503 -0.2972  0.2024
   13DOPE  C214 1615   2.681   3.153   6.518 -0.0714  0.4040 -0.1674
   13DOPE  H14R 1616   2.571   3.170   6.520  0.2558  2.8536  0.6798
   13DOPE  H14S 1617   2.708   3.045   6.510  2.8472  1.1642 -2.6078
   13DOPE  C215 1618   2.726   3.229   6.389 -0.2249 -0.1180  0.3975
   13DOPE  H15R 1619   2.836   3.245   6.397 -0.2865  1.4225 -1.2933
   13DOPE  H15S 1620   2.674   3.327   6.383  0.5835  0.4787  2.2776
   13DOPE  C216 1621   2.704   3.149   6.261 -0.0168  0.4329 -0.3171
   13DOPE  H16R 1622   2.597   3.130   6.237  0.5843 -2.0864 -1.3155
   13DOPE  H16S 1623   2.755   3.053   6.284  2.0469  1.9682  1.9522
   13DOPE  C217 1624   2.783   3.198   6.142 -0.4348 -0.2477 -0.6059
   13DOPE  H17R 1625   2.889   3.222   6.163 -1.3598  3.3533  0.5749
   13DOPE  H17S 1626   2.743   3.295   6.106  0.3134  1.3168  2.4470
   13DOPE  C218 1627   2.782   3.111   6.021 -0.5540  0.6603  0.0477
   13DOPE  H18R 1628   2.834   3.017   6.046 -0.0663  0.6107 -1.0923
   13DOPE  H18S 1629   2.836   3.146   5.930  0.7614 -1.0337  0.1189
   13DOPE  H18T 1630   2.678   3.094   5.986 -0.3687 -1.3021  0.3796
   13DOPE   C33 1631   2.884   3.638   7.793 -0.7625  0.3488  0.0157
   13DOPE   H3X 1632   2.880   3.536   7.748 -0.4847  1.0938 -1.7696
   13DOPE   H3Y 1633   2.989   3.647   7.828 -0.7149  1.2267 -0.3346
   13DOPE   C34 1634   2.860   3.744   7.688 -0.1861 -0.6413 -0.0204
   13DOPE   H4X 1635   2.870   3.842   7.740  2.2769 -0.5980 -0.4444
   13DOPE   H4Y 1636   2.941   3.728   7.613 -0.1032 -1.3296  0.2119
   13DOPE   C35 1637   2.723   3.734   7.617 -0.0822  0.2856 -0.2847
   13DOPE   H5X 1638   2.638   3.763   7.682 -0.6649 -1.0124 -0.4368
   13DOPE   H5Y 1639   2.711   3.628   7.585 -2.0349  1.2164 -2.9953
   13DOPE   C36 1640   2.721   3.814   7.479  0.6632  0.3492 -0.5797
   13DOPE   H6X 1641   2.808   3.882   7.466  0.7873  0.5065  0.9461
   13DOPE   H6Y 1642   2.628   3.874   7.483  0.4028 -0.0656 -0.3178
   13DOPE   C37 1643   2.711   3.718   7.362  0.0037  0.3653  0.1759
   13DOPE   H7X 1644   2.750   3.616   7.381  4.1653  1.8075  0.2892
   13DOPE   H7Y 1645   2.601   3.702   7.351 -0.0500  0.9852 -0.2706
   13DOPE   C38 1646   2.783   3.761   7.237 -0.5158 -0.4180  0.2348
   13DOPE   H8X 1647   2.818   3.673   7.179  1.4518  0.4101  0.0641
   13DOPE   H8Y 1648   2.883   3.806   7.253  1.0878 -2.2719 -3.2846
   13DOPE   C39 1649   2.695   3.860   7.160 -0.0725 -0.3028 -0.5860
   13DOPE   H9X 1650   2.653   3.940   7.224 -0.2896 -1.4095  0.6841
   13DOPE  C310 1651   2.670   3.863   7.031 -0.0456  0.1817 -0.2777
   13DOPE  H10X 1652   2.617   3.947   6.983 -0.5508  1.1816  1.9206
   13DOPE  C311 1653   2.716   3.760   6.932  0.4656 -0.0567 -0.4004
   13DOPE  H11X 1654   2.780   3.679   6.972 -0.9898 -1.6995 -1.2404
   13DOPE  H11Y 1655   2.630   3.697   6.902  0.5500  0.2094 -1.2185
   13DOPE  C312 1656   2.781   3.823   6.811 -0.8219  0.2301  0.4395
   13DOPE  H12X 1657   2.867   3.880   6.851 -0.7425  1.0454 -0.8547
   13DOPE  H12Y 1658   2.707   3.886   6.759  0.3143 -0.0770 -1.6235
   13DOPE  C313 1659   2.818   3.716   6.704 -0.1869 -0.1068  0.1045
   13DOPE  H13X 1660   2.902   3.652   6.736 -0.1692  0.4512  1.2363
   13DOPE  H13Y 1661   2.728   3.652   6.689 -1.7071  1.4274  2.0067
   13DOPE  C314 1662   2.836   3.769   6.562  0.4438  0.1075 -0.2462
   13DOPE  H14X 1663   2.933   3.821   6.544 -0.4176  0.9753 -2.8487
   13DOPE  H14Y 1664   2.744   3.823   6.531  0.3917 -0.7052 -1.5617
   13DOPE  C315 1665   2.835   3.651   6.469  0.3662  0.4464  0.0307
   13DOPE  H15X 1666   2.765   3.572   6.503 -2.3016  2.6597  0.0001
   13DOPE  H15Y 1667   2.934   3.599   6.464 -1.1055 -2.8664  1.8532
   13DOPE  C316 1668   2.776   3.684   6.329 -0.9605 -0.2345  0.6359
   13DOPE  H16X 1669   2.821   3.783   6.307  1.7075 -1.0749  1.8640
   13DOPE  H16Y 1670   2.665   3.691   6.331 -1.0633  1.6401 -3.0026
   13DOPE  C317 1671   2.816   3.591   6.212  0.4955 -0.0289  0.2511
   13DOPE  H17X 1672   2.927   3.593   6.204  0.3597  1.5352 -2.1997
   13DOPE  H17Y 1673   2.784   3.487   6.232  1.7275 -0.5635 -0.4628
   13DOPE  C318 1674   2.756   3.636   6.081 -0.0240 -0.1378  0.9001
   13DOPE  H18X 1675   2.785   3.568   5.998  0.3382 -1.8300  2.3402
   13DOPE  H18Y 1676   2.645   3.629   6.087 -0.2075  0.6779 -0.9272
   13DOPE  H18Z 1677   2.776   3.742   6.055 -0.2961 -0.5098 -0.9810
   14DOPE     N 1678   5.595   0.294   9.859  0.5019 -0.1872 -0.0591
   14DOPE   HN1 1679   5.528   0.369   9.886  1.0004 -0.2962  1.5988
   14DOPE   HN2 1680   5.530   0.224   9.818 -0.6402  1.1431 -0.6264
   14DOPE   HN3 1681   5.629   0.257   9.950  1.1666 -2.1442 -1.0448
   14DOPE   C12 1682   5.712   0.350   9.766 -0.0739  0.9203 -0.7538
   14DOPE  H12A 1683   5.760   0.260   9.722  2.9533  1.6571  0.8072
   14DOPE  H12B 1684   5.790   0.383   9.838 -0.7138 -0.0179  0.4194
   14DOPE   C11 1685   5.676   0.461   9.666 -0.5544  0.5321  0.4673
   14DOPE  H11A 1686   5.767   0.515   9.635 -0.3098  0.1007  0.4312
   14DOPE  H11B 1687   5.615   0.541   9.713  0.0708  1.1212  0.2960
   14DOPE     P 1688   5.460   0.381   9.543  0.0336 -0.0444  0.1035
   14DOPE   O13 1689   5.409   0.384   9.682  0.3350  0.4397 -0.1440
   14DOPE   O14 1690   5.423   0.264   9.457  0.3737  0.0250  0.0841
   14DOPE   O11 1691   5.412   0.518   9.480 -0.1186 -0.2374 -0.5461
   14DOPE   O12 1692   5.617   0.405   9.542 -0.3863 -0.6135  0.0767
   14DOPE    C1 1693   5.502   0.607   9.416  0.0187  0.7712  0.4957
   14DOPE    HA 1694   5.603   0.600   9.463 -0.5740 -2.7099  1.4844
   14DOPE    HB 1695   5.467   0.712   9.428  2.7116  1.7415  0.6745
   14DOPE    C2 1696   5.527   0.591   9.259  0.7367  0.4995  0.1091
   14DOPE    HS 1697   5.580   0.495   9.240  0.2935  0.1704  0.5008
   14DOPE   O21 1698   5.596   0.707   9.212  0.2954 -0.5623 -0.3117
   14DOPE   C21 1699   5.729   0.699   9.221 -0.9483 -0.6725 -0.7127
   14DOPE   O22 1700   5.788   0.611   9.284  0.0940  0.0284  0.4753
   14DOPE   C22 1701   5.793   0.812   9.144  0.1208  0.0505  0.8237
   14DOPE   H2R 1702   5.877   0.851   9.205  0.4222 -0.2434  0.6001
   14DOPE   H2S 1703   5.726   0.898   9.122 -1.3310 -1.1278  0.4587
   14DOPE    C3 1704   5.392   0.592   9.190  0.1820  0.6377  0.5560
   14DOPE    HX 1705   5.349   0.689   9.224 -0.6829  1.0203 -1.5105
   14DOPE    HY 1706   5.327   0.512   9.232 -0.3218 -0.5499 -2.2836
   14DOPE   O31 1707   5.397   0.598   9.042  0.4656  0.2807 -0.2383
   14DOPE   C31 1708   5.383   0.482   8.983  0.0301 -0.6147  0.0715
   14DOPE   O32 1709   5.368   0.374   9.049 -0.4724 -0.6945 -0.1211
   14DOPE   C32 1710   5.414   0.478   8.830 -0.1548 -0.0372 -0.5025
   14DOPE   H2X 1711   5.334   0.532   8.775  0.1718  0.9809 -0.0155
   14DOPE   H2Y 1712   5.511   0.530   8.814 -0.5144  0.9836  0.5469
   14DOPE   C23 1713   5.859   0.769   9.008 -0.0177 -0.6217  0.0744
   14DOPE   H3R 1714   5.921   0.677   9.014  1.7993  0.5080 -0.2603
   14DOPE   H3S 1715   5.934   0.842   8.969 -1.6470  0.2326 -1.6065
   14DOPE   C24 1716   5.764   0.739   8.896 -0.8260  0.0363 -0.1833
   14DOPE   H4R 1717   5.689   0.820   8.883 -0.7330  0.3637  1.1871
   14DOPE   H4S 1718   5.702   0.653   8.931 -1.6312  1.0106  0.8919
   14DOPE   C25 1719   5.837   0.730   8.764  0.6944  0.1689  0.0362
   14DOPE   H5R 1720   5.910   0.649   8.746 -0.6765 -1.5703  1.9009
   14DOPE   H5S 1721   5.896   0.823   8.749  0.4376  0.3305  0.0034
   14DOPE   C26 1722   5.735   0.738   8.644  0.2659 -0.4170 -1.2748
   14DOPE   H6R 1723   5.692   0.839   8.659  0.2637 -0.6202  0.1737
   14DOPE   H6S 1724   5.665   0.653   8.659 -0.7082  0.7341  1.1519
   14DOPE   C27 1725   5.819   0.732   8.516 -0.1041 -0.0920  0.2961
   14DOPE   H7R 1726   5.875   0.636   8.518  1.3734  0.7214 -0.1621
   14DOPE   H7S 1727   5.887   0.820   8.518  1.1414 -0.9975 -0.4383
   14DOPE   C28 1728   5.727   0.753   8.390 -0.3632  0.1979 -0.0698
   14DOPE   H8R 1729   5.656   0.836   8.412 -1.2409 -1.2343  3.0449
   14DOPE   H8S 1730   5.672   0.660   8.362 -2.2091  1.0945  0.4361
   14DOPE   C29 1731   5.816   0.786   8.274  0.3973  0.0133  0.1751
   14DOPE   H9R 1732   5.889   0.866   8.291  2.4441 -2.1217  2.2033
   14DOPE  C210 1733   5.814   0.723   8.151 -0.1784 -0.0236 -0.0048
   14DOPE  H10R 1734   5.883   0.755   8.072  0.5317 -0.8453  0.2781
   14DOPE  C211 1735   5.728   0.615   8.113 -0.3465 -0.3831  0.2122
   14DOPE  H11R 1736   5.626   0.626   8.155 -0.3439 -0.8628  0.3459
   14DOPE  H11S 1737   5.782   0.528   8.156  2.4925  1.7372  1.2952
   14DOPE  C212 1738   5.703   0.587   7.966 -0.0185  0.6939  0.3452
   14DOPE  H12R 1739   5.648   0.670   7.917 -0.3859 -0.1363 -0.6703
   14DOPE  H12S 1740   5.633   0.501   7.978 -0.5663  1.3678  2.5562
   14DOPE  C213 1741   5.820   0.551   7.874  0.3580  0.8911  0.2820
   14DOPE  H13R 1742   5.822   0.440   7.871  2.3999  0.9210 -0.8107
   14DOPE  H13S 1743   5.920   0.584   7.908  0.4792 -0.8272  1.7767
   14DOPE  C214 1744   5.804   0.587   7.718  0.0160 -0.1586  0.6081
   14DOPE  H14R 1745   5.818   0.696   7.707 -0.7712 -0.0463  0.7091
   14DOPE  H14S 1746   5.700   0.579   7.680 -0.0526  1.6021  0.3619
   14DOPE  C215 1747   5.913   0.525   7.620  0.0293 -0.3093 -0.1391
   14DOPE  H15R 1748   5.904   0.416   7.639 -1.3547 -0.3939 -1.0918
   14DOPE  H15S 1749   6.017   0.556   7.643 -0.2664  0.0862  0.6812
   14DOPE  C216 1750   5.878   0.555   7.473  0.1509  0.2724 -0.1626
   14DOPE  H16R 1751   5.897   0.659   7.438 -0.4442  0.3411 -0.2939
   14DOPE  H16S 1752   5.767   0.547   7.462  0.1732 -0.2459 -0.0214
   14DOPE  C217 1753   5.950   0.465   7.372  0.5222  0.1273 -0.5543
   14DOPE  H17R 1754   5.931   0.357   7.388  0.7504 -0.3488 -3.0120
   14DOPE  H17S 1755   6.059   0.480   7.392  0.1971  0.2358  1.2612
   14DOPE  C218 1756   5.911   0.501   7.226 -0.7212 -0.1580 -0.1464
   14DOPE  H18R 1757   5.919   0.610   7.204 -0.9692 -0.1835 -0.3642
   14DOPE  H18S 1758   5.805   0.472   7.212  0.3664 -3.7407 -2.2467
   14DOPE  H18T 1759   5.986   0.444   7.167 -0.5719 -0.0973 -0.0148
   14DOPE   C33 1760   5.446   0.332   8.779 -0.0406  0.4148  0.1681
   14DOPE   H3X 1761   5.356   0.268   8.775  0.3919 -0.1451 -1.4422
   14DOPE   H3Y 1762   5.517   0.283   8.850  0.5279  0.6211 -0.2518
   14DOPE   C34 1763   5.516   0.332   8.641  0.2031  0.0553 -0.1220
   14DOPE   H4X 1764   5.602   0.403   8.635 -1.7538  2.5061 -1.3723
   14DOPE   H4Y 1765   5.556   0.229   8.629  0.4673 -0.2046  2.4135
   14DOPE   C35 1766   5.419   0.375   8.519  0.0365 -0.9424  0.1008
   14DOPE   H5X 1767   5.375   0.476   8.532 -1.7607 -1.4282 -1.7600
   14DOPE   H5Y 1768   5.335   0.303   8.531 -2.3705  1.6493 -0.2358
   14DOPE   C36 1769   5.480   0.365   8.380 -0.7006  0.4427 -0.0131
   14DOPE   H6X 1770   5.527   0.264   8.379 -2.0626 -0.2277 -1.8900
   14DOPE   H6Y 1771   5.569   0.427   8.357 -0.7565  0.9689  1.1374
   14DOPE   C37 1772   5.374   0.367   8.273 -0.6668 -0.1869  0.2461
   14DOPE   H7X 1773   5.280   0.317   8.302 -1.3239  0.9581  0.1621
   14DOPE   H7Y 1774   5.344   0.474   8.263  0.3790  0.0421 -0.7156
   14DOPE   C38 1775   5.439   0.321   8.135 -0.1274 -0.2106  0.3381
   14DOPE   H8X 1776   5.493   0.228   8.161 -0.7271 -1.0170 -1.1889
   14DOPE   H8Y 1777   5.513   0.399   8.106 -1.4508  1.4219  1.1920
   14DOPE   C39 1778   5.333   0.281   8.034 -0.9002  0.1439  0.7323
   14DOPE   H9X 1779   5.286   0.186   8.063 -2.2880 -0.0776 -1.9773
   14DOPE  C310 1780   5.294   0.331   7.910 -0.2842  0.5674 -0.1118
   14DOPE  H10X 1781   5.221   0.267   7.859  0.7846  0.6591 -1.8474
   14DOPE  C311 1782   5.332   0.454   7.828  0.8538 -0.4084 -0.6165
   14DOPE  H11X 1783   5.251   0.481   7.757  0.2731 -0.8511 -0.1349
   14DOPE  H11Y 1784   5.359   0.530   7.904 -0.5971 -0.5629  0.0950
   14DOPE  C312 1785   5.460   0.435   7.735 -0.2752  0.1491 -0.1667
   14DOPE  H12X 1786   5.544   0.384   7.787 -1.5825 -2.4642 -0.4783
   14DOPE  H12Y 1787   5.497   0.537   7.711  0.6228 -0.0728  0.2412
   14DOPE  C313 1788   5.445   0.359   7.606 -0.1112  0.2062 -0.4535
   14DOPE  H13X 1789   5.458   0.254   7.641  0.0287  0.4117  0.1333
   14DOPE  H13Y 1790   5.350   0.381   7.554 -0.6178 -1.1517 -0.1426
   14DOPE  C314 1791   5.558   0.398   7.509  0.9093 -0.2675 -0.1542
   14DOPE  H14X 1792   5.646   0.380   7.575 -0.3025 -0.4284  1.4584
   14DOPE  H14Y 1793   5.552   0.507   7.488 -2.4938 -0.6724 -2.0430
   14DOPE  C315 1794   5.576   0.314   7.378  0.3177 -0.3439 -0.5557
   14DOPE  H15X 1795   5.554   0.211   7.414  0.1542 -0.6017 -1.3771
   14DOPE  H15Y 1796   5.678   0.313   7.334  1.2744 -0.7883  1.5250
   14DOPE  C316 1797   5.481   0.355   7.267  0.0662  0.7225  0.9494
   14DOPE  H16X 1798   5.507   0.460   7.244  0.4238  0.3547 -0.3508
   14DOPE  H16Y 1799   5.373   0.341   7.291 -0.4081 -0.5663 -1.6843
   14DOPE  C317 1800   5.520   0.281   7.130 -0.0817  0.8970 -0.5141
   14DOPE  H17X 1801   5.620   0.311   7.091 -0.0140 -0.3476 -1.3661
   14DOPE  H17Y 1802   5.515   0.171   7.147 -0.1822  0.9568 -0.1515
   14DOPE  C318 1803   5.413   0.300   7.026 -0.0701  0.2103  0.0608
   14DOPE  H18X 1804   5.437   0.275   6.921  0.9877 -0.9626  0.5612
   14DOPE  H18Y 1805   5.324   0.239   7.052 -0.5970  0.8493 -0.2316
   14DOPE  H18Z 1806   5.376   0.405   7.027 -1.3972 -0.2384 -0.7853
   15DOPE     N 1807   2.119   3.985   9.308  0.0228  0.1549  0.3446
   15DOPE   HN1 1808   2.078   3.960   9.401 -1.3388  1.6823  0.2070
   15DOPE   HN2 1809   2.190   3.912   9.287 -0.7642  0.0719 -2.3793
   15DOPE   HN3 1810   2.150   4.084   9.314 -0.8859  0.4639  0.1216
   15DOPE   C12 1811   2.025   3.980   9.189  0.2102  0.0234  0.7258
   15DOPE  H12A 1812   2.095   3.997   9.105  1.6239  1.1784  2.0909
   15DOPE  H12B 1813   1.948   4.060   9.203  1.5826  1.3400  0.9465
   15DOPE   C11 1814   1.969   3.843   9.181  0.0249  0.9058 -0.4649
   15DOPE  H11A 1815   1.901   3.845   9.094  0.6501 -1.2155 -1.0614
   15DOPE  H11B 1816   1.918   3.815   9.275  0.1125 -0.4097 -0.7970
   15DOPE     P 1817   2.055   3.621   9.064 -0.1071  0.1340  0.4020
   15DOPE   O13 1818   1.938   3.545   9.113 -0.0355  0.6433 -0.1499
   15DOPE   O14 1819   2.184   3.551   9.051  0.5720 -0.5978 -0.5962
   15DOPE   O11 1820   2.026   3.703   8.929 -0.0690  0.3354 -0.4005
   15DOPE   O12 1821   2.072   3.737   9.168  0.0966 -0.2372 -0.0293
   15DOPE    C1 1822   2.143   3.759   8.862  0.7247  0.2174  0.3781
   15DOPE    HA 1823   2.206   3.677   8.820 -1.5146 -0.9418 -0.9154
   15DOPE    HB 1824   2.205   3.822   8.929  0.2232  2.6158 -1.2573
   15DOPE    C2 1825   2.097   3.848   8.738 -0.3663 -0.2046 -0.4099
   15DOPE    HS 1826   2.031   3.925   8.782 -2.0807 -1.6010 -0.4431
   15DOPE   O21 1827   2.017   3.766   8.651  0.2149  0.3604 -0.0919
   15DOPE   C21 1828   1.925   3.820   8.578 -1.0467  0.1074 -0.5326
   15DOPE   O22 1829   1.873   3.930   8.602  0.0032  0.8375 -0.2911
   15DOPE   C22 1830   1.887   3.737   8.455 -0.9566 -0.1194  0.1832
   15DOPE   H2R 1831   1.781   3.709   8.470 -0.3359 -2.1550  1.0700
   15DOPE   H2S 1832   1.944   3.642   8.463 -0.3962  0.2645  0.8490
   15DOPE    C3 1833   2.227   3.908   8.668 -0.4792 -0.8678  0.4940
   15DOPE    HX 1834   2.295   3.827   8.634 -0.4895 -0.5346 -0.3301
   15DOPE    HY 1835   2.285   3.962   8.746  0.9681  0.6176 -1.5106
   15DOPE   O31 1836   2.201   3.999   8.554 -0.0524  0.2833 -0.0889
   15DOPE   C31 1837   2.176   4.128   8.577 -0.3810  0.1947  0.3362
   15DOPE   O32 1838   2.146   4.176   8.684 -0.0329 -0.6909 -0.3099
   15DOPE   C32 1839   2.221   4.196   8.446  0.3781 -0.9131  0.6558
   15DOPE   H2X 1840   2.319   4.154   8.415  0.5553 -0.3571  0.4390
   15DOPE   H2Y 1841   2.146   4.151   8.378  0.2483 -0.9709  0.8382
   15DOPE   C23 1842   1.921   3.804   8.319 -0.4426  0.1356  0.6594
   15DOPE   H3R 1843   2.031   3.789   8.313 -0.1861  0.5139  3.2278
   15DOPE   H3S 1844   1.901   3.913   8.331  0.4154  0.2883  0.7607
   15DOPE   C24 1845   1.858   3.752   8.188  0.2026  0.3245 -0.6266
   15DOPE   H4R 1846   1.755   3.714   8.206  0.4236 -0.2423 -0.5242
   15DOPE   H4S 1847   1.900   3.658   8.147 -2.3068 -0.8639 -0.6576
   15DOPE   C25 1848   1.842   3.858   8.088 -0.0804 -0.2338 -0.1690
   15DOPE   H5R 1849   1.946   3.893   8.070 -0.1764  1.1812  1.6816
   15DOPE   H5S 1850   1.796   3.944   8.142 -0.3806  0.6454 -1.7771
   15DOPE   C26 1851   1.785   3.809   7.958 -0.1335  0.1309 -0.2491
   15DOPE   H6R 1852   1.740   3.894   7.903 -0.3224  0.4971  0.4558
   15DOPE   H6S 1853   1.696   3.744   7.977 -0.2603  0.6738  1.1735
   15DOPE   C27 1854   1.890   3.747   7.862  0.4580 -0.2440 -0.3188
   15DOPE   H7R 1855   1.917   3.652   7.913 -1.6504 -0.9194 -0.3598
   15DOPE   H7S 1856   1.985   3.804   7.854  2.8836 -3.8672  0.3768
   15DOPE   C28 1857   1.838   3.722   7.721  0.8984  0.0737 -0.1064
   15DOPE   H8R 1858   1.753   3.651   7.728  1.9691 -1.3344 -1.0895
   15DOPE   H8S 1859   1.922   3.670   7.670  0.9683  0.3579 -0.2831
   15DOPE   C29 1860   1.797   3.846   7.647  0.0997 -0.2180  0.1884
   15DOPE   H9R 1861   1.837   3.941   7.685 -0.2582  0.5330 -1.2096
   15DOPE  C210 1862   1.709   3.851   7.542  0.2333  0.2700 -0.0033
   15DOPE  H10R 1863   1.681   3.944   7.492  1.8222  0.7299 -0.0808
   15DOPE  C211 1864   1.639   3.730   7.485 -0.4586 -0.8061 -0.8713
   15DOPE  H11R 1865   1.539   3.761   7.448 -1.6505 -1.8360  1.3047
   15DOPE  H11S 1866   1.635   3.643   7.555  0.5169 -0.2320 -0.0636
   15DOPE  C212 1867   1.710   3.685   7.350  0.1687 -0.4733  0.4512
   15DOPE  H12R 1868   1.656   3.593   7.320 -2.1213  1.0521 -0.4099
   15DOPE  H12S 1869   1.816   3.665   7.377  0.8683  0.2051 -1.6439
   15DOPE  C213 1870   1.705   3.789   7.234 -0.6060  0.4581  0.3399
   15DOPE  H13R 1871   1.770   3.875   7.260  2.7919 -1.9882  0.5983
   15DOPE  H13S 1872   1.600   3.818   7.211 -0.4469 -0.3047 -1.6097
   15DOPE  C214 1873   1.764   3.734   7.101  0.2221 -0.2922  0.2432
   15DOPE  H14R 1874   1.716   3.639   7.067 -0.2266 -0.1781  0.5548
   15DOPE  H14S 1875   1.869   3.715   7.133  0.3020  0.2939  0.3293
   15DOPE  C215 1876   1.764   3.833   6.984  0.5309 -0.5624  0.3799
   15DOPE  H15R 1877   1.836   3.917   6.995  3.0772 -2.1624 -2.5107
   15DOPE  H15S 1878   1.658   3.868   6.977  0.9483  1.0079  1.4397
   15DOPE  C216 1879   1.800   3.767   6.852  0.0133  0.5281  0.2251
   15DOPE  H16R 1880   1.737   3.676   6.845  0.0180  0.4137  1.4412
   15DOPE  H16S 1881   1.906   3.732   6.855  0.1448  0.9692  1.4164
   15DOPE  C217 1882   1.780   3.851   6.728 -1.2256 -0.6550 -0.2596
   15DOPE  H17R 1883   1.836   3.943   6.753 -1.0717 -1.0265  0.8267
   15DOPE  H17S 1884   1.669   3.862   6.720 -1.3040  1.1830  2.2526
   15DOPE  C218 1885   1.841   3.778   6.610 -0.1585  0.2803  0.0253
   15DOPE  H18R 1886   1.782   3.686   6.592 -1.3587  1.3093 -1.7336
   15DOPE  H18S 1887   1.949   3.760   6.626 -0.2380 -2.1095 -1.6353
   15DOPE  H18T 1888   1.828   3.836   6.515 -0.5648  2.2291  1.2089
   15DOPE   C33 1889   2.221   4.352   8.447  0.8677 -0.0504  0.0133
   15DOPE   H3X 1890   2.280   4.392   8.532  2.2969  1.4691 -1.6018
   15DOPE   H3Y 1891   2.116   4.386   8.463  1.1827  0.4078  1.1857
   15DOPE   C34 1892   2.285   4.421   8.318  0.0363 -0.1291 -0.3103
   15DOPE   H4X 1893   2.327   4.519   8.350 -1.9887  0.7769 -0.2960
   15DOPE   H4Y 1894   2.361   4.355   8.272 -1.4587 -0.5173 -2.3399
   15DOPE   C35 1895   2.190   4.429   8.204  0.3778  0.4227 -0.2822
   15DOPE   H5X 1896   2.104   4.495   8.229 -0.3372 -0.5187 -0.2238
   15DOPE   H5Y 1897   2.144   4.331   8.180  1.8747 -0.4549  0.2987
   15DOPE   C36 1898   2.261   4.485   8.080  0.7189  0.5900 -0.4646
   15DOPE   H6X 1899   2.342   4.415   8.050 -1.0821 -1.6601 -0.3110
   15DOPE   H6Y 1900   2.309   4.581   8.109 -0.8387  1.9152 -2.1083
   15DOPE   C37 1901   2.173   4.510   7.958  0.7429 -0.0628 -0.5940
   15DOPE   H7X 1902   2.119   4.419   7.926  0.4499 -0.3952  0.7601
   15DOPE   H7Y 1903   2.085   4.570   7.991  0.2379 -1.7230  1.2880
   15DOPE   C38 1904   2.256   4.570   7.846  0.1376  0.0100 -0.2722
   15DOPE   H8X 1905   2.315   4.657   7.881 -1.4525  1.2695 -0.6338
   15DOPE   H8Y 1906   2.184   4.624   7.781 -0.0731  1.7834  1.3450
   15DOPE   C39 1907   2.338   4.467   7.773 -0.2896  0.1329  0.7929
   15DOPE   H9X 1908   2.418   4.423   7.834  0.5069  1.8221  1.0123
   15DOPE  C310 1909   2.310   4.413   7.656 -0.2186  0.4765  0.8171
   15DOPE  H10X 1910   2.368   4.322   7.632  0.3000  1.3177 -1.3488
   15DOPE  C311 1911   2.212   4.454   7.555 -0.3019 -0.1164  0.6604
   15DOPE  H11X 1912   2.120   4.391   7.552  0.1298 -0.8583  2.0821
   15DOPE  H11Y 1913   2.182   4.559   7.575  2.0847  0.5094  1.2949
   15DOPE  C312 1914   2.268   4.450   7.413  0.6468 -0.3621 -0.0638
   15DOPE  H12X 1915   2.371   4.411   7.400  1.4507  1.7045 -0.2451
   15DOPE  H12Y 1916   2.265   4.555   7.378 -0.1588 -0.2054  0.4553
   15DOPE  C313 1917   2.182   4.366   7.316 -0.2689  0.0185  0.1230
   15DOPE  H13X 1918   2.183   4.259   7.344 -1.0247 -0.2236 -0.7475
   15DOPE  H13Y 1919   2.076   4.397   7.320 -0.9391 -1.9718 -1.1838
   15DOPE  C314 1920   2.230   4.372   7.174  0.6225  0.5394 -0.4487
   15DOPE  H14X 1921   2.309   4.297   7.154  1.7890  2.1408 -2.1849
   15DOPE  H14Y 1922   2.257   4.478   7.153 -2.0012  1.3159 -0.2172
   15DOPE  C315 1923   2.118   4.340   7.068 -0.0214 -0.4683 -0.2989
   15DOPE  H15X 1924   2.028   4.406   7.077 -0.7134 -1.6057  1.8267
   15DOPE  H15Y 1925   2.076   4.237   7.075 -0.1066 -0.5515 -1.7757
   15DOPE  C316 1926   2.172   4.335   6.919 -0.0188  0.8070  0.7565
   15DOPE  H16X 1927   2.252   4.258   6.907 -1.1907 -0.6156  1.7572
   15DOPE  H16Y 1928   2.221   4.434   6.901 -1.1224  1.6376  2.1581
   15DOPE  C317 1929   2.060   4.313   6.811 -0.4881 -0.5207  0.2769
   15DOPE  H17X 1930   2.105   4.327   6.711 -0.0954 -2.6488  0.1140
   15DOPE  H17Y 1931   2.026   4.208   6.813 -2.7490  0.1250  3.1062
   15DOPE  C318 1932   1.943   4.410   6.824 -0.3536 -0.4881  0.2832
   15DOPE  H18X 1933   1.978   4.511   6.855  0.4386 -0.3765 -0.9487
   15DOPE  H18Y 1934   1.888   4.417   6.728  1.3037  0.7668 -0.6058
   15DOPE  H18Z 1935   1.875   4.375   6.905 -0.7767  2.0628  1.1326
   16DOPE     N 1936   2.254   5.430   9.141 -0.1824  0.3164 -0.9062
   16DOPE   HN1 1937   2.285   5.513   9.197 -0.4371  0.6391 -1.2333
   16DOPE   HN2 1938   2.167   5.395   9.185 -0.7519  1.7759 -0.7880
   16DOPE   HN3 1939   2.327   5.356   9.146 -1.4366 -0.9532 -0.8997
   16DOPE   C12 1940   2.213   5.478   9.001 -0.2126  0.3168 -0.8056
   16DOPE  H12A 1941   2.180   5.392   8.938  0.7176 -1.1195  0.5895
   16DOPE  H12B 1942   2.304   5.523   8.955  0.8684 -1.4882 -0.5137
   16DOPE   C11 1943   2.093   5.573   9.016 -1.1594  0.1270  0.1264
   16DOPE  H11A 1944   1.999   5.518   9.038 -0.7093 -0.4155  0.7001
   16DOPE  H11B 1945   2.065   5.610   8.915  1.5569  1.7847 -0.1198
   16DOPE     P 1946   2.108   5.829   9.090  0.2544  0.5203  0.2771
   16DOPE   O13 1947   2.127   5.907   9.212  0.6825  0.0884  0.1073
   16DOPE   O14 1948   1.985   5.857   9.015 -0.2547  0.0874 -0.1004
   16DOPE   O11 1949   2.228   5.842   8.984  0.1003 -0.1405 -0.1335
   16DOPE   O12 1950   2.118   5.672   9.124 -0.4538  0.2004  0.0964
   16DOPE    C1 1951   2.364   5.816   9.014 -0.2035  0.0985 -1.4147
   16DOPE    HA 1952   2.373   5.709   9.042 -5.2805 -0.4412 -0.8809
   16DOPE    HB 1953   2.410   5.896   9.076  0.4683 -0.2671 -1.4330
   16DOPE    C2 1954   2.450   5.820   8.883  0.1371 -0.1644 -0.3072
   16DOPE    HS 1955   2.440   5.924   8.844  0.7274  0.6627  1.6691
   16DOPE   O21 1956   2.400   5.725   8.786  0.2221  1.0060  0.7976
   16DOPE   C21 1957   2.298   5.769   8.713 -0.5620 -0.0574  0.6569
   16DOPE   O22 1958   2.263   5.886   8.707  0.1322  0.0309  0.1131
   16DOPE   C22 1959   2.247   5.660   8.628 -1.0845  0.8123  0.7430
   16DOPE   H2R 1960   2.182   5.591   8.686 -0.8102 -1.0747 -1.0640
   16DOPE   H2S 1961   2.337   5.608   8.587 -1.1656 -0.1383  1.7347
   16DOPE    C3 1962   2.595   5.782   8.915 -0.1592 -0.0566 -0.0746
   16DOPE    HX 1963   2.598   5.673   8.938 -1.3974  0.0261  0.5506
   16DOPE    HY 1964   2.627   5.852   8.994 -1.5743 -0.1481  0.6017
   16DOPE   O31 1965   2.672   5.794   8.790  0.6803 -0.5509  0.2484
   16DOPE   C31 1966   2.677   5.917   8.728 -0.1153 -0.0825 -0.4671
   16DOPE   O32 1967   2.635   6.021   8.777 -0.2015  0.4516  0.2973
   16DOPE   C32 1968   2.717   5.900   8.585 -0.7715  0.2787  0.8694
   16DOPE   H2X 1969   2.817   5.943   8.563 -1.5046  1.1854 -0.8289
   16DOPE   H2Y 1970   2.718   5.793   8.556  0.3255  0.4687  0.1734
   16DOPE   C23 1971   2.180   5.721   8.504 -0.5168 -0.4203 -0.5693
   16DOPE   H3R 1972   2.247   5.804   8.471  0.7262  0.0387  2.7389
   16DOPE   H3S 1973   2.088   5.774   8.537  1.1803  0.9025  2.5227
   16DOPE   C24 1974   2.179   5.622   8.381  0.6733  0.0467 -0.1823
   16DOPE   H4R 1975   2.110   5.539   8.408 -0.2330  0.8430  0.0038
   16DOPE   H4S 1976   2.285   5.587   8.384  0.5902 -0.1463  1.4176
   16DOPE   C25 1977   2.140   5.682   8.247 -0.4708 -0.3060  1.3186
   16DOPE   H5R 1978   2.173   5.788   8.246 -0.8730 -0.1479 -0.7176
   16DOPE   H5S 1979   2.031   5.671   8.227 -0.5558 -0.0742  1.6526
   16DOPE   C26 1980   2.220   5.610   8.132 -0.1424 -0.9879  0.6260
   16DOPE   H6R 1981   2.186   5.505   8.123 -2.2197 -0.2934 -0.2627
   16DOPE   H6S 1982   2.330   5.601   8.144 -0.2485 -1.1912  1.4836
   16DOPE   C27 1983   2.210   5.683   7.994 -0.1641 -0.1879 -0.5726
   16DOPE   H7R 1984   2.240   5.790   8.003 -0.5151  0.1744 -3.0138
   16DOPE   H7S 1985   2.104   5.691   7.961 -0.8042  1.6238  1.6574
   16DOPE   C28 1986   2.296   5.613   7.894  0.1329  0.2619  0.5592
   16DOPE   H8R 1987   2.395   5.591   7.940  0.4625 -1.8292 -0.9835
   16DOPE   H8S 1988   2.304   5.678   7.804 -2.3321 -0.2698 -0.1255
   16DOPE   C29 1989   2.237   5.480   7.854  0.3275  0.3556 -0.7442
   16DOPE   H9R 1990   2.232   5.407   7.936 -0.9618  1.3437  0.0904
   16DOPE  C210 1991   2.221   5.432   7.730 -0.1746  0.4568  0.0615
   16DOPE  H10R 1992   2.179   5.330   7.720 -0.4710  0.5910 -0.0931
   16DOPE  C211 1993   2.239   5.495   7.593 -0.6724  0.3337  0.3108
   16DOPE  H11R 1994   2.328   5.451   7.543 -1.3167  1.2954 -1.8029
   16DOPE  H11S 1995   2.257   5.604   7.602  2.2234 -0.0458  0.0115
   16DOPE  C212 1996   2.114   5.480   7.510 -0.3531  0.5022  0.1885
   16DOPE  H12R 1997   2.021   5.516   7.558  0.1103  2.1498 -0.0760
   16DOPE  H12S 1998   2.104   5.373   7.483  1.2743  0.0255  1.3307
   16DOPE  C213 1999   2.130   5.548   7.373 -0.6436 -0.3552  0.1831
   16DOPE  H13R 2000   2.229   5.540   7.323 -1.0233  1.9111 -1.0713
   16DOPE  H13S 2001   2.132   5.656   7.399  2.4711 -0.1448 -0.5223
   16DOPE  C214 2002   2.001   5.520   7.280  0.6709  0.0071  1.4062
   16DOPE  H14R 2003   1.904   5.557   7.319  0.6195  1.3353  0.1340
   16DOPE  H14S 2004   1.978   5.412   7.265 -2.1469  0.5639  1.2059
   16DOPE  C215 2005   2.003   5.591   7.135 -1.1319 -0.1978 -0.6089
   16DOPE  H15R 2006   2.038   5.694   7.152 -0.0883 -0.7531  0.7458
   16DOPE  H15S 2007   1.902   5.603   7.090 -0.1485  0.1248 -2.8550
   16DOPE  C216 2008   2.104   5.541   7.033 -0.2937  0.2864  0.9261
   16DOPE  H16R 2009   2.078   5.433   7.025 -0.0969  0.3535 -1.3055
   16DOPE  H16S 2010   2.199   5.548   7.090  0.3224 -0.3858  0.0055
   16DOPE  C217 2011   2.091   5.620   6.897 -0.2533  0.2663  0.4266
   16DOPE  H17R 2012   2.106   5.729   6.912  0.7740 -0.0701  2.1395
   16DOPE  H17S 2013   1.988   5.601   6.860 -0.9967 -1.1736  3.0106
   16DOPE  C218 2014   2.193   5.580   6.787  0.1092  0.0011 -0.6621
   16DOPE  H18R 2015   2.292   5.622   6.816  1.4723 -1.4967 -2.9131
   16DOPE  H18S 2016   2.165   5.629   6.691  1.2142  0.5453 -0.7192
   16DOPE  H18T 2017   2.186   5.472   6.764 -0.1292  0.4316 -2.7721
   16DOPE   C33 2018   2.613   5.949   8.486  0.2657  0.3818  1.2496
   16DOPE   H3X 2019   2.652   6.048   8.454  0.1554  0.6096  1.8177
   16DOPE   H3Y 2020   2.509   5.956   8.523 -0.3727 -1.4711 -0.0486
   16DOPE   C34 2021   2.595   5.860   8.361 -0.0398 -0.9633 -0.8040
   16DOPE   H4X 2022   2.696   5.826   8.329  2.0032  3.1453  0.6773
   16DOPE   H4Y 2023   2.534   5.769   8.381  0.5260 -1.2726 -0.4653
   16DOPE   C35 2024   2.543   5.940   8.244 -0.0138 -0.2786  0.1679
   16DOPE   H5X 2025   2.580   6.045   8.239 -2.0804  0.5589  1.1888
   16DOPE   H5Y 2026   2.433   5.939   8.261 -0.0164 -0.6505  0.1327
   16DOPE   C36 2027   2.584   5.884   8.104 -0.3041 -0.3598  0.0622
   16DOPE   H6X 2028   2.521   5.796   8.082 -0.2756 -0.4959  0.5184
   16DOPE   H6Y 2029   2.687   5.843   8.111 -0.5299 -1.1763 -1.2044
   16DOPE   C37 2030   2.567   5.988   7.991  0.6494 -0.2777 -0.0552
   16DOPE   H7X 2031   2.460   6.011   7.972  1.2064  1.4524 -1.3555
   16DOPE   H7Y 2032   2.612   6.084   8.024 -2.5121  1.4418 -0.3669
   16DOPE   C38 2033   2.626   5.953   7.856 -0.2517  0.5223 -0.1619
   16DOPE   H8X 2034   2.737   5.955   7.860 -0.2623  0.6562  0.1267
   16DOPE   H8Y 2035   2.596   6.040   7.794 -0.4712  0.0850 -0.6757
   16DOPE   C39 2036   2.575   5.821   7.796 -0.1012 -0.3374 -0.3262
   16DOPE   H9X 2037   2.565   5.745   7.875 -3.2333  1.8496  1.5906
   16DOPE  C310 2038   2.524   5.792   7.676  0.2127 -0.1147 -0.0527
   16DOPE  H10X 2039   2.490   5.689   7.656  2.2208 -1.0378  0.9561
   16DOPE  C311 2040   2.486   5.886   7.566  0.9795  0.3048  0.7833
   16DOPE  H11X 2041   2.380   5.919   7.565  0.8324 -0.1256 -0.7996
   16DOPE  H11Y 2042   2.533   5.985   7.585 -1.1096  0.9770  2.9499
   16DOPE  C312 2043   2.531   5.830   7.423 -0.1170 -0.6577 -0.5302
   16DOPE  H12X 2044   2.491   5.727   7.414 -0.1648 -0.8179  1.1536
   16DOPE  H12Y 2045   2.642   5.834   7.427 -0.1054 -1.4858  0.6149
   16DOPE  C313 2046   2.480   5.917   7.307  0.5500  0.2277  0.3093
   16DOPE  H13X 2047   2.369   5.923   7.316  0.6864  0.3703  2.8708
   16DOPE  H13Y 2048   2.513   6.023   7.315  0.7227  0.0798  2.1778
   16DOPE  C314 2049   2.510   5.868   7.163  0.3001  0.4893 -0.2236
   16DOPE  H14X 2050   2.508   5.758   7.147  1.1685  0.4740 -0.2760
   16DOPE  H14Y 2051   2.612   5.900   7.131  1.2222 -2.2956 -0.3623
   16DOPE  C315 2052   2.413   5.926   7.052  0.8917  0.3353 -0.2770
   16DOPE  H15X 2053   2.436   6.035   7.051 -0.2574  0.5909 -0.5113
   16DOPE  H15Y 2054   2.308   5.912   7.086  0.4394 -0.6665 -1.9641
   16DOPE  C316 2055   2.441   5.869   6.919 -0.1881 -0.5640 -0.6562
   16DOPE  H16X 2056   2.428   5.759   6.924 -0.4517 -0.4782  1.4728
   16DOPE  H16Y 2057   2.546   5.889   6.889  0.2092  2.1708  2.0417
   16DOPE  C317 2058   2.348   5.932   6.811 -0.0282  0.6852  0.3944
   16DOPE  H17X 2059   2.249   5.884   6.825  0.6864 -1.8715 -2.3242
   16DOPE  H17Y 2060   2.339   6.043   6.820  1.5875  0.8839 -0.0667
   16DOPE  C318 2061   2.389   5.904   6.667 -0.3138  0.2536 -0.4740
   16DOPE  H18X 2062   2.490   5.943   6.640  0.9273 -1.1785  1.7495
   16DOPE  H18Y 2063   2.383   5.797   6.637 -3.2572  0.6695 -1.7446
   16DOPE  H18Z 2064   2.316   5.943   6.592 -0.6607 -0.1323 -0.3401
   17DOPE     N 2065   3.023   1.145   8.524 -0.2669 -0.0815  0.1590
   17DOPE   HN1 2066   2.922   1.165   8.536 -0.0326 -0.4605  3.6866
   17DOPE   HN2 2067   3.061   1.225   8.470 -2.1148 -0.8290 -2.4882
   17DOPE   HN3 2068   3.024   1.052   8.477  0.8420 -0.0593  0.1232
   17DOPE   C12 2069   3.091   1.139   8.657  0.1181 -0.6032 -0.1706
   17DOPE  H12A 2070   3.064   1.034   8.685 -0.0403 -0.6874 -0.6280
   17DOPE  H12B 2071   3.038   1.193   8.738 -1.9295  1.3439 -2.6703
   17DOPE   C11 2072   3.240   1.161   8.651  0.5964  0.3399 -0.0501
   17DOPE  H11A 2073   3.293   1.077   8.601  1.8221  0.3814  1.1294
   17DOPE  H11B 2074   3.289   1.166   8.751  1.7891  2.9769 -0.6713
   17DOPE     P 2075   3.343   1.409   8.648  0.0070  0.5146 -0.1576
   17DOPE   O13 2076   3.486   1.400   8.638 -0.4063 -0.0923  0.1469
   17DOPE   O14 2077   3.276   1.444   8.778 -0.3540  0.0765  0.4621
   17DOPE   O11 2078   3.304   1.516   8.539  0.4799 -0.1239 -0.0652
   17DOPE   O12 2079   3.269   1.280   8.579 -0.2429 -0.2945 -0.4115
   17DOPE    C1 2080   3.168   1.541   8.496 -0.2647 -0.1359  0.3718
   17DOPE    HA 2081   3.132   1.637   8.539  4.1376  0.7657  2.6856
   17DOPE    HB 2082   3.107   1.452   8.523  3.9389 -2.9537  1.5675
   17DOPE    C2 2083   3.161   1.571   8.343 -0.0905  0.0228 -0.3857
   17DOPE    HS 2084   3.054   1.569   8.315 -0.2549  0.0103  0.2277
   17DOPE   O21 2085   3.245   1.476   8.273 -0.1020  0.0062  0.0111
   17DOPE   C21 2086   3.213   1.348   8.275 -0.5048 -0.1736 -0.5646
   17DOPE   O22 2087   3.104   1.302   8.307  0.1028  0.4306  0.1320
   17DOPE   C22 2088   3.322   1.258   8.238 -0.0953  0.3369  0.0387
   17DOPE   H2R 2089   3.363   1.217   8.333  0.1624  0.6890  0.0815
   17DOPE   H2S 2090   3.405   1.301   8.178  0.2227 -0.8934 -0.4405
   17DOPE    C3 2091   3.223   1.707   8.311 -0.0618  0.3188 -0.2873
   17DOPE    HX 2092   3.334   1.706   8.313 -0.0750  0.2716  0.7201
   17DOPE    HY 2093   3.175   1.776   8.384  1.3456  0.0180  0.9812
   17DOPE   O31 2094   3.181   1.737   8.176  0.5037  0.0007  0.0659
   17DOPE   C31 2095   3.247   1.838   8.109  0.3409  0.0542 -0.5508
   17DOPE   O32 2096   3.326   1.911   8.153 -0.0854  0.0484 -0.1409
   17DOPE   C32 2097   3.190   1.847   7.974  0.4266 -0.0659  0.4257
   17DOPE   H2X 2098   3.187   1.743   7.935  0.2978  0.1317 -0.0973
   17DOPE   H2Y 2099   3.093   1.901   7.980  0.5601  0.1749  0.4009
   17DOPE   C23 2100   3.278   1.140   8.147 -0.3035  0.5395  0.4506
   17DOPE   H3R 2101   3.181   1.100   8.183  0.3948  0.5581  2.5142
   17DOPE   H3S 2102   3.337   1.046   8.145 -2.9949 -1.2530 -0.0472
   17DOPE   C24 2103   3.251   1.182   8.001 -0.4981  0.1481  0.2135
   17DOPE   H4R 2104   3.345   1.230   7.967 -1.1295 -0.9257 -3.5908
   17DOPE   H4S 2105   3.178   1.266   8.007  0.7486  1.1650  1.8707
   17DOPE   C25 2106   3.217   1.066   7.906 -0.3115 -0.0378  0.2470
   17DOPE   H5R 2107   3.125   1.018   7.947  1.0933 -2.7783  0.4153
   17DOPE   H5S 2108   3.295   0.989   7.923 -0.5270 -0.1454  0.7444
   17DOPE   C26 2109   3.194   1.117   7.760  0.0500  0.5455 -0.3040
   17DOPE   H6R 2110   3.281   1.178   7.729  2.6419 -2.3572  0.7190
   17DOPE   H6S 2111   3.108   1.187   7.753  0.3951  1.1656  1.2261
   17DOPE   C27 2112   3.158   1.009   7.654  0.0154  0.2812 -0.2515
   17DOPE   H7R 2113   3.065   0.954   7.680 -0.2166 -0.0027 -1.6127
   17DOPE   H7S 2114   3.247   0.943   7.665 -1.5972 -1.7606  1.2666
   17DOPE   C28 2115   3.131   1.065   7.513 -0.1010  0.3671 -0.2909
   17DOPE   H8R 2116   3.222   1.121   7.484  2.3936 -3.0396  0.2498
   17DOPE   H8S 2117   3.047   1.137   7.518 -1.9959 -1.7243 -0.6916
   17DOPE   C29 2118   3.101   0.958   7.417 -0.0189  0.3808 -0.9118
   17DOPE   H9R 2119   3.042   0.881   7.469 -1.8292  2.8103  0.8611
   17DOPE  C210 2120   3.117   0.958   7.288 -0.1610 -0.5375  0.5718
   17DOPE  H10R 2121   3.100   0.870   7.225 -1.0002  0.5246 -0.7562
   17DOPE  C211 2122   3.157   1.085   7.208 -0.1801 -0.2447 -0.2857
   17DOPE  H11R 2123   3.254   1.124   7.245 -1.2328  0.2914  2.1031
   17DOPE  H11S 2124   3.089   1.168   7.239  0.9178  0.6984 -0.3737
   17DOPE  C212 2125   3.149   1.065   7.059 -0.3344 -0.8109  0.0216
   17DOPE  H12R 2126   3.049   1.033   7.024  0.4286 -1.0630 -2.0524
   17DOPE  H12S 2127   3.214   0.980   7.030 -0.2737  0.4608 -4.1642
   17DOPE  C213 2128   3.191   1.181   6.970 -0.3920 -0.0216 -0.8323
   17DOPE  H13R 2129   3.284   1.219   7.018 -0.9177 -0.6308  0.7126
   17DOPE  H13S 2130   3.116   1.261   6.987 -1.6543 -1.5438  1.1332
   17DOPE  C214 2131   3.202   1.157   6.826 -0.3847  0.2563  0.8152
   17DOPE  H14R 2132   3.107   1.108   6.794 -0.6462  0.0700  1.8433
   17DOPE  H14S 2133   3.279   1.079   6.812 -2.2965 -1.6588  0.4416
   17DOPE  C215 2134   3.249   1.282   6.741  0.3416  0.2475 -0.0645
   17DOPE  H15R 2135   3.215   1.378   6.787 -1.7230  0.0183 -1.0433
   17DOPE  H15S 2136   3.189   1.279   6.648 -0.0660  0.7236  0.1796
   17DOPE  C216 2137   3.392   1.296   6.695  0.7556  0.2815 -0.5081
   17DOPE  H16R 2138   3.429   1.209   6.637 -0.9243  0.7842 -2.4201
   17DOPE  H16S 2139   3.455   1.299   6.787  4.1209  0.9425 -2.6465
   17DOPE  C217 2140   3.410   1.432   6.627 -0.1154  0.2363  0.7291
   17DOPE  H17R 2141   3.519   1.444   6.606 -0.2341 -1.5721 -1.2134
   17DOPE  H17S 2142   3.371   1.521   6.681 -1.1111  1.8856 -2.4413
   17DOPE  C218 2143   3.342   1.450   6.488  0.0685  0.4832  0.8622
   17DOPE  H18R 2144   3.368   1.544   6.436  0.7188 -1.3393 -2.4073
   17DOPE  H18S 2145   3.232   1.439   6.499  0.0957 -1.1853 -0.1664
   17DOPE  H18T 2146   3.379   1.373   6.417  0.7835  2.6665 -1.2662
   17DOPE   C33 2147   3.281   1.925   7.874 -0.2509  0.3168 -0.2233
   17DOPE   H3X 2148   3.374   1.864   7.877  0.3810  1.2612 -0.0803
   17DOPE   H3Y 2149   3.293   2.034   7.894  0.3211  0.5767 -1.8181
   17DOPE   C34 2150   3.223   1.919   7.734 -0.2643  0.3326  0.3124
   17DOPE   H4X 2151   3.188   1.820   7.698  0.5765  0.1321  0.0051
   17DOPE   H4Y 2152   3.128   1.975   7.728 -1.7657 -2.0849  0.4056
   17DOPE   C35 2153   3.308   1.985   7.618  0.0758  0.4782  0.4791
   17DOPE   H5X 2154   3.409   1.937   7.617 -0.0359  0.2408  0.5546
   17DOPE   H5Y 2155   3.321   2.090   7.652  0.5986  0.4766  0.3026
   17DOPE   C36 2156   3.247   1.985   7.478 -0.0712 -0.1867  0.7125
   17DOPE   H6X 2157   3.140   2.012   7.491  0.3389  1.1803  1.5635
   17DOPE   H6Y 2158   3.265   1.883   7.437 -0.5256 -0.1692  0.4681
   17DOPE   C37 2159   3.314   2.092   7.386 -0.3292 -0.8897 -0.4531
   17DOPE   H7X 2160   3.314   2.196   7.426  1.1916 -0.7045 -0.8915
   17DOPE   H7Y 2161   3.423   2.073   7.391  0.3280  2.1961 -0.6371
   17DOPE   C38 2162   3.247   2.090   7.245 -0.2333  0.2717  0.3446
   17DOPE   H8X 2163   3.152   2.146   7.255  1.0878  2.4185  1.8551
   17DOPE   H8Y 2164   3.243   1.984   7.211  2.4581 -0.1456  1.1116
   17DOPE   C39 2165   3.327   2.172   7.143 -0.7220  0.4995 -0.1451
   17DOPE   H9X 2166   3.339   2.276   7.175  1.2444  0.1350  0.3994
   17DOPE  C310 2167   3.379   2.127   7.028 -0.1898  0.0478 -0.3331
   17DOPE  H10X 2168   3.455   2.190   6.979 -0.0096  0.3539  0.3243
   17DOPE  C311 2169   3.375   1.981   6.971 -0.6114 -0.9273  0.3817
   17DOPE  H11X 2170   3.477   1.941   6.990 -0.0857  0.2850  0.2636
   17DOPE  H11Y 2171   3.302   1.913   7.019 -1.7833 -2.0185 -2.6765
   17DOPE  C312 2172   3.344   1.989   6.828  0.3123 -0.1696  0.2194
   17DOPE  H12X 2173   3.420   2.048   6.773 -0.2240  1.4863  1.2053
   17DOPE  H12Y 2174   3.250   2.049   6.828 -0.5594 -1.4363  1.9142
   17DOPE  C313 2175   3.327   1.847   6.759 -0.2662 -0.1136 -0.6820
   17DOPE  H13X 2176   3.424   1.793   6.758  0.1094  0.4834  0.7445
   17DOPE  H13Y 2177   3.255   1.789   6.820  0.1007 -1.7209 -1.7116
   17DOPE  C314 2178   3.274   1.846   6.619  0.0851 -0.3148  0.7578
   17DOPE  H14X 2179   3.168   1.875   6.604  0.2201 -0.3380 -0.3248
   17DOPE  H14Y 2180   3.269   1.741   6.583 -1.6632  0.3715 -1.1933
   17DOPE  C315 2181   3.353   1.918   6.511  0.6555 -0.4838 -0.2431
   17DOPE  H15X 2182   3.462   1.909   6.528  0.3601 -0.5721  1.8486
   17DOPE  H15Y 2183   3.340   2.027   6.523  1.7258 -0.3529 -0.2327
   17DOPE  C316 2184   3.304   1.888   6.363  0.0799 -0.3293 -0.3248
   17DOPE  H16X 2185   3.299   1.779   6.341 -2.5137 -0.5538  0.9056
   17DOPE  H16Y 2186   3.389   1.924   6.301 -0.8637  0.9968 -0.8868
   17DOPE  C317 2187   3.161   1.950   6.335  0.1747  0.8518 -0.0013
   17DOPE  H17X 2188   3.086   1.911   6.407 -1.2196  2.2822 -0.6268
   17DOPE  H17Y 2189   3.166   2.060   6.351  0.0694  0.8972 -0.2800
   17DOPE  C318 2190   3.111   1.923   6.195 -0.4618 -0.3986 -0.0770
   17DOPE  H18X 2191   3.189   1.949   6.120 -1.6846  0.3046 -1.1525
   17DOPE  H18Y 2192   3.090   1.819   6.163 -0.7847  0.3243 -2.4882
   17DOPE  H18Z 2193   3.015   1.979   6.184 -0.4604 -0.4412 -0.3305
   18DOPE     N 2194   0.138   4.409   9.595  0.2876 -0.1848  0.0987
   18DOPE   HN1 2195   0.039   4.397   9.625 -0.0747  0.0835 -0.9645
   18DOPE   HN2 2196   0.172   4.319   9.557  0.3452  0.7477 -2.2321
   18DOPE   HN3 2197   0.193   4.441   9.678 -1.1400 -0.9552  1.3851
   18DOPE   C12 2198   0.127   4.513   9.491 -0.2039  0.1633 -0.1789
   18DOPE  H12A 2199   0.093   4.608   9.538  3.6676  1.1724  0.9509
   18DOPE  H12B 2200   0.066   4.463   9.413 -1.6075 -0.3176  1.1895
   18DOPE   C11 2201   0.267   4.555   9.444  0.3204  0.2105  1.0263
   18DOPE  H11A 2202   0.255   4.632   9.364 -0.3971 -0.0753  0.8482
   18DOPE  H11B 2203   0.335   4.479   9.401  1.4930  2.0554 -0.5829
   18DOPE     P 2204   0.427   4.725   9.566 -0.0611 -0.2002 -0.3432
   18DOPE   O13 2205   0.473   4.753   9.707  0.3185  0.1264 -0.9495
   18DOPE   O14 2206   0.354   4.834   9.500 -0.2624  0.0250  0.0910
   18DOPE   O11 2207   0.541   4.692   9.472  0.5593 -0.4611 -0.0737
   18DOPE   O12 2208   0.334   4.596   9.557 -0.4653  0.4266  0.3775
   18DOPE    C1 2209   0.646   4.600   9.507 -0.2621 -0.4154 -0.9960
   18DOPE    HA 2210   0.608   4.496   9.495  0.0963 -1.0472  2.3405
   18DOPE    HB 2211   0.674   4.616   9.613 -2.8284 -1.2236 -0.1216
   18DOPE    C2 2212   0.775   4.636   9.425 -0.1402  0.3752  0.7284
   18DOPE    HS 2213   0.756   4.742   9.397  0.8758  0.5383  0.5924
   18DOPE   O21 2214   0.793   4.551   9.311  1.3826 -0.3262  0.4995
   18DOPE   C21 2215   0.814   4.612   9.196 -0.0129 -0.2048  0.5170
   18DOPE   O22 2216   0.817   4.731   9.178 -0.0242 -0.8079  0.2653
   18DOPE   C22 2217   0.834   4.510   9.089 -0.2531 -0.4826  0.2286
   18DOPE   H2R 2218   0.741   4.494   9.031  2.3498 -0.2992 -4.4882
   18DOPE   H2S 2219   0.860   4.410   9.130  2.1278 -0.6040 -1.3340
   18DOPE    C3 2220   0.905   4.624   9.509 -0.1452  0.4043 -0.3996
   18DOPE    HX 2221   0.904   4.520   9.547  2.1946  0.6740  0.5182
   18DOPE    HY 2222   0.906   4.687   9.600  2.3034  1.9587 -1.4138
   18DOPE   O31 2223   1.025   4.628   9.430  0.1200 -0.0257 -0.0515
   18DOPE   C31 2224   1.075   4.747   9.429  0.5848 -0.8621  0.3108
   18DOPE   O32 2225   1.031   4.850   9.486  0.0399  0.1404 -0.3749
   18DOPE   C32 2226   1.206   4.745   9.343  0.3055  0.6376 -0.2079
   18DOPE   H2X 2227   1.236   4.852   9.342 -1.1194  1.0946  1.3883
   18DOPE   H2Y 2228   1.283   4.682   9.394  1.6327  0.6236 -2.0906
   18DOPE   C23 2229   0.947   4.551   8.992  0.2212 -0.0470 -0.1823
   18DOPE   H3R 2230   1.047   4.540   9.040 -0.1258 -0.5681  0.4357
   18DOPE   H3S 2231   0.941   4.658   8.964  2.9512  0.5515  1.2263
   18DOPE   C24 2232   0.962   4.452   8.870 -0.2698 -0.9986 -0.4653
   18DOPE   H4R 2233   1.011   4.362   8.913 -0.9905 -0.4477  1.6395
   18DOPE   H4S 2234   1.035   4.498   8.800 -0.0796  0.0520  0.3943
   18DOPE   C25 2235   0.824   4.430   8.799  0.5891  0.0451 -0.6439
   18DOPE   H5R 2236   0.757   4.519   8.793 -1.0455 -1.1337 -0.4272
   18DOPE   H5S 2237   0.755   4.371   8.862  0.2429  1.9210  0.8379
   18DOPE   C26 2238   0.837   4.365   8.657 -0.0162 -0.0732  0.5862
   18DOPE   H6R 2239   0.741   4.356   8.602 -0.0148 -3.5211  0.9729
   18DOPE   H6S 2240   0.877   4.262   8.666  0.0130  0.0286  1.7216
   18DOPE   C27 2241   0.922   4.450   8.558  0.2703 -0.0101  0.0268
   18DOPE   H7R 2242   1.028   4.467   8.586  0.8827  0.6089 -2.3912
   18DOPE   H7S 2243   0.880   4.552   8.558  0.5826  0.1203  0.5532
   18DOPE   C28 2244   0.893   4.412   8.408  0.0466 -0.2867 -0.9329
   18DOPE   H8R 2245   0.951   4.486   8.348 -0.5656  1.2572  0.3120
   18DOPE   H8S 2246   0.787   4.434   8.383 -0.1216  1.7590  1.2043
   18DOPE   C29 2247   0.915   4.268   8.377 -0.1404  0.8023  0.1794
   18DOPE   H9R 2248   0.914   4.204   8.467 -0.0929  0.3729 -0.1181
   18DOPE  C210 2249   0.973   4.218   8.268 -0.1639 -0.3682 -0.4986
   18DOPE  H10R 2250   0.968   4.109   8.259 -1.3310 -0.3017 -0.8210
   18DOPE  C211 2251   1.007   4.295   8.146  0.9461  0.1780  0.2226
   18DOPE  H11R 2252   1.086   4.227   8.109  1.5022  1.2188 -0.5463
   18DOPE  H11S 2253   1.055   4.393   8.163  3.2841 -0.7843 -0.4695
   18DOPE  C212 2254   0.895   4.303   8.030 -0.2552 -1.1125 -0.1136
   18DOPE  H12R 2255   0.830   4.388   8.059 -2.2254 -2.7581  0.4857
   18DOPE  H12S 2256   0.842   4.206   8.027 -2.1210 -0.1192 -0.4630
   18DOPE  C213 2257   0.963   4.344   7.901  0.3528 -0.0440  1.0730
   18DOPE  H13R 2258   1.023   4.261   7.857  1.8089  1.1832  0.6769
   18DOPE  H13S 2259   1.034   4.429   7.911 -0.3200  0.8245 -0.9833
   18DOPE  C214 2260   0.853   4.380   7.799  0.9245 -0.6847  0.2459
   18DOPE  H14R 2261   0.792   4.459   7.846 -1.6565 -1.9405 -0.8182
   18DOPE  H14S 2262   0.787   4.291   7.799 -2.1376  1.4426  0.5039
   18DOPE  C215 2263   0.906   4.412   7.655 -0.6845  0.1580  0.4298
   18DOPE  H15R 2264   0.978   4.497   7.657  0.4285 -0.7444 -0.3208
   18DOPE  H15S 2265   0.817   4.430   7.591 -1.9834  0.8836  2.3344
   18DOPE  C216 2266   0.985   4.300   7.596 -0.6659  0.2807 -0.4160
   18DOPE  H16R 2267   0.952   4.194   7.602 -0.4014  0.1459 -1.2337
   18DOPE  H16S 2268   1.083   4.310   7.649 -1.0092 -0.2398  0.3334
   18DOPE  C217 2269   1.018   4.308   7.443 -0.4036 -0.4395 -0.3700
   18DOPE  H17R 2270   1.095   4.231   7.422 -0.2341 -0.4791  0.3519
   18DOPE  H17S 2271   1.058   4.409   7.420  0.5435 -0.9459 -1.0068
   18DOPE  C218 2272   0.902   4.271   7.346  0.0794 -0.8857  0.1811
   18DOPE  H18R 2273   0.939   4.283   7.242 -0.5493 -2.3882 -0.2439
   18DOPE  H18S 2274   0.823   4.348   7.362  0.7237 -0.0109 -0.7348
   18DOPE  H18T 2275   0.860   4.168   7.352 -0.7510 -0.5030  1.3652
   18DOPE   C33 2276   1.180   4.687   9.197  0.0782 -0.1866  0.0628
   18DOPE   H3X 2277   1.105   4.752   9.147  1.1457  0.1695 -1.1192
   18DOPE   H3Y 2278   1.136   4.587   9.215 -1.0997  0.3143  0.1039
   18DOPE   C34 2279   1.308   4.672   9.114 -0.0036  0.4056 -0.2477
   18DOPE   H4X 2280   1.380   4.615   9.177  1.7531  0.0839 -2.4212
   18DOPE   H4Y 2281   1.288   4.607   9.027 -1.6257  0.2112  0.2407
   18DOPE   C35 2282   1.371   4.806   9.073 -1.1182 -0.7922  0.0035
   18DOPE   H5X 2283   1.474   4.801   9.032 -1.0589 -1.8478  0.2466
   18DOPE   H5Y 2284   1.364   4.884   9.151 -0.8413 -2.1486  1.4235
   18DOPE   C36 2285   1.302   4.869   8.947 -0.5289  0.4731 -0.2295
   18DOPE   H6X 2286   1.197   4.898   8.970 -1.4093 -0.6444 -2.5337
   18DOPE   H6Y 2287   1.294   4.802   8.860 -2.0765  1.3437 -0.8083
   18DOPE   C37 2288   1.393   4.986   8.898  0.2404 -0.3829  0.6550
   18DOPE   H7X 2289   1.440   5.039   8.983  0.6942  2.4240 -1.2207
   18DOPE   H7Y 2290   1.479   4.938   8.845 -1.4843 -1.2938 -1.4881
   18DOPE   C38 2291   1.321   5.093   8.814 -0.1770  0.5813 -0.1527
   18DOPE   H8X 2292   1.260   5.155   8.883 -0.8002  1.0973 -1.1506
   18DOPE   H8Y 2293   1.264   5.045   8.732  1.0221  2.5517 -2.2257
   18DOPE   C39 2294   1.427   5.179   8.758 -0.3176 -0.5042  0.2412
   18DOPE   H9X 2295   1.462   5.252   8.833 -3.5543 -0.1223  1.5184
   18DOPE  C310 2296   1.448   5.202   8.626 -0.3653 -0.3098 -0.1135
   18DOPE  H10X 2297   1.536   5.262   8.597 -0.8108 -0.0186 -0.8870
   18DOPE  C311 2298   1.384   5.129   8.509  0.3358  0.6335  0.2824
   18DOPE  H11X 2299   1.304   5.061   8.546  2.5578 -0.9779  2.5037
   18DOPE  H11Y 2300   1.326   5.203   8.451  0.7059  0.6386 -0.0849
   18DOPE  C312 2301   1.477   5.044   8.418  0.2143 -0.3795  0.2249
   18DOPE  H12X 2302   1.502   4.956   8.480 -2.6919 -0.5730  1.2469
   18DOPE  H12Y 2303   1.576   5.090   8.394 -0.9372  3.2407  1.6328
   18DOPE  C313 2304   1.412   4.995   8.290 -0.0872  1.1116  0.1372
   18DOPE  H13X 2305   1.472   4.906   8.261 -0.6885  0.4968  0.7388
   18DOPE  H13Y 2306   1.309   4.957   8.310 -0.5678  2.1101 -0.3302
   18DOPE  C314 2307   1.405   5.107   8.182  0.1689  0.7769 -0.0709
   18DOPE  H14X 2308   1.490   5.175   8.203 -0.5276  1.4933  0.4464
   18DOPE  H14Y 2309   1.318   5.172   8.204 -0.9831 -0.4625 -0.8243
   18DOPE  C315 2310   1.392   5.059   8.033  0.1123  0.5941 -0.2794
   18DOPE  H15X 2311   1.325   4.971   8.036 -1.3715  1.6986  0.3292
   18DOPE  H15Y 2312   1.491   5.021   8.002  1.9740  3.6318  1.4277
   18DOPE  C316 2313   1.335   5.164   7.936  0.1420 -0.4523 -0.1607
   18DOPE  H16X 2314   1.389   5.257   7.964 -0.2406 -0.8620  2.1745
   18DOPE  H16Y 2315   1.228   5.191   7.951 -0.0071 -0.8295 -0.5176
   18DOPE  C317 2316   1.352   5.118   7.792  0.4604  0.0332  0.3248
   18DOPE  H17X 2317   1.351   5.215   7.737  2.0550  0.1775  0.4881
   18DOPE  H17Y 2318   1.449   5.067   7.774  0.0275 -0.5963 -0.2598
   18DOPE  C318 2319   1.236   5.041   7.737  0.0799  0.4109 -0.2046
   18DOPE  H18X 2320   1.135   5.079   7.762  0.2973 -0.3987  2.1337
   18DOPE  H18Y 2321   1.249   5.040   7.627  2.2800  0.4076 -0.0026
   18DOPE  H18Z 2322   1.242   4.933   7.762 -0.1916  0.3400 -0.4414
   19DOPE     N 2323   1.294   6.333   8.838 -0.2734  0.3140  0.4454
   19DOPE   HN1 2324   1.323   6.343   8.938 -2.2402  2.2341  0.9160
   19DOPE   HN2 2325   1.376   6.308   8.780 -0.1502  0.1600  0.6848
   19DOPE   HN3 2326   1.267   6.431   8.816 -0.0050 -0.1092 -1.9727
   19DOPE   C12 2327   1.175   6.245   8.851 -0.1364  0.0039  0.2707
   19DOPE  H12A 2328   1.118   6.229   8.757 -0.8598 -0.5995  0.7947
   19DOPE  H12B 2329   1.096   6.291   8.914 -0.8083  1.3312 -1.4967
   19DOPE   C11 2330   1.212   6.105   8.900  0.2779 -0.1177  0.3692
   19DOPE  H11A 2331   1.287   6.066   8.828 -0.5073  0.4685 -0.7993
   19DOPE  H11B 2332   1.111   6.059   8.901 -0.5111  1.5305  0.7069
   19DOPE     P 2333   1.250   6.016   9.142  0.3964  0.2358  0.0498
   19DOPE   O13 2334   1.138   6.049   9.232  0.2429  0.3931 -1.2352
   19DOPE   O14 2335   1.380   5.981   9.198 -0.0225 -0.4180 -0.1414
   19DOPE   O11 2336   1.198   5.889   9.056 -0.5035 -0.0698 -0.2489
   19DOPE   O12 2337   1.266   6.127   9.030 -0.8404 -0.1568  0.5532
   19DOPE    C1 2338   1.306   5.803   9.017  0.5849  0.0018 -0.0887
   19DOPE    HA 2339   1.373   5.783   9.104 -0.1841  3.3360  1.3936
   19DOPE    HB 2340   1.354   5.860   8.935  1.2967  0.3859  0.5874
   19DOPE    C2 2341   1.263   5.664   8.963 -0.4191  0.3125  0.5608
   19DOPE    HS 2342   1.341   5.614   8.903  0.1559  1.2313  0.5316
   19DOPE   O21 2343   1.147   5.688   8.881 -0.3070  0.0138  0.3659
   19DOPE   C21 2344   1.174   5.767   8.771 -0.5602  0.0664 -0.2061
   19DOPE   O22 2345   1.286   5.794   8.729 -0.0430  0.9769 -0.8381
   19DOPE   C22 2346   1.039   5.819   8.717 -0.0134  0.4812  0.4848
   19DOPE   H2R 2347   0.983   5.866   8.801 -0.4742  1.7377 -0.4854
   19DOPE   H2S 2348   0.976   5.732   8.689 -0.0788  1.1265 -1.5236
   19DOPE    C3 2349   1.212   5.575   9.079 -0.5011  0.7543  0.4204
   19DOPE    HX 2350   1.146   5.637   9.143 -0.5326 -0.4495  1.5725
   19DOPE    HY 2351   1.299   5.561   9.147 -1.1452 -1.8661  0.7761
   19DOPE   O31 2352   1.160   5.445   9.043  0.8298 -0.6618  0.2635
   19DOPE   C31 2353   1.028   5.440   9.039 -0.9465 -0.1272  0.4244
   19DOPE   O32 2354   0.951   5.526   9.086  0.0085 -0.1162  0.2356
   19DOPE   C32 2355   0.977   5.309   8.975  0.0449  0.2001  0.1516
   19DOPE   H2X 2356   1.049   5.226   8.991  1.8395  1.3651 -1.4737
   19DOPE   H2Y 2357   0.894   5.274   9.040 -0.0689 -1.8023 -1.0196
   19DOPE   C23 2358   1.051   5.942   8.612 -0.0679 -0.2914 -0.0659
   19DOPE   H3R 2359   1.139   6.005   8.635  0.7024 -1.1608 -0.5742
   19DOPE   H3S 2360   0.965   6.011   8.629  1.0479  2.2028 -3.5238
   19DOPE   C24 2361   1.052   5.883   8.466  0.3982 -0.1703  0.5709
   19DOPE   H4R 2362   0.968   5.811   8.451  0.6028 -0.4847  0.9372
   19DOPE   H4S 2363   1.158   5.851   8.457  0.4211 -0.1856  0.9082
   19DOPE   C25 2364   1.030   6.002   8.364  0.1957  0.0550 -0.5011
   19DOPE   H5R 2365   1.115   6.073   8.373 -0.4734  0.7024  1.0590
   19DOPE   H5S 2366   0.944   6.064   8.399  0.7542  1.2831 -1.2330
   19DOPE   C26 2367   1.010   5.974   8.219 -0.2538  0.2095 -0.5793
   19DOPE   H6R 2368   0.999   6.076   8.175  4.1961  1.0030 -0.4024
   19DOPE   H6S 2369   0.924   5.907   8.202  0.3714 -0.5862 -0.6775
   19DOPE   C27 2370   1.131   5.900   8.158  0.7133 -0.4089 -0.7695
   19DOPE   H7R 2371   1.123   5.799   8.203  1.1316 -0.3380 -0.5300
   19DOPE   H7S 2372   1.229   5.943   8.185  0.9229 -0.1898 -1.8338
   19DOPE   C28 2373   1.125   5.884   8.006 -0.4167 -0.1029  0.1726
   19DOPE   H8R 2374   1.015   5.883   7.991 -0.2468  2.2073 -1.8409
   19DOPE   H8S 2375   1.177   5.793   7.970 -0.2587  0.3920 -0.8747
   19DOPE   C29 2376   1.174   6.001   7.924  0.1946 -0.7804  0.1324
   19DOPE   H9R 2377   1.250   6.063   7.974 -2.2938  0.0941  3.1088
   19DOPE  C210 2378   1.127   6.041   7.809  0.6387  0.1288  0.2864
   19DOPE  H10R 2379   1.180   6.127   7.765 -2.9858  2.6794  0.4563
   19DOPE  C211 2380   1.024   5.973   7.722  0.1815 -0.0455 -0.2020
   19DOPE  H11R 2381   0.938   6.043   7.708 -0.2434 -0.5490 -0.1449
   19DOPE  H11S 2382   0.978   5.885   7.773  0.7524 -0.3767 -0.2553
   19DOPE  C212 2383   1.079   5.927   7.588  0.7877  0.2860  0.1886
   19DOPE  H12R 2384   1.168   5.863   7.602  0.0990 -0.5430  0.9472
   19DOPE  H12S 2385   1.106   6.021   7.535  1.2516  0.4646  0.7298
   19DOPE  C213 2386   0.970   5.848   7.501  0.3338  0.1212 -0.1322
   19DOPE  H13R 2387   0.889   5.923   7.493 -0.4531 -0.8376 -1.4891
   19DOPE  H13S 2388   0.934   5.759   7.556  2.2195 -0.3412  0.4566
   19DOPE  C214 2389   1.014   5.803   7.363  0.2969  1.0012  0.1403
   19DOPE  H14R 2390   1.085   5.721   7.389 -0.4961  0.5775  1.0451
   19DOPE  H14S 2391   1.065   5.892   7.321  1.9359 -0.0684 -0.2193
   19DOPE  C215 2392   0.898   5.752   7.268  0.2233 -0.1671 -0.1181
   19DOPE  H15R 2393   0.827   5.838   7.263  1.2277  0.8245  1.7271
   19DOPE  H15S 2394   0.838   5.681   7.328  0.2587  1.3683  1.8262
   19DOPE  C216 2395   0.927   5.681   7.137  1.2317 -1.0328 -0.1513
   19DOPE  H16R 2396   0.974   5.752   7.066  1.0604 -1.5225 -0.7618
   19DOPE  H16S 2397   0.827   5.647   7.104  0.7497 -0.5585  0.7733
   19DOPE  C217 2398   1.011   5.552   7.159  1.0383 -0.3412 -0.2676
   19DOPE  H17R 2399   0.963   5.476   7.093  0.5217  0.6403 -1.0565
   19DOPE  H17S 2400   1.009   5.522   7.266  0.8944 -0.3660 -0.2768
   19DOPE  C218 2401   1.158   5.552   7.110 -0.6560  0.1416  0.4573
   19DOPE  H18R 2402   1.198   5.454   7.143  1.2330  0.4366 -0.7685
   19DOPE  H18S 2403   1.222   5.625   7.164  0.9829 -0.3505 -0.7217
   19DOPE  H18T 2404   1.169   5.570   7.000  3.0699  0.5962  0.7920
   19DOPE   C33 2405   0.940   5.330   8.826  0.2859  0.0568 -0.1365
   19DOPE   H3X 2406   0.853   5.398   8.813  0.7787  0.4484 -1.6507
   19DOPE   H3Y 2407   0.892   5.239   8.785 -2.2915  1.4688 -0.4485
   19DOPE   C34 2408   1.050   5.380   8.724 -0.3194 -0.3160 -1.1343
   19DOPE   H4X 2409   1.068   5.489   8.732 -0.8555 -0.3633  2.7411
   19DOPE   H4Y 2410   1.144   5.328   8.750  0.1072  1.9762  2.6053
   19DOPE   C35 2411   1.014   5.345   8.582  0.5951 -0.2355 -0.1812
   19DOPE   H5X 2412   0.907   5.374   8.566  0.5834 -1.7777 -4.0895
   19DOPE   H5Y 2413   1.015   5.234   8.573 -1.4972 -0.1496 -2.8875
   19DOPE   C36 2414   1.095   5.422   8.473 -0.7292 -0.0257  0.9070
   19DOPE   H6X 2415   1.203   5.415   8.499 -0.5945 -0.1886  0.2965
   19DOPE   H6Y 2416   1.070   5.531   8.470  0.3499  0.2158 -0.3902
   19DOPE   C37 2417   1.080   5.368   8.333 -0.9187 -0.1014 -0.5482
   19DOPE   H7X 2418   1.178   5.393   8.288  0.2051  0.6186  2.1114
   19DOPE   H7Y 2419   1.089   5.257   8.343  2.1794  0.0402 -0.8002
   19DOPE   C38 2420   0.957   5.412   8.261 -0.6303 -0.0502 -1.2890
   19DOPE   H8X 2421   0.979   5.520   8.247  1.7723 -0.3018 -0.0195
   19DOPE   H8Y 2422   0.877   5.389   8.336  1.1562 -0.7330  0.4903
   19DOPE   C39 2423   0.932   5.336   8.138 -0.3039 -0.7149 -0.4989
   19DOPE   H9X 2424   0.875   5.243   8.154  0.1562 -1.2107 -1.6024
   19DOPE  C310 2425   0.932   5.384   8.017  0.5617  0.5724  0.4229
   19DOPE  H10X 2426   0.902   5.310   7.942  2.5263 -0.2096  0.3585
   19DOPE  C311 2427   0.977   5.527   7.979  0.3103  0.4589 -0.0278
   19DOPE  H11X 2428   0.925   5.607   8.036  1.5861 -0.2173  2.1962
   19DOPE  H11Y 2429   1.083   5.543   8.007 -0.1067 -1.0316  2.8344
   19DOPE  C312 2430   0.966   5.552   7.831  0.2229 -0.0372 -0.4809
   19DOPE  H12X 2431   1.003   5.653   7.806 -0.1224  0.2722  0.2252
   19DOPE  H12Y 2432   0.868   5.549   7.780  0.3060 -0.6750 -0.6212
   19DOPE  C313 2433   1.061   5.463   7.744  0.2784 -0.4149  0.1084
   19DOPE  H13X 2434   1.158   5.485   7.791 -1.1505  1.0772  2.5758
   19DOPE  H13Y 2435   1.025   5.358   7.739 -0.1358 -0.2948  0.4744
   19DOPE  C314 2436   1.072   5.509   7.602  0.0461 -0.2638 -0.0241
   19DOPE  H14X 2437   1.116   5.610   7.591  0.0703 -0.2434  0.2501
   19DOPE  H14Y 2438   0.973   5.518   7.553 -0.1410  0.5810  0.4950
   19DOPE  C315 2439   1.162   5.414   7.519 -0.1233 -0.1617 -0.0487
   19DOPE  H15X 2440   1.243   5.372   7.583  0.5577  0.0945 -0.7254
   19DOPE  H15Y 2441   1.207   5.477   7.439 -0.7099  0.2110 -0.0856
   19DOPE  C316 2442   1.091   5.281   7.490 -0.3155 -0.7779  0.4255
   19DOPE  H16X 2443   0.987   5.304   7.460 -0.5567 -0.8240  1.1897
   19DOPE  H16Y 2444   1.090   5.229   7.589  0.8198  0.6886  1.2603
   19DOPE  C317 2445   1.151   5.200   7.372  0.1687 -0.2718 -0.1668
   19DOPE  H17X 2446   1.103   5.100   7.367  1.0845 -0.7207 -0.1570
   19DOPE  H17Y 2447   1.129   5.250   7.275 -0.5801 -1.8937 -0.8703
   19DOPE  C318 2448   1.300   5.181   7.371  0.4410  0.1922  0.6820
   19DOPE  H18X 2449   1.323   5.075   7.348 -0.8720 -0.0278  0.3113
   19DOPE  H18Y 2450   1.342   5.232   7.281 -3.4381 -0.6894 -1.8786
   19DOPE  H18Z 2451   1.335   5.194   7.476 -3.8013 -0.3152  2.3418
   20DOPE     N 2452   1.568   2.031   8.585  0.5761 -0.2041  0.5867
   20DOPE   HN1 2453   1.479   2.085   8.580  0.6329 -0.1565  0.0756
   20DOPE   HN2 2454   1.650   2.080   8.545  1.0439 -0.8660  0.7065
   20DOPE   HN3 2455   1.565   1.930   8.558 -0.0712 -0.2961  0.9701
   20DOPE   C12 2456   1.614   2.017   8.729  0.0096 -0.1945  0.7107
   20DOPE  H12A 2457   1.625   2.123   8.761 -1.9916  1.6621 -3.8432
   20DOPE  H12B 2458   1.712   1.969   8.709  0.7486  1.5536 -0.0338
   20DOPE   C11 2459   1.511   1.934   8.812  0.7419  0.1165  0.3684
   20DOPE  H11A 2460   1.553   1.928   8.915  2.0507  2.0441 -0.0057
   20DOPE  H11B 2461   1.517   1.830   8.774  0.7235 -0.5024  1.9710
   20DOPE     P 2462   1.299   2.022   8.938 -0.0217 -0.5802  0.0140
   20DOPE   O13 2463   1.394   2.076   9.034 -0.0359 -0.4378  0.3992
   20DOPE   O14 2464   1.231   1.907   8.990  0.2231  0.3412 -0.1089
   20DOPE   O11 2465   1.194   2.135   8.896 -0.5275 -0.1191 -0.1528
   20DOPE   O12 2466   1.374   1.982   8.806  0.8880 -0.3995 -0.0789
   20DOPE    C1 2467   1.087   2.098   8.811 -0.3930  0.4605  1.2171
   20DOPE    HA 2468   0.996   2.160   8.825 -1.3133 -0.7544  0.8376
   20DOPE    HB 2469   1.062   1.990   8.812  4.3595 -0.9011  0.5040
   20DOPE    C2 2470   1.124   2.115   8.657 -0.9429 -0.0874 -0.6723
   20DOPE    HS 2471   1.216   2.054   8.644  1.1912  3.0885 -1.5531
   20DOPE   O21 2472   1.151   2.250   8.626  0.2003 -0.2436  0.0197
   20DOPE   C21 2473   1.272   2.282   8.598  0.3699 -0.3753 -0.7389
   20DOPE   O22 2474   1.360   2.206   8.562 -0.1878  0.4683  0.2411
   20DOPE   C22 2475   1.284   2.433   8.591  0.5308 -0.1336 -0.5841
   20DOPE   H2R 2476   1.335   2.469   8.683 -2.3859  2.5368  0.1786
   20DOPE   H2S 2477   1.185   2.483   8.602  0.9008  1.2779 -2.9311
   20DOPE    C3 2478   1.008   2.062   8.571  0.4659 -0.3677 -0.5070
   20DOPE    HX 2479   0.910   2.113   8.578  0.8330  0.6137 -1.9801
   20DOPE    HY 2480   0.983   1.962   8.612 -0.7945 -0.3302 -1.1433
   20DOPE   O31 2481   1.042   2.059   8.431  0.0047 -0.4490  0.5867
   20DOPE   C31 2482   1.115   1.961   8.392 -0.7158  0.6974 -0.6251
   20DOPE   O32 2483   1.147   1.863   8.463  0.0482 -0.0476  0.2693
   20DOPE   C32 2484   1.167   1.994   8.248 -0.3955  0.2702  0.0003
   20DOPE   H2X 2485   1.193   2.102   8.246 -2.3508  0.7790 -2.1631
   20DOPE   H2Y 2486   1.259   1.934   8.232 -0.3384  0.3823 -0.0981
   20DOPE   C23 2487   1.339   2.495   8.461  0.0749 -0.7625  0.5582
   20DOPE   H3R 2488   1.443   2.456   8.453 -0.0181 -0.9519  0.2886
   20DOPE   H3S 2489   1.351   2.604   8.482 -3.2526 -0.5212  1.7801
   20DOPE   C24 2490   1.255   2.482   8.332  0.8317  0.5838  0.1170
   20DOPE   H4R 2491   1.151   2.522   8.338  0.6663  0.2784 -0.5740
   20DOPE   H4S 2492   1.243   2.376   8.303 -2.7142  1.1403 -0.9670
   20DOPE   C25 2493   1.316   2.538   8.200 -0.6060  0.0135 -0.1370
   20DOPE   H5R 2494   1.426   2.518   8.198  0.0102  2.7147  1.7720
   20DOPE   H5S 2495   1.311   2.649   8.203 -0.7701  0.0795 -1.9757
   20DOPE   C26 2496   1.249   2.482   8.076  0.2906  0.8925  0.8174
   20DOPE   H6R 2497   1.139   2.478   8.085  0.1276  1.3683 -0.6076
   20DOPE   H6S 2498   1.283   2.380   8.045 -1.8495 -0.0820  1.5360
   20DOPE   C27 2499   1.261   2.576   7.954  0.6361  0.5534  0.2461
   20DOPE   H7R 2500   1.366   2.563   7.918  0.7655 -0.9352  1.0771
   20DOPE   H7S 2501   1.236   2.679   7.988 -3.1129  0.2290 -1.0436
   20DOPE   C28 2502   1.166   2.536   7.842 -0.3374  1.1803 -0.6294
   20DOPE   H8R 2503   1.154   2.625   7.776 -0.0149  1.1669 -0.7045
   20DOPE   H8S 2504   1.068   2.501   7.882  0.4065  0.5768  0.7252
   20DOPE   C29 2505   1.217   2.420   7.763  0.0356 -0.9323  0.0330
   20DOPE   H9R 2506   1.215   2.322   7.813  2.3139 -0.7711  0.5591
   20DOPE  C210 2507   1.277   2.418   7.637 -0.5303  0.2659 -0.1246
   20DOPE  H10R 2508   1.300   2.326   7.581 -3.7542  0.1044 -1.4081
   20DOPE  C211 2509   1.291   2.538   7.554 -0.1974  0.3181 -0.4346
   20DOPE  H11R 2510   1.398   2.562   7.575 -0.5860  0.3593  1.7793
   20DOPE  H11S 2511   1.228   2.622   7.588  1.9391  0.6647  3.2637
   20DOPE  C212 2512   1.264   2.501   7.405  0.6302  0.0450  0.2557
   20DOPE  H12R 2513   1.330   2.418   7.373 -0.9744 -1.5923  1.0559
   20DOPE  H12S 2514   1.293   2.590   7.345  1.5934  0.0020  0.6340
   20DOPE  C213 2515   1.117   2.483   7.371 -0.1484 -0.1852  0.2413
   20DOPE  H13R 2516   1.058   2.571   7.404  0.6869  0.3588  0.3208
   20DOPE  H13S 2517   1.092   2.395   7.434 -0.3645  0.5626  1.2327
   20DOPE  C214 2518   1.108   2.444   7.225  0.6592  0.1484  0.0311
   20DOPE  H14R 2519   1.006   2.415   7.194  0.5361  0.7261 -0.1196
   20DOPE  H14S 2520   1.187   2.371   7.197  0.6267 -0.0744  0.5049
   20DOPE  C215 2521   1.136   2.557   7.121 -0.2867 -0.1523  0.1944
   20DOPE  H15R 2522   1.241   2.590   7.117 -0.9262  2.5854  2.4974
   20DOPE  H15S 2523   1.074   2.647   7.141  2.1939  1.3506  1.5236
   20DOPE  C216 2524   1.112   2.500   6.981  0.2405 -0.7050 -0.6987
   20DOPE  H16R 2525   1.009   2.461   6.966 -0.0769  0.8246 -2.9782
   20DOPE  H16S 2526   1.169   2.404   6.974  1.7635 -0.0196  1.3128
   20DOPE  C217 2527   1.131   2.594   6.856 -0.2304 -0.0536 -0.0470
   20DOPE  H17R 2528   1.236   2.630   6.848 -0.8108  1.4474 -1.6453
   20DOPE  H17S 2529   1.085   2.694   6.870 -0.3669 -0.2142  0.7321
   20DOPE  C218 2530   1.092   2.535   6.720 -0.2116  0.2414 -0.7652
   20DOPE  H18R 2531   1.160   2.453   6.688 -0.4834 -0.9789  1.5733
   20DOPE  H18S 2532   1.112   2.611   6.641  0.1118  1.1323  0.1539
   20DOPE  H18T 2533   0.984   2.514   6.713  0.1403 -1.3517 -2.1910
   20DOPE   C33 2534   1.065   1.977   8.138 -0.2047 -0.4937  0.7691
   20DOPE   H3X 2535   0.967   2.029   8.148 -1.2801 -2.3687  0.4470
   20DOPE   H3Y 2536   1.049   1.868   8.127  1.0089 -1.0379  3.5427
   20DOPE   C34 2537   1.127   2.032   8.008  0.4325  0.1556  0.1801
   20DOPE   H4X 2538   1.131   2.143   8.002 -1.3329  0.1914 -1.2004
   20DOPE   H4Y 2539   1.228   1.985   8.002  0.3433 -0.4606  2.6285
   20DOPE   C35 2540   1.039   1.982   7.893 -0.2435  0.2042  0.4769
   20DOPE   H5X 2541   0.938   2.024   7.911 -0.3333  0.5204 -0.6923
   20DOPE   H5Y 2542   1.032   1.871   7.885  2.1466  0.0781 -1.3184
   20DOPE   C36 2543   1.094   2.034   7.760  0.1651  0.4487 -0.1876
   20DOPE   H6X 2544   1.196   1.997   7.739 -0.6474 -0.9364 -1.9116
   20DOPE   H6Y 2545   1.104   2.143   7.778 -0.1309  0.6364 -1.1063
   20DOPE   C37 2546   1.000   2.003   7.641 -0.9390 -0.0681 -0.6985
   20DOPE   H7X 2547   0.994   1.895   7.617 -0.8579 -0.1053 -0.5521
   20DOPE   H7Y 2548   0.902   2.034   7.682 -0.7966  0.0416 -0.4386
   20DOPE   C38 2549   1.039   2.079   7.515  0.1662 -0.4037  0.0147
   20DOPE   H8X 2550   1.044   2.188   7.533  2.3488 -0.5079  0.3202
   20DOPE   H8Y 2551   0.952   2.057   7.449 -0.7853 -2.1219  1.7436
   20DOPE   C39 2552   1.168   2.044   7.454  0.4260  0.1499 -0.7620
   20DOPE   H9X 2553   1.255   2.062   7.518  1.4858 -1.4909 -1.6738
   20DOPE  C310 2554   1.188   1.971   7.346  0.4117 -0.4932  0.2827
   20DOPE  H10X 2555   1.288   1.939   7.314 -0.2189 -0.3307 -2.0088
   20DOPE  C311 2556   1.089   1.941   7.238  0.1537  0.4673  0.0864
   20DOPE  H11X 2557   1.134   1.858   7.179 -1.1873 -1.7679  1.9815
   20DOPE  H11Y 2558   1.002   1.884   7.280  0.7163 -2.0288 -1.8702
   20DOPE  C312 2559   1.036   2.061   7.162 -0.5767  0.4257  0.6275
   20DOPE  H12X 2560   1.121   2.126   7.134 -0.1748 -0.7010 -0.8809
   20DOPE  H12Y 2561   0.974   2.127   7.226  0.1061  1.2666  0.4388
   20DOPE  C313 2562   0.971   2.001   7.035 -0.2273 -0.5143 -0.3960
   20DOPE  H13X 2563   1.037   1.922   6.994  0.1730 -0.0708 -0.6143
   20DOPE  H13Y 2564   0.876   1.950   7.061 -0.2879 -0.0052  0.4059
   20DOPE  C314 2565   0.946   2.106   6.924 -0.5658  0.0144  0.3373
   20DOPE  H14X 2566   1.036   2.171   6.925  1.1112 -2.1422 -1.0609
   20DOPE  H14Y 2567   0.854   2.163   6.946  0.2780 -0.2630  6.6288
   20DOPE  C315 2568   0.942   2.033   6.789  0.2055 -0.2362 -0.2031
   20DOPE  H15X 2569   0.853   1.970   6.810 -0.0860  0.3236  0.2763
   20DOPE  H15Y 2570   1.031   1.967   6.783 -0.4696 -1.1024 -1.0948
   20DOPE  C316 2571   0.931   2.116   6.652  0.0188 -0.3406 -1.2254
   20DOPE  H16X 2572   1.037   2.147   6.634  1.0963 -0.8127  3.1150
   20DOPE  H16Y 2573   0.887   2.215   6.677 -0.6195 -0.3201 -2.3731
   20DOPE  C317 2574   0.866   2.040   6.536  0.5287  0.5544 -0.0465
   20DOPE  H17X 2575   0.924   1.947   6.519 -0.0402  0.2052 -0.1092
   20DOPE  H17Y 2576   0.761   2.012   6.560  0.3676  1.1796  0.0202
   20DOPE  C318 2577   0.856   2.117   6.402  1.0248  0.2973 -0.0045
   20DOPE  H18X 2578   0.824   2.047   6.322  1.2418 -0.3558  0.4750
   20DOPE  H18Y 2579   0.783   2.201   6.407  1.1451  0.4794 -1.0728
   20DOPE  H18Z 2580   0.958   2.154   6.381  0.9940  1.4900  1.7612
   21DOPE     N 2581   3.836   1.755   8.724 -0.0624  0.3777 -0.5543
   21DOPE   HN1 2582   3.875   1.680   8.785 -1.4762  2.1088  2.7345
   21DOPE   HN2 2583   3.774   1.700   8.660  1.3436 -1.1283 -0.6773
   21DOPE   HN3 2584   3.902   1.813   8.669  0.4022  0.1819 -0.2057
   21DOPE   C12 2585   3.758   1.839   8.817  0.3162 -0.2455  0.3163
   21DOPE  H12A 2586   3.699   1.779   8.890  1.5869  1.2903  2.7279
   21DOPE  H12B 2587   3.693   1.902   8.753 -0.1035 -0.4920  0.4981
   21DOPE   C11 2588   3.856   1.932   8.893 -0.0865 -0.1296 -1.0730
   21DOPE  H11A 2589   3.928   1.864   8.943 -1.7266 -0.6230  0.7359
   21DOPE  H11B 2590   3.792   1.970   8.975 -0.0972 -1.0839 -0.6269
   21DOPE     P 2591   4.068   2.008   8.778  0.2567  0.0484 -0.0361
   21DOPE   O13 2592   4.085   1.886   8.692 -0.1402  0.4348  0.8862
   21DOPE   O14 2593   4.158   2.019   8.900  0.9687 -0.1765  0.1731
   21DOPE   O11 2594   4.092   2.137   8.691  0.2005 -0.5378 -0.4941
   21DOPE   O12 2595   3.920   2.031   8.817  0.1664 -0.8180  0.9668
   21DOPE    C1 2596   3.995   2.188   8.593  0.3098 -0.1401  0.0440
   21DOPE    HA 2597   4.030   2.289   8.562 -0.1706 -0.0007 -0.0410
   21DOPE    HB 2598   3.894   2.197   8.638  1.0512  0.2319  1.7480
   21DOPE    C2 2599   3.991   2.106   8.466 -0.6113  0.3714  0.4247
   21DOPE    HS 2600   3.949   2.006   8.489  0.1109  0.4439  2.2498
   21DOPE   O21 2601   4.125   2.085   8.420 -0.7320  0.0298  0.2350
   21DOPE   C21 2602   4.142   1.997   8.329 -0.0895  0.8389 -0.0661
   21DOPE   O22 2603   4.057   1.911   8.300  0.3708 -0.2977  0.0485
   21DOPE   C22 2604   4.290   2.022   8.272  0.3035  0.2966 -0.4042
   21DOPE   H2R 2605   4.330   1.921   8.246  3.1359  2.0838 -3.8781
   21DOPE   H2S 2606   4.352   2.052   8.359  0.1178  1.2147 -0.5789
   21DOPE    C3 2607   3.913   2.198   8.362 -0.0506  0.6640  0.4967
   21DOPE    HX 2608   3.959   2.298   8.373  1.3947  0.0822 -0.0916
   21DOPE    HY 2609   3.809   2.197   8.401 -0.2305 -0.4637  0.0285
   21DOPE   O31 2610   3.915   2.143   8.227  0.4417 -0.1624  0.2089
   21DOPE   C31 2611   3.812   2.058   8.200  0.1945 -0.5457 -0.2769
   21DOPE   O32 2612   3.758   1.995   8.289  0.4070  0.4579  0.3967
   21DOPE   C32 2613   3.787   2.035   8.054  0.6692 -0.3289  0.2963
   21DOPE   H2X 2614   3.848   2.109   7.997 -0.1942  0.2259  0.0825
   21DOPE   H2Y 2615   3.824   1.932   8.034  0.2273 -0.0212 -2.5202
   21DOPE   C23 2616   4.269   2.116   8.159  0.4038  0.2160 -0.1173
   21DOPE   H3R 2617   4.364   2.164   8.129  0.1987  0.9794  0.4461
   21DOPE   H3S 2618   4.194   2.194   8.185  0.8445  0.4227  0.5259
   21DOPE   C24 2619   4.221   2.039   8.038  0.0401  0.6293  0.1178
   21DOPE   H4R 2620   4.120   1.997   8.061 -1.2110  2.9361 -0.8506
   21DOPE   H4S 2621   4.279   1.947   8.015 -0.7432  0.5489 -1.7100
   21DOPE   C25 2622   4.208   2.122   7.910 -0.7712  0.2937 -0.1510
   21DOPE   H5R 2623   4.308   2.164   7.886 -0.1323 -0.9732  0.1738
   21DOPE   H5S 2624   4.131   2.195   7.942 -0.2589  0.9835 -0.4507
   21DOPE   C26 2625   4.160   2.045   7.792  0.1387 -0.0009 -0.0858
   21DOPE   H6R 2626   4.066   1.998   7.828 -2.4869  3.9920 -1.0864
   21DOPE   H6S 2627   4.236   1.969   7.765 -0.6813 -1.4091  1.4002
   21DOPE   C27 2628   4.126   2.134   7.668  0.3275  0.0819 -0.2203
   21DOPE   H7R 2629   4.198   2.219   7.664  1.0050 -0.5058 -1.1906
   21DOPE   H7S 2630   4.025   2.173   7.692  0.5617 -0.0166  1.0054
   21DOPE   C28 2631   4.119   2.067   7.525 -0.0630 -0.1081 -0.8486
   21DOPE   H8R 2632   4.062   2.134   7.457 -0.5392  1.9222  1.4125
   21DOPE   H8S 2633   4.054   1.977   7.536  0.1841 -0.5416 -2.6577
   21DOPE   C29 2634   4.257   2.043   7.475  0.0672 -0.4534  0.4352
   21DOPE   H9R 2635   4.333   2.095   7.534  0.3057  0.5094 -0.6875
   21DOPE  C210 2636   4.293   1.971   7.364  0.3707 -0.5687 -0.9354
   21DOPE  H10R 2637   4.398   1.954   7.336  0.7140  2.7519 -2.0239
   21DOPE  C211 2638   4.190   1.899   7.281 -0.1380 -0.0679  0.2463
   21DOPE  H11R 2639   4.084   1.911   7.314 -0.3672  0.0926 -0.5130
   21DOPE  H11S 2640   4.214   1.791   7.284 -1.8820 -0.6702 -2.8159
   21DOPE  C212 2641   4.196   1.934   7.133  0.3322 -0.4058 -0.1685
   21DOPE  H12R 2642   4.183   2.043   7.121  0.9854 -0.5303 -2.3778
   21DOPE  H12S 2643   4.110   1.884   7.084 -0.3658  0.5587  0.0592
   21DOPE  C213 2644   4.320   1.891   7.057 -0.5443 -0.0626  0.3512
   21DOPE  H13R 2645   4.323   1.780   7.045 -0.5751 -0.4487  3.2535
   21DOPE  H13S 2646   4.407   1.920   7.119 -0.2747  0.1668 -0.1251
   21DOPE  C214 2647   4.332   1.967   6.921 -0.5691  0.4525 -0.7488
   21DOPE  H14R 2648   4.434   1.949   6.882  0.3582  1.9810  0.7889
   21DOPE  H14S 2649   4.328   2.077   6.940  0.1969  0.3899 -0.1679
   21DOPE  C215 2650   4.232   1.929   6.816  0.8795 -0.2492  0.0184
   21DOPE  H15R 2651   4.129   1.956   6.845  1.4169  0.5579  1.2753
   21DOPE  H15S 2652   4.238   1.821   6.791 -1.8060 -0.3725 -0.3131
   21DOPE  C216 2653   4.261   2.008   6.687  0.4779 -0.0855 -0.1102
   21DOPE  H16R 2654   4.361   1.990   6.642  0.6967  2.3021 -0.7122
   21DOPE  H16S 2655   4.254   2.118   6.701 -2.3004  0.0602 -1.8317
   21DOPE  C217 2656   4.156   1.992   6.574  0.6815  0.2249  0.2712
   21DOPE  H17R 2657   4.143   2.091   6.525 -0.2791  0.4306  0.9203
   21DOPE  H17S 2658   4.057   1.973   6.619 -0.3124  0.2839 -1.7626
   21DOPE  C218 2659   4.182   1.871   6.476 -0.5486  0.2736 -0.5112
   21DOPE  H18R 2660   4.210   1.787   6.543 -1.7321  0.9695  0.9055
   21DOPE  H18S 2661   4.262   1.911   6.411  0.4203 -1.1925 -0.2482
   21DOPE  H18T 2662   4.090   1.840   6.421 -0.3898 -1.1490 -0.0194
   21DOPE   C33 2663   3.637   2.035   8.012 -1.0143 -0.3164  1.0158
   21DOPE   H3X 2664   3.598   2.137   8.027 -0.6271  0.4693 -2.4706
   21DOPE   H3Y 2665   3.581   1.963   8.076 -2.1225 -1.5602 -1.2205
   21DOPE   C34 2666   3.611   1.996   7.862 -0.2305  0.7649  0.1344
   21DOPE   H4X 2667   3.602   1.885   7.863 -2.0708  0.8834  0.8258
   21DOPE   H4Y 2668   3.513   2.033   7.824  0.2819  1.5212 -0.4874
   21DOPE   C35 2669   3.723   2.047   7.772 -0.4790 -0.4376 -0.0358
   21DOPE   H5X 2670   3.818   1.997   7.802 -0.7050 -0.8579 -0.0249
   21DOPE   H5Y 2671   3.732   2.157   7.790  0.2049  0.0952 -3.1155
   21DOPE   C36 2672   3.702   2.028   7.623  0.3524  0.0635 -0.5419
   21DOPE   H6X 2673   3.799   2.064   7.581  0.3092  0.1905 -0.5338
   21DOPE   H6Y 2674   3.617   2.093   7.594 -1.3710 -1.0950  1.6017
   21DOPE   C37 2675   3.692   1.887   7.588 -0.6062  0.0591  0.5387
   21DOPE   H7X 2676   3.768   1.827   7.642  0.5404  0.1054 -0.9749
   21DOPE   H7Y 2677   3.594   1.845   7.621 -0.2173 -1.0665  0.3204
   21DOPE   C38 2678   3.715   1.847   7.439  0.0965 -0.0945  0.5460
   21DOPE   H8X 2679   3.690   1.739   7.431  1.3460 -0.4244  0.8800
   21DOPE   H8Y 2680   3.822   1.854   7.410 -0.5220 -0.6669 -2.2132
   21DOPE   C39 2681   3.630   1.923   7.334  0.5668  0.2900  0.3487
   21DOPE   H9X 2682   3.523   1.906   7.349  0.8306 -0.3981  1.5876
   21DOPE  C310 2683   3.671   2.006   7.232  0.2474 -0.5814  0.4819
   21DOPE  H10X 2684   3.595   2.062   7.174  2.3308  1.3160 -0.5639
   21DOPE  C311 2685   3.810   2.066   7.219  0.3272  0.1544 -0.1160
   21DOPE  H11X 2686   3.791   2.174   7.239  0.2478  0.6205 -2.4728
   21DOPE  H11Y 2687   3.881   2.030   7.296  0.5924 -1.6622 -1.1647
   21DOPE  C312 2688   3.866   2.069   7.072 -0.9868 -0.2570  0.3369
   21DOPE  H12X 2689   3.891   1.967   7.036  2.8301  0.6428  0.1037
   21DOPE  H12Y 2690   3.958   2.129   7.080 -0.7575 -0.5483 -0.0741
   21DOPE  C313 2691   3.771   2.136   6.969 -0.2025 -0.1074 -0.0484
   21DOPE  H13X 2692   3.684   2.069   6.954 -0.9318  0.4100  1.6438
   21DOPE  H13Y 2693   3.741   2.240   6.993 -0.1107  0.1217 -0.9061
   21DOPE  C314 2694   3.849   2.153   6.836 -0.7220 -0.2626 -0.1362
   21DOPE  H14X 2695   3.857   2.058   6.780  3.2146  1.4453 -2.9902
   21DOPE  H14Y 2696   3.951   2.188   6.864 -1.7159  1.6009  1.4066
   21DOPE  C315 2697   3.786   2.252   6.736 -0.4022 -0.5132 -0.0317
   21DOPE  H15X 2698   3.860   2.282   6.658 -1.1539 -1.5979 -1.1959
   21DOPE  H15Y 2699   3.754   2.345   6.787  0.8466  0.7026 -1.3730
   21DOPE  C316 2700   3.656   2.206   6.676 -0.5199  0.0919 -0.0258
   21DOPE  H16X 2701   3.575   2.195   6.752 -1.1315 -1.3349 -0.8562
   21DOPE  H16Y 2702   3.676   2.100   6.651  0.3764 -0.3695  2.4029
   21DOPE  C317 2703   3.612   2.285   6.551  0.3101 -0.0642 -1.1398
   21DOPE  H17X 2704   3.506   2.254   6.535  0.5816 -2.5268  1.1522
   21DOPE  H17Y 2705   3.611   2.395   6.566 -2.2346  0.2209 -2.6677
   21DOPE  C318 2706   3.685   2.258   6.422 -0.0798 -0.5033 -0.8383
   21DOPE  H18X 2707   3.790   2.293   6.428 -0.1760 -0.2838 -0.3900
   21DOPE  H18Y 2708   3.669   2.157   6.379  2.2102 -2.2611  2.1059
   21DOPE  H18Z 2709   3.643   2.330   6.348 -0.8333  1.0251  0.9942
   22DOPE     N 2710   1.429   0.336   9.100  0.3847  0.5000 -0.2999
   22DOPE   HN1 2711   1.493   0.351   9.020  0.4486 -0.7211 -0.5058
   22DOPE   HN2 2712   1.333   0.349   9.064  0.7737  0.5409 -1.3306
   22DOPE   HN3 2713   1.457   0.403   9.175  0.4271 -1.2495  1.3445
   22DOPE   C12 2714   1.445   0.195   9.159  0.4524  0.2955  0.6726
   22DOPE  H12A 2715   1.479   0.207   9.264 -0.1631 -0.3405  0.9495
   22DOPE  H12B 2716   1.528   0.151   9.099 -0.7105  1.3670 -1.8731
   22DOPE   C11 2717   1.304   0.124   9.151 -0.4031  0.1268  0.0623
   22DOPE  H11A 2718   1.263   0.148   9.251  1.9948 -0.2441  1.2262
   22DOPE  H11B 2719   1.334   0.017   9.152  2.8295  0.9343 -0.1917
   22DOPE     P 2720   1.153   0.064   8.963  0.0573 -0.1036  0.6778
   22DOPE   O13 2721   1.064   0.127   8.859 -0.6164 -0.9854  0.2484
   22DOPE   O14 2722   1.087  -0.031   9.048 -0.1201 -0.7445  0.1074
   22DOPE   O11 2723   1.266  -0.020   8.892 -0.6606 -0.0844  0.0147
   22DOPE   O12 2724   1.224   0.169   9.044 -0.5988  0.1330  0.0605
   22DOPE    C1 2725   1.370   0.047   8.818  0.0433 -0.0720 -0.3711
   22DOPE    HA 2726   1.461  -0.016   8.823 -0.1487 -0.2727  1.2402
   22DOPE    HB 2727   1.403   0.142   8.865 -2.2674  0.0727  1.1340
   22DOPE    C2 2728   1.331   0.082   8.669 -0.3341 -0.9276 -0.6706
   22DOPE    HS 2729   1.229   0.126   8.673  0.1046  0.0539  0.4089
   22DOPE   O21 2730   1.317  -0.043   8.604  0.2013  0.1860 -0.2142
   22DOPE   C21 2731   1.225  -0.052   8.508  0.3018  0.4026 -0.1694
   22DOPE   O22 2732   1.141   0.032   8.479 -0.1849 -0.0135  0.8049
   22DOPE   C22 2733   1.246  -0.187   8.437  0.2461 -0.0107 -0.1456
   22DOPE   H2R 2734   1.211  -0.263   8.510 -0.8774  0.5344 -0.0908
   22DOPE   H2S 2735   1.353  -0.190   8.408  0.9287  0.4618  2.1262
   22DOPE    C3 2736   1.438   0.171   8.604 -0.7110  0.0355 -0.0961
   22DOPE    HX 2737   1.529   0.113   8.628 -1.0964 -1.4539 -2.0316
   22DOPE    HY 2738   1.439   0.268   8.658 -0.9573  0.6946 -1.2376
   22DOPE   O31 2739   1.421   0.183   8.460  0.0158  0.5544 -0.3557
   22DOPE   C31 2740   1.355   0.284   8.413 -0.2024 -0.0721  0.2945
   22DOPE   O32 2741   1.305   0.378   8.472 -0.0039 -0.0979  0.3156
   22DOPE   C32 2742   1.338   0.276   8.260  0.3751  0.1922 -0.1888
   22DOPE   H2X 2743   1.408   0.338   8.200 -0.6332 -1.1610 -2.9558
   22DOPE   H2Y 2744   1.359   0.170   8.232  0.2775  0.4287 -1.1958
   22DOPE   C23 2745   1.154  -0.207   8.316  0.7856 -0.0479 -0.9204
   22DOPE   H3R 2746   1.054  -0.166   8.340  1.3159  1.2035 -0.7756
   22DOPE   H3S 2747   1.141  -0.317   8.304  0.2557 -0.0487 -0.3779
   22DOPE   C24 2748   1.204  -0.154   8.184 -0.6761 -0.5947 -0.3408
   22DOPE   H4R 2749   1.312  -0.180   8.176 -0.4912  0.4140 -1.5837
   22DOPE   H4S 2750   1.198  -0.043   8.191  0.3734 -0.6469  2.9590
   22DOPE   C25 2751   1.123  -0.203   8.060 -0.4423 -0.4477 -0.5060
   22DOPE   H5R 2752   1.028  -0.155   8.091  0.3639 -0.0697  1.5395
   22DOPE   H5S 2753   1.117  -0.314   8.060  0.7804 -0.5539  1.3564
   22DOPE   C26 2754   1.176  -0.161   7.927  0.2665  0.0084  0.3675
   22DOPE   H6R 2755   1.269  -0.209   7.889 -0.6072  0.8182 -3.1643
   22DOPE   H6S 2756   1.194  -0.052   7.920 -1.5432  0.3171  0.0779
   22DOPE   C27 2757   1.065  -0.195   7.831 -0.0967  0.6474 -0.3899
   22DOPE   H7R 2758   0.974  -0.143   7.868  1.1478  2.5818  0.1070
   22DOPE   H7S 2759   1.042  -0.303   7.842 -1.5746  1.1046  1.8589
   22DOPE   C28 2760   1.099  -0.172   7.684  0.3057 -0.4050 -0.3149
   22DOPE   H8R 2761   1.197  -0.214   7.653  0.9648  3.5981 -4.7251
   22DOPE   H8S 2762   1.104  -0.063   7.664 -2.2750 -0.2930 -0.6394
   22DOPE   C29 2763   0.990  -0.224   7.595 -0.1748  1.2224  0.8324
   22DOPE   H9R 2764   0.888  -0.233   7.636 -0.4682 -0.2783 -0.1322
   22DOPE  C210 2765   1.001  -0.252   7.461  0.1028  0.4384  0.1660
   22DOPE  H10R 2766   0.914  -0.299   7.413  1.6361 -2.3850 -0.0690
   22DOPE  C211 2767   1.124  -0.244   7.374 -0.3917 -0.3422 -0.3276
   22DOPE  H11R 2768   1.142  -0.342   7.325  2.1458  1.3075 -3.0384
   22DOPE  H11S 2769   1.204  -0.207   7.442 -2.5026  0.0192  2.1588
   22DOPE  C212 2770   1.106  -0.148   7.259 -0.7130 -0.6652 -0.6873
   22DOPE  H12R 2771   1.208  -0.139   7.216 -0.3240 -0.8472  0.1774
   22DOPE  H12S 2772   1.072  -0.046   7.288  0.8999 -0.4559  0.6635
   22DOPE  C213 2773   1.012  -0.196   7.152 -0.1078 -0.8447  0.0989
   22DOPE  H13R 2774   0.909  -0.156   7.167 -0.4806 -2.3638  2.0610
   22DOPE  H13S 2775   1.007  -0.307   7.155 -0.4928 -0.8157  1.3046
   22DOPE  C214 2776   1.066  -0.136   7.019 -0.5134  0.4060  0.7843
   22DOPE  H14R 2777   1.121  -0.042   7.042 -1.0692  0.5573  1.5369
   22DOPE  H14S 2778   0.971  -0.108   6.969 -0.1815  1.3837  0.6852
   22DOPE  C215 2779   1.148  -0.224   6.922  0.5046 -0.1015  0.1127
   22DOPE  H15R 2780   1.083  -0.304   6.880 -1.4507  0.1523  2.5103
   22DOPE  H15S 2781   1.234  -0.273   6.974 -0.3944 -2.3127 -0.3529
   22DOPE  C216 2782   1.220  -0.152   6.809 -0.0069  0.1395 -0.2081
   22DOPE  H16R 2783   1.298  -0.082   6.845  0.4611 -1.0632  1.2456
   22DOPE  H16S 2784   1.141  -0.093   6.757 -1.1046  0.0294  1.2616
   22DOPE  C217 2785   1.276  -0.243   6.692  0.6866 -0.7824  0.1903
   22DOPE  H17R 2786   1.325  -0.172   6.622 -0.9707 -0.5104 -0.7479
   22DOPE  H17S 2787   1.185  -0.288   6.647  1.2803 -1.7697 -0.0537
   22DOPE  C218 2788   1.376  -0.352   6.727 -0.3829  0.2988 -0.1790
   22DOPE  H18R 2789   1.396  -0.416   6.638 -0.6086 -1.4290  0.9531
   22DOPE  H18S 2790   1.342  -0.419   6.809  1.6580 -2.0488 -1.1320
   22DOPE  H18T 2791   1.468  -0.301   6.762  0.2174 -0.0879 -1.1704
   22DOPE   C33 2792   1.191   0.309   8.226 -0.0015  0.3353 -0.3041
   22DOPE   H3X 2793   1.179   0.415   8.257  1.5706  0.1280  1.1665
   22DOPE   H3Y 2794   1.128   0.244   8.290  2.0511 -2.1218 -0.6150
   22DOPE   C34 2795   1.152   0.266   8.078  0.3370 -0.9425 -0.4587
   22DOPE   H4X 2796   1.157   0.156   8.063 -0.7836 -0.9318 -1.0517
   22DOPE   H4Y 2797   1.046   0.294   8.062  1.3356  2.7725 -1.4387
   22DOPE   C35 2798   1.235   0.338   7.970  0.0890 -0.2123  0.1319
   22DOPE   H5X 2799   1.337   0.295   7.978  1.5137  2.5047 -1.7119
   22DOPE   H5Y 2800   1.237   0.448   7.987  2.8339  0.1030 -1.5889
   22DOPE   C36 2801   1.172   0.313   7.832  0.2012  0.1426  0.0998
   22DOPE   H6X 2802   1.064   0.341   7.833  0.4715  1.3420  1.9032
   22DOPE   H6Y 2803   1.173   0.204   7.809 -2.0903  0.3246 -1.2075
   22DOPE   C37 2804   1.246   0.382   7.709 -0.0819  0.4112  0.2570
   22DOPE   H7X 2805   1.263   0.492   7.719 -0.6476  0.4882  0.4220
   22DOPE   H7Y 2806   1.342   0.326   7.702 -0.6771 -0.5426 -0.3801
   22DOPE   C38 2807   1.169   0.367   7.572  0.1170  0.7209 -0.2267
   22DOPE   H8X 2808   1.229   0.426   7.500 -0.6248  1.2147 -0.4573
   22DOPE   H8Y 2809   1.069   0.414   7.583 -0.9979 -1.7877  1.4186
   22DOPE   C39 2810   1.174   0.226   7.516 -0.3044  0.9125  0.5134
   22DOPE   H9X 2811   1.140   0.149   7.587 -0.0129  0.1072 -0.2073
   22DOPE  C310 2812   1.200   0.180   7.387 -0.2682 -0.0137 -0.4180
   22DOPE  H10X 2813   1.197   0.070   7.377  0.5909 -0.3838  2.5273
   22DOPE  C311 2814   1.237   0.265   7.269  0.5897  0.6148  0.0197
   22DOPE  H11X 2815   1.272   0.365   7.302 -0.3357  1.3958 -1.2349
   22DOPE  H11Y 2816   1.320   0.215   7.215 -1.1556 -1.7640 -0.6296
   22DOPE  C312 2817   1.122   0.264   7.170  0.0908 -0.1501  0.6800
   22DOPE  H12X 2818   1.029   0.313   7.206  0.5210  0.6233  0.7550
   22DOPE  H12Y 2819   1.091   0.161   7.142 -0.5082  0.0623  0.5378
   22DOPE  C313 2820   1.152   0.347   7.039  0.0915  0.2700  0.1953
   22DOPE  H13X 2821   1.171   0.450   7.077  0.1565  0.2549  0.2044
   22DOPE  H13Y 2822   1.247   0.309   6.996  0.2885  0.7347  0.2120
   22DOPE  C314 2823   1.043   0.356   6.929 -0.6476 -0.6843  0.1235
   22DOPE  H14X 2824   1.082   0.433   6.859 -0.7213  0.1576  0.9935
   22DOPE  H14Y 2825   0.947   0.399   6.964 -0.9774 -0.9301 -0.4666
   22DOPE  C315 2826   1.014   0.230   6.854 -0.4985 -0.0695  0.3886
   22DOPE  H15X 2827   1.017   0.147   6.928 -0.2085  0.4389  0.9595
   22DOPE  H15Y 2828   1.101   0.219   6.787 -0.3032  0.1456  0.6040
   22DOPE  C316 2829   0.883   0.233   6.771 -0.0166  0.3836  0.1076
   22DOPE  H16X 2830   0.873   0.339   6.740  1.1405  0.2301 -0.8485
   22DOPE  H16Y 2831   0.805   0.227   6.850  2.0751 -1.3106  2.1693
   22DOPE  C317 2832   0.860   0.120   6.666 -0.0002 -0.3850 -0.0871
   22DOPE  H17X 2833   0.949   0.114   6.600 -0.0192  0.2029 -0.1652
   22DOPE  H17Y 2834   0.842   0.024   6.720 -0.1706 -1.7592 -2.4141
   22DOPE  C318 2835   0.737   0.138   6.574 -0.4020 -0.6852 -0.2600
   22DOPE  H18X 2836   0.766   0.112   6.470  0.7381 -1.1722  0.1614
   22DOPE  H18Y 2837   0.654   0.066   6.589 -0.3224 -0.8906 -0.7830
   22DOPE  H18Z 2838   0.704   0.243   6.587  0.7991 -0.5371  2.3253
   23DOPE     N 2839   5.734   2.392   8.903  0.2456 -0.0305 -0.0702
   23DOPE   HN1 2840   5.800   2.431   8.974  2.2352  1.1295 -2.4109
   23DOPE   HN2 2841   5.673   2.468   8.865 -0.1749  0.0868  0.8164
   23DOPE   HN3 2842   5.679   2.311   8.938  0.7325  0.5945  2.3488
   23DOPE   C12 2843   5.821   2.343   8.790 -0.6477 -0.6316  0.0846
   23DOPE  H12A 2844   5.772   2.361   8.692 -0.1825  1.5069  0.2053
   23DOPE  H12B 2845   5.836   2.233   8.798  0.7266 -0.5586 -1.0303
   23DOPE   C11 2846   5.957   2.420   8.777 -0.1931 -0.2690  0.1172
   23DOPE  H11A 2847   6.009   2.397   8.682 -1.7185  0.4087 -0.9164
   23DOPE  H11B 2848   6.027   2.383   8.855 -0.2435  1.9849  1.3057
   23DOPE     P 2849   6.038   2.659   8.738 -0.0278  0.2519  0.1576
   23DOPE   O13 2850   6.171   2.613   8.785  0.0662 -0.0571  0.4220
   23DOPE   O14 2851   5.997   2.794   8.788  0.8255  0.3866 -0.1858
   23DOPE   O11 2852   6.023   2.648   8.580  0.0555 -0.4659  0.2420
   23DOPE   O12 2853   5.933   2.557   8.793  0.1652 -0.0961 -0.6671
   23DOPE    C1 2854   5.900   2.680   8.511 -0.2983  0.0610 -0.7069
   23DOPE    HA 2855   5.899   2.785   8.475  1.5764  0.8964  1.4520
   23DOPE    HB 2856   5.811   2.674   8.577  0.3151  0.8513  0.2317
   23DOPE    C2 2857   5.886   2.583   8.395  0.1961 -0.0832  0.4289
   23DOPE    HS 2858   5.906   2.486   8.445  0.2920 -0.7779 -0.9145
   23DOPE   O21 2859   5.986   2.609   8.292 -0.2906 -0.3291  0.7523
   23DOPE   C21 2860   5.999   2.495   8.214  0.1331 -1.4529 -0.0055
   23DOPE   O22 2861   5.981   2.386   8.253 -0.6106  0.5196 -0.3816
   23DOPE   C22 2862   6.041   2.535   8.076 -0.1973 -0.4790 -0.5064
   23DOPE   H2R 2863   6.120   2.611   8.093  0.0921 -0.9061  0.0709
   23DOPE   H2S 2864   5.948   2.588   8.044 -0.0273  0.6475  0.7877
   23DOPE    C3 2865   5.735   2.595   8.345 -0.6379 -0.3913  0.0862
   23DOPE    HX 2866   5.715   2.704   8.340 -1.0512 -0.4499  0.3981
   23DOPE    HY 2867   5.670   2.555   8.426  0.4342  2.2448  2.3892
   23DOPE   O31 2868   5.723   2.534   8.218 -0.0866  0.3325  0.1845
   23DOPE   C31 2869   5.599   2.545   8.170 -0.7497 -0.0106  0.2259
   23DOPE   O32 2870   5.510   2.598   8.233 -0.0389  0.0348 -0.1806
   23DOPE   C32 2871   5.581   2.459   8.048  0.5087  0.0166  0.1851
   23DOPE   H2X 2872   5.653   2.374   8.042 -0.8596 -1.2001  0.5064
   23DOPE   H2Y 2873   5.476   2.425   8.046 -0.1381  1.8888 -0.1916
   23DOPE   C23 2874   6.089   2.423   7.980  0.3911  0.1509 -0.0311
   23DOPE   H3R 2875   6.059   2.325   8.024 -1.5134  0.0203 -1.4977
   23DOPE   H3S 2876   6.199   2.422   7.964  0.1079  0.7388 -2.3731
   23DOPE   C24 2877   6.021   2.431   7.842  0.1709 -0.4112  0.4098
   23DOPE   H4R 2878   5.910   2.424   7.853  0.1084  0.3424  0.3002
   23DOPE   H4S 2879   6.055   2.346   7.779  0.4554  2.3235 -3.4575
   23DOPE   C25 2880   6.052   2.566   7.774  0.0795  0.7163  0.8619
   23DOPE   H5R 2881   6.163   2.565   7.762 -0.1332  1.4334 -1.6633
   23DOPE   H5S 2882   6.022   2.654   7.836 -0.0055  1.1139  0.2664
   23DOPE   C26 2883   5.985   2.573   7.627 -0.4940 -0.0275  0.0812
   23DOPE   H6R 2884   5.879   2.589   7.654 -0.3463  2.3375 -0.5131
   23DOPE   H6S 2885   5.989   2.476   7.573 -0.8882  0.5099 -0.9205
   23DOPE   C27 2886   6.031   2.684   7.539 -0.4184 -0.1700  0.0474
   23DOPE   H7R 2887   6.139   2.669   7.519 -0.1966  0.1564  0.9784
   23DOPE   H7S 2888   5.999   2.781   7.581  0.3416  0.1285 -0.0591
   23DOPE   C28 2889   5.969   2.691   7.396 -0.1089 -0.4727 -0.4569
   23DOPE   H8R 2890   6.042   2.762   7.352  2.4998 -1.6348  1.6901
   23DOPE   H8S 2891   5.869   2.738   7.403 -0.0000 -0.4775  1.6923
   23DOPE   C29 2892   5.956   2.561   7.317  0.2430 -0.2365  0.0109
   23DOPE   H9R 2893   5.976   2.466   7.369  0.6897 -0.2462 -0.1743
   23DOPE  C210 2894   5.942   2.559   7.182 -0.0168  0.1314 -0.6545
   23DOPE  H10R 2895   5.933   2.462   7.132  1.2473  0.2964 -1.2465
   23DOPE  C211 2896   5.934   2.678   7.091 -0.5838  0.3554 -0.3510
   23DOPE  H11R 2897   5.985   2.648   6.997 -0.3158  0.1201 -0.1326
   23DOPE  H11S 2898   5.981   2.774   7.125  1.9323 -0.7053 -0.6141
   23DOPE  C212 2899   5.790   2.688   7.046 -0.6100 -0.4145 -0.0314
   23DOPE  H12R 2900   5.734   2.701   7.141 -0.5875 -0.0100 -0.0716
   23DOPE  H12S 2901   5.747   2.596   6.999  1.2778 -0.7861 -1.1168
   23DOPE  C213 2902   5.777   2.814   6.966  0.7100 -0.5686  0.5089
   23DOPE  H13R 2903   5.807   2.899   7.032  1.0469 -0.2189 -0.0935
   23DOPE  H13S 2904   5.673   2.837   6.937  0.7772 -2.3815 -1.3561
   23DOPE  C214 2905   5.876   2.844   6.849  0.7602  0.0048 -0.0060
   23DOPE  H14R 2906   5.889   2.755   6.783 -1.9741  0.4090 -1.2219
   23DOPE  H14S 2907   5.971   2.872   6.899 -0.0689  0.9689  1.1123
   23DOPE  C215 2908   5.825   2.962   6.769 -0.2406 -0.7213 -0.4894
   23DOPE  H15R 2909   5.790   3.044   6.836  0.8540 -1.0817  0.5508
   23DOPE  H15S 2910   5.737   2.929   6.710  0.3237 -0.4201 -1.5151
   23DOPE  C216 2911   5.929   3.022   6.669 -0.3581  0.1489 -0.0552
   23DOPE  H16R 2912   6.018   3.043   6.732  0.3376  0.4101 -1.0972
   23DOPE  H16S 2913   5.895   3.123   6.638  0.0256  1.0059  2.1479
   23DOPE  C217 2914   5.975   2.924   6.560  0.4900 -0.5650  0.7730
   23DOPE  H17R 2915   5.896   2.900   6.486 -1.3432 -0.7539  2.6879
   23DOPE  H17S 2916   5.982   2.827   6.614 -0.2749 -1.7253 -1.1163
   23DOPE  C218 2917   6.108   2.958   6.483  0.4431  0.0001  0.1639
   23DOPE  H18R 2918   6.199   2.954   6.547  2.0323 -1.3430 -2.0433
   23DOPE  H18S 2919   6.108   3.054   6.429  1.9354 -0.4608 -0.7097
   23DOPE  H18T 2920   6.122   2.886   6.399 -2.8611  1.7957 -2.1253
   23DOPE   C33 2921   5.620   2.544   7.922 -0.1989  0.7816 -0.0800
   23DOPE   H3X 2922   5.730   2.560   7.917  0.2952 -1.9872  0.1661
   23DOPE   H3Y 2923   5.575   2.644   7.937 -0.0496  1.0693 -1.4186
   23DOPE   C34 2924   5.569   2.471   7.793 -0.9606 -0.6855  0.6835
   23DOPE   H4X 2925   5.641   2.390   7.767 -0.4429  0.5895 -2.1625
   23DOPE   H4Y 2926   5.473   2.421   7.818 -0.9762  0.4154  3.1494
   23DOPE   C35 2927   5.562   2.558   7.668  0.6164 -0.3567 -0.0078
   23DOPE   H5X 2928   5.656   2.611   7.642  0.2419 -0.8010 -2.5166
   23DOPE   H5Y 2929   5.471   2.621   7.675 -1.6458 -3.2628 -1.0133
   23DOPE   C36 2930   5.533   2.473   7.541 -0.2108  0.1554 -0.3296
   23DOPE   H6X 2931   5.429   2.434   7.549  0.2911 -1.2045 -0.2510
   23DOPE   H6Y 2932   5.604   2.388   7.543  0.0852  0.3288 -2.1392
   23DOPE   C37 2933   5.531   2.552   7.413  0.0420  0.1966 -0.3589
   23DOPE   H7X 2934   5.451   2.628   7.425 -2.8495 -2.6942  0.4257
   23DOPE   H7Y 2935   5.629   2.601   7.398 -0.9599  1.9462 -1.5315
   23DOPE   C38 2936   5.480   2.469   7.296 -0.1036  0.6828  0.5960
   23DOPE   H8X 2937   5.387   2.418   7.329  1.1686 -1.7338  0.6722
   23DOPE   H8Y 2938   5.549   2.386   7.271 -1.3489  0.3582 -2.2183
   23DOPE   C39 2939   5.454   2.558   7.179 -0.3031 -0.1619 -0.4742
   23DOPE   H9X 2940   5.441   2.664   7.207  1.1627 -0.0747 -0.0320
   23DOPE  C310 2941   5.453   2.515   7.054 -0.1621 -0.3579 -0.0736
   23DOPE  H10X 2942   5.435   2.580   6.966  1.9851 -0.2935 -0.5143
   23DOPE  C311 2943   5.479   2.375   7.003  0.3864  0.0558  0.1382
   23DOPE  H11X 2944   5.574   2.370   6.946  0.8266 -2.9647  0.9884
   23DOPE  H11Y 2945   5.491   2.301   7.085  1.3032 -0.5806 -0.5439
   23DOPE  C312 2946   5.371   2.336   6.910 -0.8668 -0.0936 -0.4591
   23DOPE  H12X 2947   5.275   2.357   6.961 -0.0707  0.3092  0.9321
   23DOPE  H12Y 2948   5.367   2.227   6.889 -1.0388 -0.3823  0.9672
   23DOPE  C313 2949   5.354   2.418   6.782  0.1551 -0.3713 -0.4937
   23DOPE  H13X 2950   5.258   2.390   6.734 -0.7366  0.5058  0.6998
   23DOPE  H13Y 2951   5.330   2.526   6.797  1.8434 -0.1674  1.0752
   23DOPE  C314 2952   5.465   2.401   6.681 -0.0361 -0.2862 -0.8746
   23DOPE  H14X 2953   5.487   2.294   6.661 -1.8855 -1.2238  1.6061
   23DOPE  H14Y 2954   5.557   2.435   6.734 -0.7125  0.8114 -0.3576
   23DOPE  C315 2955   5.457   2.482   6.549  0.6105  0.2541  0.5788
   23DOPE  H15X 2956   5.539   2.446   6.484 -0.0161 -0.3645  0.1173
   23DOPE  H15Y 2957   5.488   2.587   6.567 -0.4166  0.5973  0.4627
   23DOPE  C316 2958   5.329   2.472   6.470  0.4725  0.4522  0.2575
   23DOPE  H16X 2959   5.239   2.515   6.519 -0.4920  0.1679 -1.2159
   23DOPE  H16Y 2960   5.297   2.369   6.444  1.1501 -0.2966  2.2344
   23DOPE  C317 2961   5.332   2.551   6.340 -0.3735  0.3956 -0.2710
   23DOPE  H17X 2962   5.405   2.507   6.269 -0.7518  0.6954 -0.8558
   23DOPE  H17Y 2963   5.232   2.549   6.291 -0.9651  3.2393  0.6386
   23DOPE  C318 2964   5.376   2.695   6.360  0.1255  0.0736  0.5516
   23DOPE  H18X 2965   5.320   2.741   6.444 -0.3809  0.0324  0.2429
   23DOPE  H18Y 2966   5.482   2.714   6.386  0.2813 -0.9884  0.7271
   23DOPE  H18Z 2967   5.352   2.753   6.268 -1.6532 -0.0965  0.8795
   24DOPE     N 2968   1.181   1.173   8.585 -0.4383 -0.2724 -0.4234
   24DOPE   HN1 2969   1.090   1.137   8.622 -0.0832  1.9890  3.1936
   24DOPE   HN2 2970   1.263   1.116   8.615 -1.5679 -2.4079 -1.1771
   24DOPE   HN3 2971   1.190   1.267   8.629  0.3552  0.3303 -1.8018
   24DOPE   C12 2972   1.197   1.195   8.434 -0.2274  0.4411 -0.5405
   24DOPE  H12A 2973   1.140   1.284   8.402 -0.9582 -0.0328 -0.5776
   24DOPE  H12B 2974   1.165   1.099   8.387  1.4205  0.2395 -1.3504
   24DOPE   C11 2975   1.348   1.229   8.413  0.5218 -0.3880 -0.3593
   24DOPE  H11A 2976   1.377   1.243   8.306  1.8274  2.0341  0.2212
   24DOPE  H11B 2977   1.420   1.156   8.454  0.5279 -0.5362 -0.6288
   24DOPE     P 2978   1.509   1.427   8.458 -0.0448 -0.6274  0.3103
   24DOPE   O13 2979   1.608   1.325   8.419 -0.2264 -0.3496  0.6765
   24DOPE   O14 2980   1.544   1.514   8.572  0.1052 -0.4724  0.1317
   24DOPE   O11 2981   1.475   1.522   8.340  0.0244 -0.6898 -0.1395
   24DOPE   O12 2982   1.367   1.356   8.482 -0.0125 -0.2292 -0.0693
   24DOPE    C1 2983   1.345   1.566   8.305 -0.1513  0.4655  0.5784
   24DOPE    HA 2984   1.334   1.672   8.334 -0.0398  0.6167  0.0620
   24DOPE    HB 2985   1.263   1.508   8.352 -0.7431 -0.2014 -1.1894
   24DOPE    C2 2986   1.324   1.547   8.151  0.3826 -0.4262 -0.3096
   24DOPE    HS 2987   1.354   1.443   8.127  1.5545 -0.4031  0.9114
   24DOPE   O21 2988   1.404   1.648   8.091  0.0509 -0.4096 -0.0806
   24DOPE   C21 2989   1.462   1.613   7.972 -0.9183 -0.1208 -0.7772
   24DOPE   O22 2990   1.495   1.502   7.946  0.0979 -0.3202  0.4277
   24DOPE   C22 2991   1.466   1.739   7.882  0.3841 -0.2620 -0.0622
   24DOPE   H2R 2992   1.520   1.819   7.937  0.1242 -0.8611  1.0932
   24DOPE   H2S 2993   1.362   1.776   7.876  1.1018  1.9141 -0.0798
   24DOPE    C3 2994   1.177   1.566   8.102  0.1878 -0.5228 -0.2519
   24DOPE    HX 2995   1.137   1.647   8.167 -0.6134 -2.2164  1.4418
   24DOPE    HY 2996   1.120   1.475   8.127  0.6165 -1.2794 -1.8990
   24DOPE   O31 2997   1.171   1.593   7.959 -0.0881  0.0951 -0.0855
   24DOPE   C31 2998   1.061   1.550   7.902  0.9089  0.2279 -0.3454
   24DOPE   O32 2999   0.965   1.504   7.958  0.3358 -0.0433 -0.4034
   24DOPE   C32 3000   1.076   1.542   7.745 -0.0386  0.1218 -0.3775
   24DOPE   H2X 3001   1.160   1.611   7.722 -0.0456  0.3700  0.3054
   24DOPE   H2Y 3002   1.119   1.441   7.727 -3.3896 -1.3782 -0.7259
   24DOPE   C23 3003   1.514   1.715   7.737  0.3617 -0.3451  0.1248
   24DOPE   H3R 3004   1.449   1.628   7.710  0.4058 -1.1508  2.4315
   24DOPE   H3S 3005   1.617   1.675   7.740 -0.3901 -2.9208 -2.5227
   24DOPE   C24 3006   1.489   1.826   7.633  0.6304 -0.1766 -0.0000
   24DOPE   H4R 3007   1.538   1.914   7.682 -0.8293  0.8549 -0.3155
   24DOPE   H4S 3008   1.383   1.856   7.617  0.5831 -0.6231 -0.5424
   24DOPE   C25 3009   1.534   1.796   7.488 -0.3918 -0.3471 -0.5317
   24DOPE   H5R 3010   1.641   1.767   7.497 -0.4873 -0.1716  1.5840
   24DOPE   H5S 3011   1.522   1.890   7.430 -0.8485  0.0705  0.2294
   24DOPE   C26 3012   1.460   1.684   7.417  0.2947  0.2776 -0.4994
   24DOPE   H6R 3013   1.350   1.698   7.420 -0.3432 -2.3677 -4.0778
   24DOPE   H6S 3014   1.476   1.583   7.461  0.8122  0.7647  0.4608
   24DOPE   C27 3015   1.499   1.677   7.267  0.3933  0.4826 -0.1036
   24DOPE   H7R 3016   1.605   1.645   7.255 -0.1393 -0.7917 -1.7396
   24DOPE   H7S 3017   1.490   1.781   7.228 -1.0282  0.8301  1.0597
   24DOPE   C28 3018   1.407   1.577   7.196 -0.2634  0.2771 -0.0805
   24DOPE   H8R 3019   1.300   1.606   7.190 -0.0706  1.0987  0.3463
   24DOPE   H8S 3020   1.402   1.485   7.257 -1.0803  0.6839  0.4789
   24DOPE   C29 3021   1.453   1.575   7.051  0.3936  0.0173  0.6078
   24DOPE   H9R 3022   1.454   1.672   6.999 -0.1462 -0.7098 -0.8127
   24DOPE  C210 3023   1.473   1.462   6.983  0.0889  0.2879 -0.0752
   24DOPE  H10R 3024   1.514   1.480   6.882 -1.4135  0.9758 -0.5929
   24DOPE  C211 3025   1.455   1.314   7.025 -0.0067 -0.2396 -0.3814
   24DOPE  H11R 3026   1.386   1.261   6.956 -0.8239 -0.6639  0.7183
   24DOPE  H11S 3027   1.414   1.303   7.128  0.7233  1.7232  0.1612
   24DOPE  C212 3028   1.593   1.238   7.029  1.5224  0.1119  0.0775
   24DOPE  H12R 3029   1.618   1.230   6.921 -1.2536  1.0727 -0.7459
   24DOPE  H12S 3030   1.568   1.137   7.068  0.5365 -0.1316 -1.0936
   24DOPE  C213 3031   1.708   1.307   7.111  0.0257 -0.4722 -0.1701
   24DOPE  H13R 3032   1.752   1.393   7.056  1.7657 -1.7633 -0.8932
   24DOPE  H13S 3033   1.784   1.226   7.118 -2.1178 -2.5877  0.1840
   24DOPE  C214 3034   1.670   1.345   7.254  0.2696 -0.2353 -0.7192
   24DOPE  H14R 3035   1.609   1.438   7.251  0.2429 -0.1654  1.0881
   24DOPE  H14S 3036   1.761   1.370   7.312 -0.3158  1.4210 -0.4629
   24DOPE  C215 3037   1.594   1.242   7.343  0.0748 -0.2021 -0.0068
   24DOPE  H15R 3038   1.655   1.150   7.348 -1.0893 -0.9804  0.5015
   24DOPE  H15S 3039   1.496   1.222   7.295 -0.3400  2.2498 -0.3399
   24DOPE  C216 3040   1.571   1.293   7.483 -0.1441 -0.0960 -0.2565
   24DOPE  H16R 3041   1.557   1.403   7.476  0.5947 -0.0511 -1.3011
   24DOPE  H16S 3042   1.662   1.288   7.548  0.0844  1.0998 -0.4759
   24DOPE  C217 3043   1.447   1.230   7.564  0.2644 -0.7565  0.0580
   24DOPE  H17R 3044   1.457   1.292   7.656  0.5642 -0.0011 -0.4657
   24DOPE  H17S 3045   1.470   1.123   7.584  1.3440 -0.2375  1.8214
   24DOPE  C218 3046   1.316   1.261   7.496  0.2831  0.2431  0.2222
   24DOPE  H18R 3047   1.297   1.190   7.413  1.1156  2.1183 -1.6876
   24DOPE  H18S 3048   1.321   1.359   7.443  1.6517 -1.3264 -2.8337
   24DOPE  H18T 3049   1.230   1.255   7.565 -1.4157 -0.8525 -1.8724
   24DOPE   C33 3050   0.951   1.575   7.661  0.5314  0.0913  0.6029
   24DOPE   H3X 3051   0.931   1.684   7.673 -0.4365 -0.2800  3.0639
   24DOPE   H3Y 3052   0.868   1.511   7.699 -0.5086  0.4484 -0.9760
   24DOPE   C34 3053   0.985   1.559   7.512 -0.4629  0.0390 -0.5956
   24DOPE   H4X 3054   1.083   1.607   7.491  0.0433 -0.2234  1.0275
   24DOPE   H4Y 3055   0.988   1.458   7.468  1.8842  0.0726 -0.6318
   24DOPE   C35 3056   0.881   1.628   7.420 -0.6103  0.0510 -0.1861
   24DOPE   H5X 3057   0.895   1.738   7.428  0.9271 -0.0291 -1.3867
   24DOPE   H5Y 3058   0.779   1.609   7.460 -0.5167  1.7714  0.9763
   24DOPE   C36 3059   0.877   1.576   7.272 -0.0472 -0.6163  0.2127
   24DOPE   H6X 3060   0.776   1.597   7.229  0.0959  0.7469  0.5070
   24DOPE   H6Y 3061   0.881   1.465   7.275 -2.6888 -0.8187 -0.4789
   24DOPE   C37 3062   0.975   1.633   7.167 -0.0467 -0.7487 -0.9927
   24DOPE   H7X 3063   0.941   1.736   7.143 -0.4348 -0.7111 -0.2774
   24DOPE   H7Y 3064   1.073   1.640   7.219 -0.4120 -1.5413 -0.1729
   24DOPE   C38 3065   0.975   1.543   7.043 -0.1056  0.1448 -0.4033
   24DOPE   H8X 3066   0.870   1.539   7.007 -0.4780  1.0869  0.5127
   24DOPE   H8Y 3067   1.013   1.442   7.068 -0.3990 -0.5404 -2.5220
   24DOPE   C39 3068   1.069   1.595   6.934  0.1445  0.1169  0.4371
   24DOPE   H9X 3069   1.165   1.632   6.973  0.4334 -0.1978  0.0290
   24DOPE  C310 3070   1.037   1.623   6.806  0.2735  0.0580  0.8069
   24DOPE  H10X 3071   1.115   1.658   6.737  1.0853  0.7630  2.0529
   24DOPE  C311 3072   0.900   1.587   6.736 -0.3267 -0.4277 -0.0520
   24DOPE  H11X 3073   0.833   1.530   6.803 -1.6721  2.4254  1.2257
   24DOPE  H11Y 3074   0.845   1.678   6.704  1.8340  1.0857  0.3103
   24DOPE  C312 3075   0.917   1.496   6.615  0.2679 -0.3375  0.5451
   24DOPE  H12X 3076   0.999   1.425   6.641  0.3368  0.4280  2.6017
   24DOPE  H12Y 3077   0.962   1.558   6.535  2.5556 -1.4588  0.8797
   24DOPE  C313 3078   0.780   1.431   6.573 -0.9639 -0.1881 -0.6814
   24DOPE  H13X 3079   0.797   1.341   6.509  0.1924 -1.8431  1.7828
   24DOPE  H13Y 3080   0.730   1.382   6.659 -1.9696 -0.5934 -1.4762
   24DOPE  C314 3081   0.684   1.539   6.516  0.8250  0.1603  0.2282
   24DOPE  H14X 3082   0.669   1.628   6.581  1.0944  1.5977 -1.6078
   24DOPE  H14Y 3083   0.585   1.489   6.510  1.0538 -0.2300 -0.3528
   24DOPE  C315 3084   0.718   1.605   6.380 -0.7863 -1.0485 -0.1870
   24DOPE  H15X 3085   0.734   1.530   6.300 -2.2507 -1.7719  0.1575
   24DOPE  H15Y 3086   0.817   1.652   6.400 -1.5614  0.5610  0.0606
   24DOPE  C316 3087   0.619   1.715   6.328  0.8448 -0.3326  0.1247
   24DOPE  H16X 3088   0.662   1.778   6.247  2.3271  0.9368  1.8231
   24DOPE  H16Y 3089   0.584   1.784   6.408  0.3471  0.5045 -0.7946
   24DOPE  C317 3090   0.493   1.645   6.278  0.6037  0.8009 -0.0555
   24DOPE  H17X 3091   0.516   1.577   6.193 -1.1535  0.7985 -0.5567
   24DOPE  H17Y 3092   0.444   1.590   6.362 -0.1675  1.4240 -0.0919
   24DOPE  C318 3093   0.387   1.750   6.230 -0.0757  0.3891  0.0609
   24DOPE  H18X 3094   0.290   1.699   6.216 -1.2555  2.7774 -0.9393
   24DOPE  H18Y 3095   0.372   1.837   6.297 -1.3185 -1.5803  2.5413
   24DOPE  H18Z 3096   0.429   1.791   6.136 -0.6824 -0.5200 -0.6303
   25DOPE     N 3097   1.842   0.939   8.592  0.1256  0.5619 -0.3842
   25DOPE   HN1 3098   1.814   1.032   8.631 -2.4857  0.1734 -1.1642
   25DOPE   HN2 3099   1.819   0.868   8.664 -1.9679  0.6502 -0.9088
   25DOPE   HN3 3100   1.944   0.928   8.577  0.6437  1.7730  1.7727
   25DOPE   C12 3101   1.767   0.908   8.471  0.0737  0.2700  0.5321
   25DOPE  H12A 3102   1.784   0.801   8.449  0.2633  0.2552  0.7489
   25DOPE  H12B 3103   1.818   0.973   8.397  0.2050  0.3316  0.6750
   25DOPE   C11 3104   1.621   0.941   8.477  0.3598  0.6509 -0.9302
   25DOPE  H11A 3105   1.575   0.914   8.379 -0.3125  1.3223 -0.8097
   25DOPE  H11B 3106   1.602   1.048   8.500  1.4124  0.5305  0.6254
   25DOPE     P 3107   1.412   0.862   8.617  0.1073 -0.2519 -0.0538
   25DOPE   O13 3108   1.395   1.004   8.664  0.3612 -0.1418 -0.0105
   25DOPE   O14 3109   1.383   0.753   8.709 -0.0157  0.1723  0.0077
   25DOPE   O11 3110   1.340   0.834   8.476  0.4034 -0.5481  0.3275
   25DOPE   O12 3111   1.567   0.859   8.586  0.1543 -0.1386  0.2499
   25DOPE    C1 3112   1.360   0.708   8.411 -0.2539 -0.0775  0.0180
   25DOPE    HA 3113   1.292   0.636   8.461 -0.1011 -0.3533 -0.1733
   25DOPE    HB 3114   1.470   0.691   8.416  0.0225  1.2167 -1.2311
   25DOPE    C2 3115   1.338   0.720   8.259  0.5723  0.7641 -0.2493
   25DOPE    HS 3116   1.339   0.617   8.217  0.0185  0.6844 -0.0849
   25DOPE   O21 3117   1.453   0.797   8.204 -0.0586  0.2933  0.6331
   25DOPE   C21 3118   1.503   0.758   8.086  0.5690 -0.2005 -0.1969
   25DOPE   O22 3119   1.463   0.661   8.030 -0.4125  0.4574  0.5277
   25DOPE   C22 3120   1.594   0.873   8.027 -0.0461 -0.5921  0.0594
   25DOPE   H2R 3121   1.665   0.892   8.110  1.6836  1.4331 -1.7653
   25DOPE   H2S 3122   1.522   0.957   8.014  0.6450  0.0742  0.4767
   25DOPE    C3 3123   1.194   0.778   8.225  0.2986  0.7232 -0.2727
   25DOPE    HX 3124   1.205   0.885   8.253 -0.2233  0.0954  2.6760
   25DOPE    HY 3125   1.110   0.729   8.278 -0.1252  0.9498 -0.7278
   25DOPE   O31 3126   1.166   0.752   8.085 -0.0718  0.4843  0.1546
   25DOPE   C31 3127   1.183   0.853   8.007 -0.5250 -0.3947 -0.5705
   25DOPE   O32 3128   1.208   0.968   8.037 -0.1517 -1.1182  0.3168
   25DOPE   C32 3129   1.165   0.825   7.865  0.1449  0.5915  1.3747
   25DOPE   H2X 3130   1.099   0.738   7.842  0.4729  0.6432  0.1466
   25DOPE   H2Y 3131   1.124   0.915   7.815 -2.5487 -0.6080  1.2503
   25DOPE   C23 3132   1.668   0.839   7.900  0.1720  0.3962  0.4279
   25DOPE   H3R 3133   1.587   0.815   7.828  0.1184  1.8132 -0.0161
   25DOPE   H3S 3134   1.729   0.749   7.922 -1.3963 -0.6678  0.5813
   25DOPE   C24 3135   1.759   0.953   7.852  0.6863 -0.4295 -1.0746
   25DOPE   H4R 3136   1.825   0.987   7.935 -1.1563  0.6819  0.0095
   25DOPE   H4S 3137   1.695   1.037   7.817  2.7036  1.5135 -0.3579
   25DOPE   C25 3138   1.849   0.890   7.747 -0.0270  0.2584 -0.2116
   25DOPE   H5R 3139   1.852   0.782   7.772 -0.7335  0.1495 -0.5561
   25DOPE   H5S 3140   1.953   0.928   7.751 -0.3809  1.5304 -1.7231
   25DOPE   C26 3141   1.795   0.914   7.603 -0.1437 -0.3583 -0.1932
   25DOPE   H6R 3142   1.813   1.019   7.573  0.7017 -0.8586 -1.5402
   25DOPE   H6S 3143   1.685   0.901   7.608 -0.1763 -0.0695 -0.1949
   25DOPE   C27 3144   1.845   0.806   7.508  0.5572 -0.6332  0.6509
   25DOPE   H7R 3145   1.811   0.709   7.550 -0.8958 -0.0996  0.7719
   25DOPE   H7S 3146   1.956   0.807   7.510  0.5446  0.0800  1.1756
   25DOPE   C28 3147   1.786   0.828   7.364  0.7405 -0.0727 -0.1870
   25DOPE   H8R 3148   1.678   0.843   7.387  0.7719 -1.5067  1.1140
   25DOPE   H8S 3149   1.801   0.743   7.293  1.1904 -1.0475  1.0308
   25DOPE   C29 3150   1.831   0.950   7.296  1.0352 -0.3972  0.2435
   25DOPE   H9R 3151   1.856   1.037   7.359 -0.2613 -0.9046  1.5170
   25DOPE  C210 3152   1.889   0.956   7.172 -0.9877  0.8364 -0.1979
   25DOPE  H10R 3153   1.921   1.050   7.125  0.8339  0.0610 -0.6020
   25DOPE  C211 3154   1.909   0.844   7.077  0.4652  0.0400 -0.5766
   25DOPE  H11R 3155   1.949   0.752   7.125 -0.1356  0.3356  0.5173
   25DOPE  H11S 3156   1.988   0.877   7.006  0.1729  3.0673  0.3493
   25DOPE  C212 3157   1.786   0.832   6.990 -0.3564 -0.1884 -0.1059
   25DOPE  H12R 3158   1.768   0.931   6.943 -1.0781 -0.4689 -0.4343
   25DOPE  H12S 3159   1.690   0.821   7.044  0.5157  1.1402  1.8178
   25DOPE  C213 3160   1.812   0.737   6.865 -0.1879  0.3120  0.0635
   25DOPE  H13R 3161   1.825   0.632   6.900 -1.2388 -0.2188 -1.0383
   25DOPE  H13S 3162   1.913   0.752   6.821  1.7336  1.1723  4.2728
   25DOPE  C214 3163   1.695   0.756   6.762  0.9891  0.0521 -0.0598
   25DOPE  H14R 3164   1.682   0.864   6.739  0.4555  0.0297  0.1323
   25DOPE  H14S 3165   1.605   0.734   6.824  1.0369 -0.6411 -0.2327
   25DOPE  C215 3166   1.698   0.663   6.642 -0.9149 -0.1523  0.4819
   25DOPE  H15R 3167   1.704   0.558   6.680 -0.3797  0.3620  1.8685
   25DOPE  H15S 3168   1.794   0.694   6.595 -0.3424  1.1591  2.3811
   25DOPE  C216 3169   1.574   0.675   6.554  1.3080  0.1809  0.6974
   25DOPE  H16R 3170   1.477   0.677   6.609 -0.2884  0.8754 -1.9471
   25DOPE  H16S 3171   1.579   0.584   6.490  1.0778  1.2634 -0.9140
   25DOPE  C217 3172   1.567   0.802   6.470 -0.6828 -0.0752  0.8031
   25DOPE  H17R 3173   1.644   0.803   6.390 -1.4240 -1.2567  0.0458
   25DOPE  H17S 3174   1.601   0.889   6.531  0.1439  0.5228 -0.4770
   25DOPE  C218 3175   1.434   0.822   6.399  0.0383 -0.0517  0.1142
   25DOPE  H18R 3176   1.354   0.824   6.476  0.6685 -1.1194  0.8189
   25DOPE  H18S 3177   1.418   0.731   6.338  1.1914 -0.4049  0.3157
   25DOPE  H18T 3178   1.440   0.919   6.345  0.5352 -0.6047 -0.8400
   25DOPE   C33 3179   1.298   0.790   7.785  0.1835  0.0731 -0.6477
   25DOPE   H3X 3180   1.333   0.686   7.802  0.1689  0.0965 -0.4742
   25DOPE   H3Y 3181   1.375   0.857   7.831 -1.2039  2.0705 -1.1043
   25DOPE   C34 3182   1.271   0.802   7.641  0.0802  0.6020  0.5606
   25DOPE   H4X 3183   1.188   0.734   7.613  0.3288  0.4015  0.3071
   25DOPE   H4Y 3184   1.233   0.904   7.615 -0.8001 -0.2572 -1.7991
   25DOPE   C35 3185   1.395   0.775   7.563  0.5645 -0.5558 -0.3331
   25DOPE   H5X 3186   1.430   0.672   7.582  2.2546 -0.1547 -1.0421
   25DOPE   H5Y 3187   1.481   0.844   7.581  0.3422 -0.2087 -0.5718
   25DOPE   C36 3188   1.370   0.776   7.408  0.0957  0.0497  0.3326
   25DOPE   H6X 3189   1.288   0.704   7.392 -0.6111  0.6183  1.2698
   25DOPE   H6Y 3190   1.458   0.731   7.359 -0.1940  0.0540 -0.1948
   25DOPE   C37 3191   1.354   0.920   7.353 -0.1740  0.3836 -0.3925
   25DOPE   H7X 3192   1.257   0.948   7.398  0.3683  0.2573  0.8977
   25DOPE   H7Y 3193   1.436   0.986   7.389  0.8514 -0.6818 -0.6972
   25DOPE   C38 3194   1.321   0.915   7.197 -0.7240 -0.5936 -0.1911
   25DOPE   H8X 3195   1.413   0.878   7.147 -0.2419  0.1633  0.1246
   25DOPE   H8Y 3196   1.312   1.016   7.152  1.7768 -0.2448 -0.0590
   25DOPE   C39 3197   1.199   0.840   7.148  0.2419 -0.1779 -0.1432
   25DOPE   H9X 3198   1.119   0.828   7.222  1.2448 -1.7052  0.7383
   25DOPE  C310 3199   1.183   0.779   7.027 -0.0852 -0.0551  0.7503
   25DOPE  H10X 3200   1.088   0.724   7.017  0.4334 -0.8604  0.1203
   25DOPE  C311 3201   1.274   0.780   6.909  0.3071 -1.0153 -0.5456
   25DOPE  H11X 3202   1.319   0.882   6.905 -0.7316 -0.4321  1.2734
   25DOPE  H11Y 3203   1.358   0.712   6.935 -0.0330 -0.2974  2.8823
   25DOPE  C312 3204   1.198   0.741   6.779  0.3332 -0.5894 -0.0830
   25DOPE  H12X 3205   1.137   0.650   6.794 -2.0478  0.7831 -0.8841
   25DOPE  H12Y 3206   1.280   0.720   6.708  1.7548  1.5689  0.7982
   25DOPE  C313 3207   1.092   0.838   6.727  0.3742 -0.5357  0.1570
   25DOPE  H13X 3208   0.993   0.793   6.746  0.1965  0.4813  1.8611
   25DOPE  H13Y 3209   1.091   0.927   6.793 -0.8202 -0.8860  0.6348
   25DOPE  C314 3210   1.092   0.897   6.590  0.3261 -0.1240  0.8808
   25DOPE  H14X 3211   0.983   0.910   6.571  0.2913 -0.4487  0.8530
   25DOPE  H14Y 3212   1.133   0.827   6.514 -0.7575  0.2873 -0.1131
   25DOPE  C315 3213   1.163   1.032   6.574 -0.6004  1.1503 -0.7721
   25DOPE  H15X 3214   1.271   1.007   6.581 -0.9691 -0.5846 -0.7657
   25DOPE  H15Y 3215   1.128   1.100   6.655 -0.8601 -0.4214  0.4866
   25DOPE  C316 3216   1.139   1.104   6.442 -0.4205 -0.3360 -0.3796
   25DOPE  H16X 3217   1.190   1.050   6.359  2.1473 -1.0231  1.5277
   25DOPE  H16Y 3218   1.188   1.203   6.458 -0.2487 -0.7827  2.3109
   25DOPE  C317 3219   0.991   1.112   6.403  0.0136  0.3098 -0.1863
   25DOPE  H17X 3220   0.955   1.007   6.393 -2.8098  1.2654 -0.8441
   25DOPE  H17Y 3221   0.921   1.149   6.481 -0.2005 -0.8301  0.1827
   25DOPE  C318 3222   0.965   1.191   6.275 -0.8422 -0.3092 -0.4484
   25DOPE  H18X 3223   1.010   1.139   6.188  0.9586 -1.1657  0.9048
   25DOPE  H18Y 3224   0.858   1.212   6.257 -0.4035  1.6620 -0.9449
   25DOPE  H18Z 3225   1.016   1.289   6.274  0.0819 -0.7541 -2.9907
   26DOPE     N 3226   2.222   2.013   8.408  0.4029  0.4276 -0.1420
   26DOPE   HN1 3227   2.272   1.986   8.321  1.4370 -0.2887  0.6454
   26DOPE   HN2 3228   2.230   2.115   8.425  1.0042  0.4803 -0.7154
   26DOPE   HN3 3229   2.268   1.961   8.486  0.2606 -0.4262 -0.6151
   26DOPE   C12 3230   2.075   1.968   8.408 -0.2733  0.2146  0.0376
   26DOPE  H12A 3231   2.067   1.870   8.357  1.4641 -0.8829  1.7275
   26DOPE  H12B 3232   2.016   2.049   8.359 -0.4109 -0.0249 -0.1954
   26DOPE   C11 3233   2.028   1.954   8.556 -0.0206 -0.5085  0.6317
   26DOPE  H11A 3234   1.918   1.968   8.564  0.0271 -0.6626  1.7241
   26DOPE  H11B 3235   2.060   2.045   8.612 -0.9955  0.4138 -0.2666
   26DOPE     P 3236   1.981   1.707   8.612 -0.2803  0.0911 -0.2223
   26DOPE   O13 3237   1.851   1.749   8.677  0.1271  0.3126 -0.2199
   26DOPE   O14 3238   2.056   1.588   8.672  0.2946  0.1268  0.2484
   26DOPE   O11 3239   1.961   1.686   8.456 -0.3992 -0.1623 -0.1665
   26DOPE   O12 3240   2.073   1.838   8.615 -0.1797 -0.6824  0.3164
   26DOPE    C1 3241   1.882   1.588   8.396 -0.7694 -0.4654 -0.7369
   26DOPE    HA 3242   1.777   1.606   8.427 -0.3912  1.0837 -0.2620
   26DOPE    HB 3243   1.911   1.482   8.417 -0.2746 -0.4911 -1.5173
   26DOPE    C2 3244   1.893   1.598   8.245  0.2136 -0.3800  0.6197
   26DOPE    HS 3245   1.994   1.558   8.223 -0.8074 -2.4344 -0.5774
   26DOPE   O21 3246   1.896   1.742   8.210 -0.2007 -0.2891  0.0845
   26DOPE   C21 3247   1.974   1.772   8.107 -0.2077 -0.0843  0.5603
   26DOPE   O22 3248   2.047   1.692   8.049  0.1054 -0.1905 -0.2064
   26DOPE   C22 3249   1.954   1.921   8.088 -0.7360 -0.4242  0.1006
   26DOPE   H2R 3250   2.053   1.970   8.099 -1.0543  0.5986 -1.2958
   26DOPE   H2S 3251   1.889   1.960   8.170 -0.2181  0.1929  0.2206
   26DOPE    C3 3252   1.787   1.526   8.161  0.5239 -0.0666 -0.1614
   26DOPE    HX 3253   1.686   1.565   8.184  1.3086  2.9778 -1.3653
   26DOPE    HY 3254   1.777   1.421   8.194  1.3624 -0.3251 -0.6886
   26DOPE   O31 3255   1.815   1.532   8.022  0.2364  0.1549  0.0598
   26DOPE   C31 3256   1.883   1.426   7.975 -0.5130  0.5300  0.0963
   26DOPE   O32 3257   1.941   1.336   8.037 -0.2090  0.2206 -0.0111
   26DOPE   C32 3258   1.899   1.449   7.819 -0.1243  0.2274  0.2562
   26DOPE   H2X 3259   1.817   1.504   7.767 -0.2515 -0.5270 -0.3510
   26DOPE   H2Y 3260   1.981   1.523   7.821 -0.9061  1.1103  2.1301
   26DOPE   C23 3261   1.900   1.952   7.947  0.1849  0.3866 -0.7871
   26DOPE   H3R 3262   1.873   2.059   7.951  0.2807  0.3910 -0.1292
   26DOPE   H3S 3263   1.798   1.909   7.934 -0.0316  0.3837  0.7334
   26DOPE   C24 3264   1.990   1.914   7.821  0.4595 -0.0099 -0.6579
   26DOPE   H4R 3265   2.018   1.807   7.830  2.2409  0.2705 -2.2083
   26DOPE   H4S 3266   2.085   1.969   7.834  1.0355 -1.2006  0.3999
   26DOPE   C25 3267   1.920   1.929   7.680 -0.0224  0.3711 -0.0339
   26DOPE   H5R 3268   1.903   2.035   7.652 -1.6028  0.8092  2.2435
   26DOPE   H5S 3269   1.825   1.873   7.668  1.1054 -1.3791 -1.3383
   26DOPE   C26 3270   2.001   1.879   7.558  0.1756  0.5840 -0.0421
   26DOPE   H6R 3271   2.025   1.773   7.580 -0.4498  0.0721 -1.6741
   26DOPE   H6S 3272   2.096   1.937   7.566  0.6631  0.0932 -1.8095
   26DOPE   C27 3273   1.927   1.924   7.433 -0.5695 -0.2649 -0.0176
   26DOPE   H7R 3274   1.923   2.035   7.427  0.5569 -0.2354 -0.4909
   26DOPE   H7S 3275   1.822   1.891   7.446 -0.1392 -0.9624  2.0493
   26DOPE   C28 3276   1.993   1.876   7.297  0.2547  0.1835 -0.3820
   26DOPE   H8R 3277   2.102   1.894   7.304  0.1811  0.3881  0.2695
   26DOPE   H8S 3278   1.942   1.925   7.211  1.0835  2.8998  0.5751
   26DOPE   C29 3279   1.980   1.728   7.288  0.4875  0.0782  0.0840
   26DOPE   H9R 3280   2.005   1.683   7.385  0.0661 -0.3533 -0.0011
   26DOPE  C210 3281   1.938   1.657   7.187 -0.2426  0.4532  0.2314
   26DOPE  H10R 3282   1.925   1.548   7.191  0.6724  0.3606  1.1644
   26DOPE  C211 3283   1.908   1.713   7.047  0.1488  0.2117 -0.8124
   26DOPE  H11R 3284   1.996   1.769   7.010 -0.2555  0.5795 -1.2264
   26DOPE  H11S 3285   1.828   1.788   7.063 -1.1049 -1.4482  1.3397
   26DOPE  C212 3286   1.856   1.614   6.944 -1.0054 -0.0800  0.1921
   26DOPE  H12R 3287   1.757   1.582   6.984 -0.6224 -1.1985  0.2800
   26DOPE  H12S 3288   1.927   1.528   6.943  1.3860  1.6775  2.9207
   26DOPE  C213 3289   1.845   1.671   6.805 -0.3368 -0.0902 -0.4010
   26DOPE  H13R 3290   1.797   1.772   6.807  0.4847  0.3346 -1.1838
   26DOPE  H13S 3291   1.775   1.601   6.755  0.9889 -1.8965  0.1735
   26DOPE  C214 3292   1.975   1.679   6.733 -0.8754 -0.0771  0.5224
   26DOPE  H14R 3293   2.032   1.589   6.700 -1.2463  0.6030 -2.2097
   26DOPE  H14S 3294   2.053   1.728   6.795 -0.2330 -0.2134 -0.1663
   26DOPE  C215 3295   1.985   1.775   6.606 -0.2649 -1.1659  0.4065
   26DOPE  H15R 3296   2.091   1.770   6.571 -0.3419 -0.0396 -0.0344
   26DOPE  H15S 3297   1.975   1.879   6.643 -0.8632  0.0691 -2.8688
   26DOPE  C216 3298   1.880   1.744   6.500  0.0155 -0.0157  0.3958
   26DOPE  H16R 3299   1.914   1.793   6.406  1.3019 -1.7759 -0.1037
   26DOPE  H16S 3300   1.794   1.801   6.543 -0.0350 -0.0420  0.3310
   26DOPE  C217 3301   1.842   1.597   6.473 -0.3461  0.2296  0.5681
   26DOPE  H17R 3302   1.808   1.544   6.564  0.6999 -3.3408 -0.9677
   26DOPE  H17S 3303   1.928   1.533   6.444  0.2053 -0.2716  3.0910
   26DOPE  C218 3304   1.730   1.577   6.368 -1.2155 -0.6184 -0.1627
   26DOPE  H18R 3305   1.765   1.594   6.263 -1.2623 -0.3028 -0.1287
   26DOPE  H18S 3306   1.649   1.652   6.385 -0.0799  0.2330  1.7122
   26DOPE  H18T 3307   1.703   1.470   6.367  1.9850 -1.5156 -1.0097
   26DOPE   C33 3308   1.946   1.319   7.746  0.5128  0.2027 -0.7296
   26DOPE   H3X 3309   1.878   1.232   7.759  1.6445 -0.4923  0.9371
   26DOPE   H3Y 3310   2.042   1.288   7.793  0.0283 -0.0514  0.1269
   26DOPE   C34 3311   1.968   1.337   7.595 -0.0079 -0.9140  0.1455
   26DOPE   H4X 3312   1.872   1.363   7.546  0.4037  0.0687 -0.1648
   26DOPE   H4Y 3313   2.033   1.427   7.588 -2.7200  1.3096  1.4814
   26DOPE   C35 3314   2.042   1.228   7.515 -0.3294 -0.4500 -0.2026
   26DOPE   H5X 3315   1.988   1.132   7.534  1.4495 -1.2318  1.1484
   26DOPE   H5Y 3316   2.141   1.215   7.562 -0.3079  2.0018  0.5358
   26DOPE   C36 3317   2.048   1.269   7.370  0.4853  0.0042  0.2315
   26DOPE   H6X 3318   2.064   1.378   7.358 -1.4063  0.1699 -1.1013
   26DOPE   H6Y 3319   1.960   1.238   7.311  0.8869 -1.0245  0.1519
   26DOPE   C37 3320   2.171   1.188   7.320 -0.2262  0.0019  0.7635
   26DOPE   H7X 3321   2.269   1.220   7.363  0.3320  0.8588 -1.0460
   26DOPE   H7Y 3322   2.157   1.078   7.325  1.0793 -0.2480 -0.3790
   26DOPE   C38 3323   2.191   1.184   7.162  0.0601 -0.1918  0.4009
   26DOPE   H8X 3324   2.220   1.285   7.127 -0.1290 -0.3586 -0.2358
   26DOPE   H8Y 3325   2.095   1.167   7.110  1.1089  2.3082 -2.6377
   26DOPE   C39 3326   2.289   1.087   7.112 -0.0413  1.0206 -0.4992
   26DOPE   H9X 3327   2.381   1.084   7.173  1.5365  1.4718 -2.6970
   26DOPE  C310 3328   2.285   1.017   6.996  1.0580  0.0073  0.0187
   26DOPE  H10X 3329   2.359   0.937   6.982  0.0467 -1.0878  0.7232
   26DOPE  C311 3330   2.180   1.046   6.894 -0.6213  0.5461  0.0790
   26DOPE  H11X 3331   2.165   0.965   6.820  2.5787  0.9018 -1.0898
   26DOPE  H11Y 3332   2.079   1.065   6.938  0.4150  1.0518  2.4064
   26DOPE  C312 3333   2.212   1.167   6.805 -0.2027  0.2228  0.0041
   26DOPE  H12X 3334   2.309   1.146   6.756  0.4041  1.8663  0.4499
   26DOPE  H12Y 3335   2.249   1.253   6.865  0.1570  0.6893 -0.8796
   26DOPE  C313 3336   2.100   1.204   6.705 -0.7110  0.4977 -0.5993
   26DOPE  H13X 3337   2.115   1.303   6.655  0.9115 -0.6217 -2.5108
   26DOPE  H13Y 3338   2.117   1.124   6.630  1.9156  0.9582 -0.6114
   26DOPE  C314 3339   1.951   1.210   6.771 -0.2074 -0.2731 -0.0059
   26DOPE  H14X 3340   1.951   1.282   6.856  1.5983 -0.6924  0.4021
   26DOPE  H14Y 3341   1.923   1.107   6.799  0.7621 -0.5023  0.1752
   26DOPE  C315 3342   1.840   1.240   6.659 -0.0501  0.5057  0.0266
   26DOPE  H15X 3343   1.868   1.334   6.606 -3.0950  0.6735 -1.4608
   26DOPE  H15Y 3344   1.743   1.258   6.710 -0.3250 -1.0639  0.0982
   26DOPE  C316 3345   1.828   1.131   6.554  0.0618  0.5195  0.4319
   26DOPE  H16X 3346   1.772   1.042   6.589  0.8938  0.6520  2.2496
   26DOPE  H16Y 3347   1.929   1.092   6.532 -0.0734  1.3953 -1.9504
   26DOPE  C317 3348   1.756   1.169   6.417 -0.4754 -0.4969  0.2591
   26DOPE  H17X 3349   1.647   1.190   6.425 -0.0543  1.3648  2.0393
   26DOPE  H17Y 3350   1.807   1.262   6.386 -0.1140 -1.3473 -1.8055
   26DOPE  C318 3351   1.790   1.074   6.301  0.2344 -1.1627 -0.1830
   26DOPE  H18X 3352   1.726   0.983   6.305 -2.1450  0.4208 -0.0887
   26DOPE  H18Y 3353   1.759   1.121   6.206 -0.8261  0.7516  1.0505
   26DOPE  H18Z 3354   1.901   1.066   6.299  0.8768  2.7028  3.9651
   27DOPE     N 3355   5.652   3.878   8.908  0.6500  0.0177 -0.2732
   27DOPE   HN1 3356   5.663   3.793   8.968 -2.1865 -0.0928  0.2201
   27DOPE   HN2 3357   5.560   3.916   8.939 -0.9526 -1.1340 -3.1584
   27DOPE   HN3 3358   5.631   3.845   8.811 -0.2725  2.3057 -0.8983
   27DOPE   C12 3359   5.766   3.977   8.921  1.0176  0.5214  0.9067
   27DOPE  H12A 3360   5.846   3.953   8.848  1.2991  0.7225  1.1548
   27DOPE  H12B 3361   5.807   3.972   9.024  4.1726  2.3308 -0.1278
   27DOPE   C11 3362   5.712   4.116   8.897 -0.0586  0.4073  0.7487
   27DOPE  H11A 3363   5.681   4.121   8.790 -1.7498 -0.6467  1.1623
   27DOPE  H11B 3364   5.797   4.187   8.909  0.9782 -0.2921 -1.6627
   27DOPE     P 3365   5.593   4.244   9.085  0.2941 -0.6338 -0.2302
   27DOPE   O13 3366   5.700   4.213   9.184  0.0336  0.6084  0.1233
   27DOPE   O14 3367   5.451   4.248   9.128 -0.1230  0.4188  0.0497
   27DOPE   O11 3368   5.616   4.382   9.020 -0.4980  0.7264 -0.3231
   27DOPE   O12 3369   5.598   4.144   8.971  0.4975 -0.2507  0.0807
   27DOPE    C1 3370   5.519   4.463   8.949  0.3804  0.7356  0.3593
   27DOPE    HA 3371   5.496   4.553   9.010 -0.1420  1.6971 -1.2012
   27DOPE    HB 3372   5.425   4.405   8.937  2.1364 -1.7476 -3.1855
   27DOPE    C2 3373   5.581   4.510   8.809 -0.0464  0.5402 -0.8732
   27DOPE    HS 3374   5.533   4.606   8.781  0.8255  1.2686  0.0132
   27DOPE   O21 3375   5.541   4.415   8.711  0.4814  0.6507 -0.1260
   27DOPE   C21 3376   5.412   4.424   8.675  0.7739  0.3948 -0.1411
   27DOPE   O22 3377   5.338   4.518   8.700  0.6143 -0.3125 -0.3891
   27DOPE   C22 3378   5.378   4.310   8.587  0.1679 -0.5045  0.3383
   27DOPE   H2R 3379   5.271   4.283   8.603 -0.4083  0.2747 -1.8643
   27DOPE   H2S 3380   5.443   4.226   8.621  1.6320 -0.5073 -2.2250
   27DOPE    C3 3381   5.738   4.529   8.803 -0.5721 -0.1591  0.1753
   27DOPE    HX 3382   5.788   4.443   8.853  2.3696 -0.1975 -2.4924
   27DOPE    HY 3383   5.760   4.617   8.867 -1.8911 -0.7420  1.4842
   27DOPE   O31 3384   5.786   4.536   8.666  0.0709 -0.7330 -0.1522
   27DOPE   C31 3385   5.747   4.641   8.596 -0.3420 -0.4690  0.3836
   27DOPE   O32 3386   5.675   4.727   8.632 -0.2874  0.5321  0.4427
   27DOPE   C32 3387   5.795   4.624   8.448  0.1230 -0.1510  0.4449
   27DOPE   H2X 3388   5.895   4.673   8.444  1.4822 -2.8012 -1.5391
   27DOPE   H2Y 3389   5.806   4.515   8.429 -0.9607 -0.0168 -1.1143
   27DOPE   C23 3390   5.408   4.338   8.432 -0.3377 -0.5128  0.2338
   27DOPE   H3R 3391   5.381   4.242   8.382 -0.0841 -1.1585  1.3049
   27DOPE   H3S 3392   5.516   4.357   8.417 -0.9827  1.7510 -2.2810
   27DOPE   C24 3393   5.329   4.454   8.366  0.2304  0.3175 -0.2608
   27DOPE   H4R 3394   5.340   4.548   8.424 -0.3873  0.3233 -0.1437
   27DOPE   H4S 3395   5.224   4.427   8.343  0.0967  1.1745 -0.6993
   27DOPE   C25 3396   5.394   4.485   8.230 -0.9530  0.3330 -1.0349
   27DOPE   H5R 3397   5.502   4.465   8.242 -1.2351 -1.6675 -1.4763
   27DOPE   H5S 3398   5.396   4.594   8.209  0.6629  0.6442  0.5384
   27DOPE   C26 3399   5.343   4.408   8.113 -0.1833  0.0173  0.0060
   27DOPE   H6R 3400   5.237   4.425   8.085 -0.7591 -3.2039 -0.1618
   27DOPE   H6S 3401   5.350   4.299   8.134 -0.3431  0.0207  0.0825
   27DOPE   C27 3402   5.427   4.428   7.986 -0.2427  0.0864  0.0720
   27DOPE   H7R 3403   5.533   4.402   8.004 -0.5172 -0.6040  0.7656
   27DOPE   H7S 3404   5.418   4.538   7.974  0.2731  0.2241  0.8603
   27DOPE   C28 3405   5.379   4.333   7.875  0.6776 -0.4137 -0.3075
   27DOPE   H8R 3406   5.278   4.364   7.843  0.2903 -1.8859 -0.6148
   27DOPE   H8S 3407   5.360   4.232   7.918 -1.1438  0.2633  0.5852
   27DOPE   C29 3408   5.483   4.316   7.762  0.0858 -0.5682  0.0997
   27DOPE   H9R 3409   5.575   4.270   7.798 -1.2504 -1.0489  3.1916
   27DOPE  C210 3410   5.464   4.344   7.632  0.4264  0.1850  0.3628
   27DOPE  H10R 3411   5.544   4.327   7.557  1.2012  0.9093  1.0107
   27DOPE  C211 3412   5.331   4.409   7.584  0.3876  0.0815  0.3719
   27DOPE  H11R 3413   5.350   4.517   7.564 -0.4335  0.1644  0.0184
   27DOPE  H11S 3414   5.250   4.408   7.660  1.7108  1.8341  1.9083
   27DOPE  C212 3415   5.260   4.368   7.459 -0.3634  0.2305  0.8385
   27DOPE  H12R 3416   5.168   4.431   7.455  1.0642  2.5228  2.0754
   27DOPE  H12S 3417   5.230   4.261   7.459 -0.5120  0.2151 -1.4969
   27DOPE  C213 3418   5.351   4.377   7.336  0.6392  0.1146  0.7306
   27DOPE  H13R 3419   5.434   4.302   7.332  1.2111  0.2787  5.1243
   27DOPE  H13S 3420   5.416   4.466   7.352 -0.7126  1.2662 -0.0084
   27DOPE  C214 3421   5.277   4.382   7.202  1.1896  0.3542 -1.1672
   27DOPE  H14R 3422   5.198   4.460   7.192 -0.1846 -0.8608 -0.1529
   27DOPE  H14S 3423   5.222   4.289   7.177  1.1971  0.4047 -1.3759
   27DOPE  C215 3424   5.365   4.411   7.082  0.0806  0.8625  0.1781
   27DOPE  H15R 3425   5.444   4.334   7.066 -0.5197  0.5269 -1.4607
   27DOPE  H15S 3426   5.419   4.506   7.095  0.4717  0.7237 -0.3839
   27DOPE  C216 3427   5.293   4.408   6.949  0.2270  0.4890  0.2911
   27DOPE  H16R 3428   5.215   4.487   6.941 -0.3598 -0.0071  0.9418
   27DOPE  H16S 3429   5.238   4.311   6.942  0.6605  0.3018 -0.5718
   27DOPE  C217 3430   5.381   4.398   6.821 -0.1789 -0.3168 -0.3871
   27DOPE  H17R 3431   5.321   4.372   6.730 -3.3523 -2.2735  2.0432
   27DOPE  H17S 3432   5.463   4.328   6.843  0.9309  0.2079 -2.5164
   27DOPE  C218 3433   5.454   4.526   6.788  0.6366  0.2291  0.2365
   27DOPE  H18R 3434   5.496   4.512   6.687 -0.7973 -4.9688  0.0903
   27DOPE  H18S 3435   5.532   4.551   6.864  0.9052  0.8864 -0.2438
   27DOPE  H18T 3436   5.382   4.610   6.780  0.6296  0.5289  2.5614
   27DOPE   C33 3437   5.691   4.689   8.350 -0.0322 -1.0678  0.0837
   27DOPE   H3X 3438   5.649   4.785   8.389  2.0364  0.6965 -1.7509
   27DOPE   H3Y 3439   5.601   4.625   8.338  0.6649 -1.9384 -0.5843
   27DOPE   C34 3440   5.748   4.724   8.209  0.0704  0.3207 -0.4756
   27DOPE   H4X 3441   5.694   4.813   8.169  0.7559  1.2974  0.6841
   27DOPE   H4Y 3442   5.856   4.747   8.221  0.2539 -0.8484  0.2225
   27DOPE   C35 3443   5.735   4.609   8.103  0.0708  0.5966  0.5645
   27DOPE   H5X 3444   5.626   4.590   8.100  0.5566 -2.4157 -1.5298
   27DOPE   H5Y 3445   5.789   4.526   8.152 -1.0356  0.0168  0.8238
   27DOPE   C36 3446   5.793   4.650   7.964 -0.1499  0.1775 -0.7510
   27DOPE   H6X 3447   5.893   4.696   7.979 -0.4938  1.2127 -1.5000
   27DOPE   H6Y 3448   5.740   4.740   7.928 -0.1407  0.1413 -0.8558
   27DOPE   C37 3449   5.786   4.545   7.863  0.0743 -0.1933  0.2797
   27DOPE   H7X 3450   5.842   4.455   7.895 -2.0267 -1.6430  0.0741
   27DOPE   H7Y 3451   5.683   4.506   7.847 -0.5899  2.1525 -2.0127
   27DOPE   C38 3452   5.836   4.585   7.722  0.6792  0.0232 -0.4339
   27DOPE   H8X 3453   5.859   4.491   7.669  0.1578 -0.0391 -0.5574
   27DOPE   H8Y 3454   5.930   4.644   7.721  1.6686 -1.5150 -1.8135
   27DOPE   C39 3455   5.730   4.669   7.653 -0.4479  0.1031  0.7130
   27DOPE   H9X 3456   5.692   4.749   7.718  0.0308  1.0020 -0.0787
   27DOPE  C310 3457   5.686   4.660   7.523 -0.4665  0.8034 -0.3380
   27DOPE  H10X 3458   5.587   4.707   7.507  0.6384  2.5903 -2.5385
   27DOPE  C311 3459   5.726   4.566   7.411 -0.2490 -0.1970 -0.0273
   27DOPE  H11X 3460   5.793   4.482   7.440 -0.7929 -0.6637 -0.1006
   27DOPE  H11Y 3461   5.628   4.522   7.385 -0.1829  0.2967 -1.1649
   27DOPE  C312 3462   5.785   4.642   7.287 -0.1955  0.9045  0.4396
   27DOPE  H12X 3463   5.889   4.677   7.306  0.4254 -2.0991  3.3292
   27DOPE  H12Y 3464   5.724   4.734   7.272 -1.0644  0.3056  0.2422
   27DOPE  C313 3465   5.796   4.556   7.155 -0.1333  1.1000 -1.2329
   27DOPE  H13X 3466   5.888   4.495   7.163 -1.7545 -1.2791  1.4881
   27DOPE  H13Y 3467   5.711   4.484   7.156  0.4260  0.4287 -1.5718
   27DOPE  C314 3468   5.802   4.647   7.032 -0.5707 -0.3825 -1.1103
   27DOPE  H14X 3469   5.884   4.721   7.042  0.5469 -1.6908 -0.1157
   27DOPE  H14Y 3470   5.703   4.697   7.025 -0.6182 -0.3414 -0.2680
   27DOPE  C315 3471   5.823   4.565   6.905 -0.7032 -0.1379 -0.3419
   27DOPE  H15X 3472   5.754   4.478   6.911  0.8902 -1.4252 -0.1172
   27DOPE  H15Y 3473   5.921   4.514   6.901  0.2277  1.2401  2.5302
   27DOPE  C316 3474   5.798   4.634   6.772  0.1688  0.2443  0.1913
   27DOPE  H16X 3475   5.865   4.722   6.762 -1.5364  1.4719 -0.9103
   27DOPE  H16Y 3476   5.697   4.679   6.776 -0.2186 -0.6761  2.8688
   27DOPE  C317 3477   5.818   4.544   6.653 -0.1625 -0.0350  0.8788
   27DOPE  H17X 3478   5.926   4.520   6.650 -0.1600 -0.0640 -2.5446
   27DOPE  H17Y 3479   5.764   4.447   6.656 -1.5613  0.7222  3.1934
   27DOPE  C318 3480   5.779   4.603   6.522  0.9401  0.1105 -0.3218
   27DOPE  H18X 3481   5.673   4.635   6.533  1.2170  0.5324  1.4569
   27DOPE  H18Y 3482   5.830   4.700   6.500 -0.0852  0.7205 -0.1025
   27DOPE  H18Z 3483   5.793   4.527   6.442  0.4588  0.8234 -1.1054
   28DOPE     N 3484   2.438   3.074   8.562 -0.5774 -0.0926 -0.1801
   28DOPE   HN1 3485   2.454   3.176   8.577  1.9063 -0.4260 -0.0985
   28DOPE   HN2 3486   2.435   3.038   8.660  1.9146  2.7895  1.1349
   28DOPE   HN3 3487   2.521   3.035   8.513 -1.8732  0.5386 -3.0885
   28DOPE   C12 3488   2.314   3.041   8.481 -0.0551 -0.0022 -0.2317
   28DOPE  H12A 3489   2.307   3.121   8.405 -1.1317  1.8993  1.7363
   28DOPE  H12B 3490   2.220   3.034   8.540  0.7741  0.1073  1.1644
   28DOPE   C11 3491   2.337   2.906   8.408 -0.5067 -0.1049  0.1635
   28DOPE  H11A 3492   2.243   2.874   8.357 -0.4642 -1.0044  0.6177
   28DOPE  H11B 3493   2.354   2.826   8.484  1.9874  0.3063  0.1218
   28DOPE     P 3494   2.476   2.796   8.212 -0.2029 -0.2201  0.5875
   28DOPE   O13 3495   2.478   2.669   8.279  0.7297  0.1915  0.6353
   28DOPE   O14 3496   2.594   2.836   8.128 -0.0656 -0.0844  0.0344
   28DOPE   O11 3497   2.349   2.795   8.117 -0.5794  0.6645  1.0407
   28DOPE   O12 3498   2.441   2.910   8.309  0.2771  0.3856  0.5424
   28DOPE    C1 3499   2.295   2.917   8.073  0.1407  0.2523  1.0139
   28DOPE    HA 3500   2.374   2.983   8.032  1.6217 -2.5539 -0.9428
   28DOPE    HB 3501   2.257   2.986   8.152  0.5817  1.0318  0.5521
   28DOPE    C2 3502   2.178   2.894   7.969 -0.2038  0.8631 -0.7091
   28DOPE    HS 3503   2.155   2.992   7.922  0.7156 -0.1119 -3.3536
   28DOPE   O21 3504   2.061   2.820   8.020 -0.8086 -0.2957 -0.5701
   28DOPE   C21 3505   1.996   2.886   8.113 -0.2228  0.4678  1.2616
   28DOPE   O22 3506   2.018   2.996   8.155 -0.0120 -0.3675  0.5369
   28DOPE   C22 3507   1.885   2.792   8.166  0.0741 -0.3702 -0.7283
   28DOPE   H2R 3508   1.896   2.814   8.274 -2.2300  2.8986 -0.9815
   28DOPE   H2S 3509   1.909   2.687   8.141 -1.8611 -1.6363  2.2122
   28DOPE    C3 3510   2.234   2.807   7.852  0.6634  0.0154  0.0149
   28DOPE    HX 3511   2.243   2.704   7.892 -0.8168  0.1727  0.8282
   28DOPE    HY 3512   2.336   2.837   7.822  0.5575 -0.3020 -0.7167
   28DOPE   O31 3513   2.145   2.806   7.739 -0.1372  0.2802 -0.3329
   28DOPE   C31 3514   2.150   2.911   7.665 -0.5813 -0.7007 -0.0140
   28DOPE   O32 3515   2.213   3.013   7.685 -0.0682  0.0711 -0.0136
   28DOPE   C32 3516   2.039   2.899   7.559 -0.0417 -0.2750  0.2178
   28DOPE   H2X 3517   2.052   2.805   7.503  0.4624  0.5726 -1.1433
   28DOPE   H2Y 3518   1.939   2.923   7.600  0.2278  2.2061 -0.3813
   28DOPE   C23 3519   1.743   2.835   8.138  0.6912 -0.1654  0.6713
   28DOPE   H3R 3520   1.722   2.938   8.172  0.9539 -0.2502  1.0948
   28DOPE   H3S 3521   1.671   2.770   8.192 -0.4113 -0.8973 -1.5438
   28DOPE   C24 3522   1.694   2.829   7.988 -0.4484 -0.4154 -0.1173
   28DOPE   H4R 3523   1.758   2.907   7.942  0.1953 -1.6894 -1.4714
   28DOPE   H4S 3524   1.587   2.858   7.989  0.2310  2.3494 -0.0534
   28DOPE   C25 3525   1.714   2.697   7.915 -0.0696  0.5912  0.1143
   28DOPE   H5R 3526   1.676   2.607   7.968 -2.4367  1.5820  0.1841
   28DOPE   H5S 3527   1.824   2.684   7.901  0.0945  3.8143 -3.2949
   28DOPE   C26 3528   1.642   2.693   7.784  0.1092  0.4062 -0.4503
   28DOPE   H6R 3529   1.535   2.717   7.798 -0.0049 -0.5765  0.4924
   28DOPE   H6S 3530   1.638   2.589   7.744 -0.1530 -0.0876  0.8249
   28DOPE   C27 3531   1.702   2.796   7.690  0.7980  0.0713  0.0874
   28DOPE   H7R 3532   1.811   2.776   7.686  0.6107 -0.8475 -0.5814
   28DOPE   H7S 3533   1.693   2.896   7.737 -2.4782  0.3792 -0.9330
   28DOPE   C28 3534   1.631   2.800   7.553 -1.2488 -0.2718 -0.1649
   28DOPE   H8R 3535   1.662   2.895   7.504  0.9966 -1.6202 -1.5385
   28DOPE   H8S 3536   1.522   2.813   7.572 -1.3304 -1.3121  0.1126
   28DOPE   C29 3537   1.661   2.686   7.465 -0.0791  0.2266  0.4774
   28DOPE   H9R 3538   1.713   2.604   7.519  1.1284  0.4572 -0.2921
   28DOPE  C210 3539   1.616   2.661   7.346 -0.1054 -0.7310  0.1063
   28DOPE  H10R 3540   1.652   2.572   7.292 -0.2836 -1.2412  0.8161
   28DOPE  C211 3541   1.533   2.746   7.247 -0.0559  0.1137  0.1028
   28DOPE  H11R 3542   1.596   2.831   7.212  1.0056 -1.2121 -1.3398
   28DOPE  H11S 3543   1.442   2.792   7.293 -0.4495  0.5765 -1.0937
   28DOPE  C212 3544   1.479   2.669   7.121  0.1628  0.5605 -0.1903
   28DOPE  H12R 3545   1.384   2.719   7.094 -0.8443 -1.0470  0.1858
   28DOPE  H12S 3546   1.469   2.560   7.144  1.8286  0.3802 -0.2465
   28DOPE  C213 3547   1.580   2.679   7.015 -0.5941  0.0073  0.0697
   28DOPE  H13R 3548   1.678   2.639   7.049 -0.1178 -0.5844 -1.8882
   28DOPE  H13S 3549   1.577   2.788   6.992 -2.3066 -0.3007 -1.3478
   28DOPE  C214 3550   1.549   2.604   6.883  0.0607 -0.6325 -0.2662
   28DOPE  H14R 3551   1.443   2.573   6.873 -1.2983  3.4279 -0.2990
   28DOPE  H14S 3552   1.604   2.508   6.889 -2.3231 -2.0873 -0.4643
   28DOPE  C215 3553   1.597   2.670   6.757 -0.5977  0.1067 -0.1005
   28DOPE  H15R 3554   1.705   2.695   6.767 -0.8672  1.0857  0.5288
   28DOPE  H15S 3555   1.547   2.768   6.746 -1.0782 -0.3571 -2.5638
   28DOPE  C216 3556   1.595   2.580   6.626  0.0275 -0.1714  0.0389
   28DOPE  H16R 3557   1.498   2.529   6.610  0.8409 -1.7292 -0.0923
   28DOPE  H16S 3558   1.675   2.504   6.639  1.3704  1.3602  1.2571
   28DOPE  C217 3559   1.620   2.669   6.497 -0.2639 -0.4077 -0.5659
   28DOPE  H17R 3560   1.534   2.736   6.477 -0.4458 -1.1766 -2.6716
   28DOPE  H17S 3561   1.613   2.611   6.403 -0.4259 -0.7674 -0.3320
   28DOPE  C218 3562   1.755   2.736   6.506  1.0199  0.5811  0.0456
   28DOPE  H18R 3563   1.830   2.659   6.536  1.5461  1.2563  0.4892
   28DOPE  H18S 3564   1.759   2.815   6.583 -0.9524 -0.1798  1.0060
   28DOPE  H18T 3565   1.791   2.771   6.407  0.6472  0.1605 -0.2456
   28DOPE   C33 3566   2.068   3.012   7.446 -0.5950 -0.1959 -0.3081
   28DOPE   H3X 3567   2.176   2.997   7.423 -0.1138  1.3523  0.7358
   28DOPE   H3Y 3568   2.043   3.113   7.486 -0.2137  0.6508 -2.1156
   28DOPE   C34 3569   1.988   2.977   7.320 -0.1189  0.6386  0.2319
   28DOPE   H4X 3570   2.025   2.875   7.298 -1.1643  0.2997 -0.0146
   28DOPE   H4Y 3571   1.879   2.966   7.342 -1.0679  0.5890 -3.7121
   28DOPE   C35 3572   2.016   3.054   7.195  0.3307  0.1032  0.4331
   28DOPE   H5X 3573   2.125   3.075   7.201  0.6222 -0.9304 -0.8356
   28DOPE   H5Y 3574   1.969   3.154   7.189  2.6759  1.2494 -0.3598
   28DOPE   C36 3575   1.994   2.971   7.077  0.4605  0.4815  0.4472
   28DOPE   H6X 3576   1.893   2.927   7.065 -0.3858  2.8527 -2.6402
   28DOPE   H6Y 3577   2.056   2.879   7.070  0.2679  0.3202  0.8502
   28DOPE   C37 3578   2.016   3.056   6.949 -0.1060  0.8663  0.5611
   28DOPE   H7X 3579   1.974   3.159   6.957 -1.5586  0.3845 -0.6014
   28DOPE   H7Y 3580   2.125   3.072   6.938 -0.1679  0.6769 -0.3313
   28DOPE   C38 3581   1.960   2.995   6.820  0.8796 -0.2733 -0.3411
   28DOPE   H8X 3582   1.979   3.072   6.742  3.0198  0.4010  0.7503
   28DOPE   H8Y 3583   1.852   2.973   6.828  1.4105 -2.8396  0.7645
   28DOPE   C39 3584   2.038   2.871   6.787  0.3394  0.0308 -0.4530
   28DOPE   H9X 3585   1.991   2.777   6.820  0.1871  0.2715  0.0259
   28DOPE  C310 3586   2.123   2.859   6.687 -0.0567  0.3938 -0.0649
   28DOPE  H10X 3587   2.172   2.763   6.667  0.6923  0.4506  1.3735
   28DOPE  C311 3588   2.175   2.971   6.606  0.0928  0.1207  0.2934
   28DOPE  H11X 3589   2.104   2.996   6.525 -1.6793 -0.7277  1.5099
   28DOPE  H11Y 3590   2.190   3.064   6.666 -0.7155  0.3229  0.1852
   28DOPE  C312 3591   2.315   2.939   6.537 -0.1955  0.0765  0.1027
   28DOPE  H12X 3592   2.307   2.847   6.476 -0.9093  0.1094  0.1404
   28DOPE  H12Y 3593   2.397   2.929   6.612  1.0134  0.8104 -1.0634
   28DOPE  C313 3594   2.353   3.047   6.425 -0.4034  0.4763  0.1072
   28DOPE  H13X 3595   2.335   3.147   6.469  2.8744  1.0829  0.3645
   28DOPE  H13Y 3596   2.462   3.039   6.405 -0.2275 -0.7253  1.3317
   28DOPE  C314 3597   2.279   3.026   6.289 -0.1375  0.0245 -0.5980
   28DOPE  H14X 3598   2.170   3.009   6.307 -0.0635 -0.3331 -0.4821
   28DOPE  H14Y 3599   2.319   2.945   6.225 -1.3558  0.1972 -1.6396
   28DOPE  C315 3600   2.283   3.155   6.207  0.1460 -0.6842  0.3019
   28DOPE  H15X 3601   2.379   3.209   6.193 -1.0288  1.2492 -0.7766
   28DOPE  H15Y 3602   2.221   3.224   6.269  0.5523 -0.5253  0.5292
   28DOPE  C316 3603   2.216   3.130   6.073  0.8593  0.2618 -0.2387
   28DOPE  H16X 3604   2.115   3.089   6.095  0.6736  0.9329  0.1833
   28DOPE  H16Y 3605   2.289   3.061   6.026  1.2865  1.3815 -1.2559
   28DOPE  C317 3606   2.199   3.259   5.993 -0.5728 -0.1579 -0.2251
   28DOPE  H17X 3607   2.130   3.324   6.050 -0.4305 -0.9220  0.8580
   28DOPE  H17Y 3608   2.300   3.302   5.980 -0.2501 -1.5164 -2.8877
   28DOPE  C318 3609   2.145   3.228   5.853  0.1251  0.7109 -0.4067
   28DOPE  H18X 3610   2.207   3.153   5.801 -1.0281 -0.6507  0.1207
   28DOPE  H18Y 3611   2.040   3.195   5.858 -0.2423  1.6996 -1.1827
   28DOPE  H18Z 3612   2.136   3.320   5.792 -2.6125  0.7991  0.0093
   29DOPE     N 3613   6.378   4.273   8.875 -0.5168  0.1011  0.3251
   29DOPE   HN1 3614   6.335   4.331   8.800 -0.0003  0.4998  0.3281
   29DOPE   HN2 3615   6.311   4.199   8.904 -0.7455 -0.3440 -1.2442
   29DOPE   HN3 3616   6.398   4.339   8.954  0.4392  1.4821 -1.0077
   29DOPE   C12 3617   6.505   4.192   8.838  0.1293  0.3263 -0.4573
   29DOPE  H12A 3618   6.581   4.267   8.805 -0.5464  1.9389  1.4741
   29DOPE  H12B 3619   6.495   4.125   8.750  0.2040  1.0894 -1.0534
   29DOPE   C11 3620   6.564   4.128   8.966  0.3811 -0.0357 -0.4999
   29DOPE  H11A 3621   6.651   4.063   8.940  1.1325  0.7442  0.0320
   29DOPE  H11B 3622   6.496   4.053   9.013  0.1547  1.5642  1.8857
   29DOPE     P 3623   6.753   4.233   9.106  0.1967  0.5178 -0.2363
   29DOPE   O13 3624   6.832   4.212   8.989 -0.3117 -0.0619  0.1214
   29DOPE   O14 3625   6.770   4.135   9.219 -0.3391 -0.0173 -0.3549
   29DOPE   O11 3626   6.763   4.379   9.161 -0.0500 -0.2904  0.4636
   29DOPE   O12 3627   6.602   4.223   9.057  0.7235 -0.2594  0.0633
   29DOPE    C1 3628   6.700   4.490   9.101  0.4408  0.0887 -0.3173
   29DOPE    HA 3629   6.729   4.587   9.147 -1.3589  0.7394 -0.4437
   29DOPE    HB 3630   6.590   4.474   9.109  0.0749  2.2727 -0.2441
   29DOPE    C2 3631   6.723   4.515   8.958  0.1868 -0.4426 -0.4168
   29DOPE    HS 3632   6.686   4.421   8.910  0.7855 -1.1004  0.3823
   29DOPE   O21 3633   6.858   4.545   8.933  0.3559  0.2253 -0.4229
   29DOPE   C21 3634   6.908   4.509   8.815 -0.4931 -0.0796  0.0222
   29DOPE   O22 3635   6.857   4.431   8.742  0.0341  0.5882 -0.3061
   29DOPE   C22 3636   7.030   4.586   8.781 -0.4192  0.6251 -0.5778
   29DOPE   H2R 3637   7.116   4.518   8.801 -0.9643  0.2020  0.3749
   29DOPE   H2S 3638   7.040   4.682   8.837  1.0585  0.6403 -0.8097
   29DOPE    C3 3639   6.636   4.642   8.916  0.3685 -0.1299 -0.7808
   29DOPE    HX 3640   6.662   4.727   8.983 -2.0821  1.3418 -1.5698
   29DOPE    HY 3641   6.530   4.617   8.936  0.1443  2.3600  1.6071
   29DOPE   O31 3642   6.668   4.691   8.782 -0.0418  0.4975 -0.5641
   29DOPE   C31 3643   6.617   4.622   8.682  0.4537  0.4945  0.4229
   29DOPE   O32 3644   6.542   4.526   8.700  0.2031  0.6443 -0.8225
   29DOPE   C32 3645   6.678   4.657   8.551 -0.5466 -0.1283 -0.6323
   29DOPE   H2X 3646   6.696   4.766   8.566 -0.9490 -0.3460  1.9476
   29DOPE   H2Y 3647   6.774   4.607   8.528 -0.4830 -0.0927 -0.4461
   29DOPE   C23 3648   7.047   4.611   8.630  0.8628  0.1361  0.1056
   29DOPE   H3R 3649   6.969   4.678   8.589  1.0874  0.3098 -0.0370
   29DOPE   H3S 3650   7.024   4.526   8.562 -0.3586  1.0884 -0.7079
   29DOPE   C24 3651   7.187   4.667   8.605  0.3547 -0.5899  0.2672
   29DOPE   H4R 3652   7.254   4.581   8.582 -0.6522 -1.3124 -0.0076
   29DOPE   H4S 3653   7.223   4.730   8.690 -3.1853 -0.2485  1.6687
   29DOPE   C25 3654   7.171   4.754   8.473 -0.1735 -0.2040 -0.2776
   29DOPE   H5R 3655   7.266   4.807   8.451 -1.5670  2.6130 -0.0544
   29DOPE   H5S 3656   7.101   4.839   8.489  0.7024  0.2121  1.6326
   29DOPE   C26 3657   7.124   4.679   8.342  0.1059 -0.2252 -0.4717
   29DOPE   H6R 3658   7.051   4.598   8.360 -0.2812  0.3157  0.4951
   29DOPE   H6S 3659   7.218   4.635   8.303 -0.4241  0.0826 -2.1847
   29DOPE   C27 3660   7.060   4.777   8.243  0.1900 -0.2704  0.3635
   29DOPE   H7R 3661   7.138   4.852   8.222 -0.0028 -0.1507  0.0780
   29DOPE   H7S 3662   6.980   4.839   8.289  0.7785  1.0192 -0.3141
   29DOPE   C28 3663   7.002   4.709   8.118  0.1275  0.5439  0.6622
   29DOPE   H8R 3664   6.938   4.780   8.061 -2.1878 -1.6467  0.3278
   29DOPE   H8S 3665   6.932   4.629   8.153 -0.7443  0.6061 -0.8356
   29DOPE   C29 3666   7.107   4.659   8.017  0.0893 -0.0709 -0.4917
   29DOPE   H9R 3667   7.176   4.583   8.059 -1.9171 -0.5184  2.2695
   29DOPE  C210 3668   7.110   4.690   7.888  0.2652  0.9656  0.0133
   29DOPE  H10R 3669   7.180   4.639   7.821 -1.2844 -1.7408  0.3045
   29DOPE  C211 3670   7.026   4.791   7.813  0.2114 -0.2376  0.5676
   29DOPE  H11R 3671   6.980   4.870   7.875 -1.3054  0.0975 -0.9146
   29DOPE  H11S 3672   6.938   4.742   7.766 -1.2059  2.3705  0.3483
   29DOPE  C212 3673   7.096   4.884   7.712 -0.3171 -0.6853 -0.2783
   29DOPE  H12R 3674   7.181   4.938   7.759  0.1608  0.4090 -2.2764
   29DOPE  H12S 3675   7.029   4.965   7.677 -3.1273 -1.6526  2.4266
   29DOPE  C213 3676   7.135   4.803   7.586 -0.4600 -0.3566  0.2558
   29DOPE  H13R 3677   7.050   4.736   7.563 -1.0433  0.5966 -0.4384
   29DOPE  H13S 3678   7.229   4.751   7.613  0.1840  0.6688  0.0819
   29DOPE  C214 3679   7.148   4.894   7.453 -0.4189  0.3102  0.1353
   29DOPE  H14R 3680   7.229   4.968   7.471 -0.5214  0.0952  1.5890
   29DOPE  H14S 3681   7.053   4.951   7.442 -1.2238 -1.1314 -0.6733
   29DOPE  C215 3682   7.163   4.811   7.324  0.6476 -1.1196 -0.4465
   29DOPE  H15R 3683   7.084   4.733   7.312 -0.4655 -0.1168  0.1037
   29DOPE  H15S 3684   7.251   4.746   7.341 -0.7113 -2.9051  0.0907
   29DOPE  C216 3685   7.179   4.889   7.192 -1.1398  0.1862 -0.2955
   29DOPE  H16R 3686   7.278   4.938   7.199 -0.4085 -1.1289 -1.0821
   29DOPE  H16S 3687   7.092   4.958   7.190 -0.9109  0.5138  0.5223
   29DOPE  C217 3688   7.160   4.823   7.055 -0.5093  0.1214 -0.0420
   29DOPE  H17R 3689   7.068   4.763   7.065  0.2653 -1.0537  0.3089
   29DOPE  H17S 3690   7.244   4.751   7.048 -0.4855  0.2317 -1.0987
   29DOPE  C218 3691   7.169   4.915   6.934  0.7534 -0.1401 -0.2133
   29DOPE  H18R 3692   7.265   4.970   6.943 -0.1372  1.3440  0.5387
   29DOPE  H18S 3693   7.086   4.990   6.934 -0.7038 -1.6742  0.3847
   29DOPE  H18T 3694   7.178   4.862   6.837 -1.1041  0.7082 -0.9011
   29DOPE   C33 3695   6.584   4.627   8.433 -0.3653  0.3507 -0.6653
   29DOPE   H3X 3696   6.474   4.647   8.434 -0.4370  0.2581 -2.4685
   29DOPE   H3Y 3697   6.600   4.520   8.410  2.0831  0.5032  0.0588
   29DOPE   C34 3698   6.632   4.707   8.306  0.8178  0.4532  0.5928
   29DOPE   H4X 3699   6.615   4.816   8.316  1.6741  0.8231 -1.4855
   29DOPE   H4Y 3700   6.743   4.697   8.300  0.6474 -1.6918 -0.0236
   29DOPE   C35 3701   6.569   4.652   8.171 -0.4500  0.6408 -0.7044
   29DOPE   H5X 3702   6.458   4.651   8.161 -0.9017  0.0914  3.1086
   29DOPE   H5Y 3703   6.590   4.543   8.166 -1.8314  0.1759  2.0715
   29DOPE   C36 3704   6.624   4.730   8.048 -0.3279 -0.2831 -0.2315
   29DOPE   H6X 3705   6.731   4.701   8.049  0.2110  1.5310 -1.5898
   29DOPE   H6Y 3706   6.613   4.839   8.065  0.8912 -0.0909 -0.5987
   29DOPE   C37 3707   6.557   4.696   7.919 -0.1351 -0.2540 -0.3760
   29DOPE   H7X 3708   6.450   4.712   7.943 -0.0060 -0.2642  0.2140
   29DOPE   H7Y 3709   6.577   4.781   7.851  0.3526  0.6842  0.9080
   29DOPE   C38 3710   6.591   4.568   7.861  0.0319  0.2023 -0.2621
   29DOPE   H8X 3711   6.583   4.491   7.941  0.7545 -0.6897 -1.0185
   29DOPE   H8Y 3712   6.698   4.564   7.831  0.2813  0.5734  0.5557
   29DOPE   C39 3713   6.494   4.537   7.742 -0.0679 -0.4159 -0.1262
   29DOPE   H9X 3714   6.421   4.456   7.757 -0.8542  0.6284  2.2425
   29DOPE  C310 3715   6.511   4.595   7.619 -0.5838  0.0400 -0.2914
   29DOPE  H10X 3716   6.439   4.574   7.539 -1.5813  1.5838  0.1505
   29DOPE  C311 3717   6.618   4.693   7.580  0.1379  0.0173 -0.3659
   29DOPE  H11X 3718   6.561   4.786   7.559 -1.9963 -0.7573  1.5090
   29DOPE  H11Y 3719   6.692   4.709   7.661  0.6012 -0.8641 -0.6065
   29DOPE  C312 3720   6.703   4.648   7.462  0.1769 -0.2685 -0.7381
   29DOPE  H12X 3721   6.742   4.544   7.468  2.1475  0.4925  1.4998
   29DOPE  H12Y 3722   6.796   4.709   7.458  1.1967 -1.4242  2.1221
   29DOPE  C313 3723   6.620   4.661   7.326  0.0381  0.6908  0.3375
   29DOPE  H13X 3724   6.538   4.586   7.329  1.3914 -0.9695 -1.5918
   29DOPE  H13Y 3725   6.575   4.762   7.314 -0.8755  0.1802 -0.7108
   29DOPE  C314 3726   6.710   4.624   7.205  0.2005 -0.1553 -0.8911
   29DOPE  H14X 3727   6.763   4.532   7.238  1.8080  0.6079 -1.2525
   29DOPE  H14Y 3728   6.793   4.697   7.196  0.5995 -0.1389  2.0284
   29DOPE  C315 3729   6.638   4.608   7.074  0.6910 -0.0061 -0.2823
   29DOPE  H15X 3730   6.592   4.702   7.037 -0.9787 -0.4806  0.4934
   29DOPE  H15Y 3731   6.560   4.530   7.086 -1.3296  1.8850 -0.6178
   29DOPE  C316 3732   6.741   4.570   6.969  0.0022 -0.1021 -0.2695
   29DOPE  H16X 3733   6.774   4.468   7.000  1.0442  0.6593  1.2511
   29DOPE  H16Y 3734   6.832   4.632   6.978 -0.1473  0.8206 -3.7212
   29DOPE  C317 3735   6.684   4.557   6.828 -0.2963  0.6307  0.7243
   29DOPE  H17X 3736   6.600   4.484   6.826  1.6795 -1.7789 -1.6753
   29DOPE  H17Y 3737   6.653   4.658   6.794  1.7761  0.8500 -0.6707
   29DOPE  C318 3738   6.794   4.505   6.730  0.8217  0.1280 -0.7928
   29DOPE  H18X 3739   6.836   4.404   6.746  1.4664  0.3582 -0.9672
   29DOPE  H18Y 3740   6.766   4.510   6.623  1.0028  0.9491 -0.8103
   29DOPE  H18Z 3741   6.873   4.584   6.731 -0.9063  1.9797 -1.9224
   30DOPE     N 3742   0.519   2.707   8.881 -0.4431 -0.5659 -0.3133
   30DOPE   HN1 3743   0.465   2.627   8.920 -2.6052  0.1560 -1.6526
   30DOPE   HN2 3744   0.621   2.690   8.877  0.2908  3.1017 -0.5425
   30DOPE   HN3 3745   0.514   2.789   8.945 -2.3337 -0.0229 -1.0905
   30DOPE   C12 3746   0.457   2.751   8.755 -0.2466 -0.1799  0.4007
   30DOPE  H12A 3747   0.428   2.666   8.688 -1.4069  0.1491  0.4598
   30DOPE  H12B 3748   0.526   2.821   8.704 -0.9587  0.5653  0.4376
   30DOPE   C11 3749   0.325   2.818   8.796  0.7371  0.5950  0.1425
   30DOPE  H11A 3750   0.263   2.740   8.846 -0.7575  0.9338 -1.1039
   30DOPE  H11B 3751   0.269   2.852   8.706  0.2602 -0.8861 -0.1439
   30DOPE     P 3752   0.330   3.079   8.840 -0.6081 -0.4502 -0.1276
   30DOPE   O13 3753   0.389   3.174   8.938 -0.5768 -0.6295  0.5809
   30DOPE   O14 3754   0.184   3.092   8.812  0.0656 -0.4569 -0.3859
   30DOPE   O11 3755   0.402   3.087   8.702 -0.0409 -0.7201 -0.0979
   30DOPE   O12 3756   0.360   2.925   8.883 -0.0060  0.3554  0.0108
   30DOPE    C1 3757   0.490   3.189   8.662 -0.1291 -0.1947 -0.2435
   30DOPE    HA 3758   0.590   3.146   8.685 -0.6758 -1.7453 -0.6370
   30DOPE    HB 3759   0.480   3.283   8.721  1.6210 -0.4113  0.4568
   30DOPE    C2 3760   0.462   3.222   8.517  0.1462  0.2327 -0.2364
   30DOPE    HS 3761   0.540   3.289   8.474  1.5285 -1.1212  0.0675
   30DOPE   O21 3762   0.327   3.273   8.503 -0.0851 -0.4074  0.2144
   30DOPE   C21 3763   0.310   3.398   8.530 -0.4876 -0.3364  0.5140
   30DOPE   O22 3764   0.401   3.482   8.554 -0.2107  0.7160  0.1058
   30DOPE   C22 3765   0.155   3.430   8.526 -0.1518  0.0790  0.0755
   30DOPE   H2R 3766   0.106   3.404   8.622 -3.4751  2.0759 -0.9142
   30DOPE   H2S 3767   0.101   3.365   8.454 -3.2129  1.1467  1.2597
   30DOPE    C3 3768   0.479   3.091   8.436  0.4490  0.5248  0.2458
   30DOPE    HX 3769   0.410   3.016   8.481  0.3760 -0.2995 -1.1719
   30DOPE    HY 3770   0.581   3.054   8.459  0.2281  0.2055  0.7292
   30DOPE   O31 3771   0.450   3.114   8.299 -0.4124  0.1451 -0.1987
   30DOPE   C31 3772   0.318   3.135   8.266 -0.1817  0.3495  0.0119
   30DOPE   O32 3773   0.219   3.095   8.326  0.3546  0.2367  0.5985
   30DOPE   C32 3774   0.314   3.203   8.126  0.5637 -0.0595 -0.0517
   30DOPE   H2X 3775   0.324   3.310   8.154  3.3728 -0.1228 -0.4594
   30DOPE   H2Y 3776   0.409   3.184   8.071  1.7099 -2.9812  2.6117
   30DOPE   C23 3777   0.139   3.583   8.507  0.2952 -0.0069 -0.3003
   30DOPE   H3R 3778   0.190   3.648   8.581 -3.0027  0.5209  1.7442
   30DOPE   H3S 3779   0.033   3.604   8.536  0.6987  0.9940  0.5024
   30DOPE   C24 3780   0.170   3.636   8.371  0.5525 -0.4358  0.0722
   30DOPE   H4R 3781   0.278   3.628   8.345 -0.1431  0.4751 -3.7952
   30DOPE   H4S 3782   0.150   3.745   8.361 -0.1863 -0.5102  0.6688
   30DOPE   C25 3783   0.085   3.573   8.259 -0.7895  0.2985  0.0421
   30DOPE   H5R 3784  -0.023   3.592   8.277 -2.0900 -3.5329 -2.5907
   30DOPE   H5S 3785   0.093   3.463   8.253  0.4034  0.4449 -1.7325
   30DOPE   C26 3786   0.133   3.623   8.127 -0.7492  0.4478 -0.4736
   30DOPE   H6R 3787   0.210   3.556   8.083 -0.1322 -0.1249  1.3888
   30DOPE   H6S 3788   0.184   3.722   8.129  0.5158 -0.1415 -1.7857
   30DOPE   C27 3789   0.018   3.616   8.032 -0.1995  0.9153  0.7468
   30DOPE   H7R 3790  -0.064   3.678   8.074 -1.2055  0.8631 -1.0259
   30DOPE   H7S 3791  -0.028   3.516   8.017  0.9484  0.5400 -0.4999
   30DOPE   C28 3792   0.046   3.675   7.893 -0.2382 -0.2309  0.7794
   30DOPE   H8R 3793   0.146   3.638   7.861 -0.6734 -1.2560  0.5683
   30DOPE   H8S 3794   0.063   3.785   7.900  0.8011 -0.2116 -1.2121
   30DOPE   C29 3795  -0.067   3.650   7.785 -0.4728  0.9796 -0.4316
   30DOPE   H9R 3796  -0.164   3.610   7.819  0.8563 -1.8094  0.3387
   30DOPE  C210 3797  -0.051   3.655   7.651 -0.3584 -0.3582  0.5688
   30DOPE  H10R 3798  -0.139   3.654   7.584 -0.2236  0.4130  0.3721
   30DOPE  C211 3799   0.078   3.695   7.584 -0.4637 -0.3752  0.4228
   30DOPE  H11R 3800   0.135   3.601   7.567  0.6010  0.2640  0.3774
   30DOPE  H11S 3801   0.144   3.752   7.652  1.4080 -2.0001  0.0755
   30DOPE  C212 3802   0.068   3.772   7.455  0.1079  0.4784  0.1612
   30DOPE  H12R 3803   0.168   3.794   7.413  0.8421 -2.2611  0.2343
   30DOPE  H12S 3804   0.012   3.867   7.468 -0.7319 -0.2075  1.8613
   30DOPE  C213 3805  -0.002   3.693   7.340  0.7271 -0.7384 -0.0468
   30DOPE  H13R 3806  -0.103   3.667   7.377  1.3640 -0.5606  1.9823
   30DOPE  H13S 3807   0.049   3.597   7.316 -1.8211 -2.2381  0.2163
   30DOPE  C214 3808  -0.011   3.781   7.214 -0.4197  0.5951 -0.7901
   30DOPE  H14R 3809   0.088   3.828   7.195 -0.1508 -0.1837 -1.3562
   30DOPE  H14S 3810  -0.076   3.869   7.231  0.8466  1.2019  1.3439
   30DOPE  C215 3811  -0.066   3.696   7.093 -0.6272  0.4991 -0.4319
   30DOPE  H15R 3812  -0.145   3.630   7.135 -0.4719  0.7047  0.1999
   30DOPE  H15S 3813   0.015   3.628   7.060  0.0795  1.5620 -0.9359
   30DOPE  C216 3814  -0.111   3.783   6.975 -0.3158  0.9355  0.0151
   30DOPE  H16R 3815  -0.016   3.827   6.936  0.6729 -2.0137 -1.2632
   30DOPE  H16S 3816  -0.189   3.855   7.007 -0.4156 -0.3317  2.9333
   30DOPE  C217 3817  -0.183   3.690   6.869  0.3133  0.1035  0.0276
   30DOPE  H17R 3818  -0.276   3.651   6.916  0.0671 -1.2341 -1.4731
   30DOPE  H17S 3819  -0.115   3.604   6.850  1.5122  0.4864  2.2622
   30DOPE  C218 3820  -0.213   3.774   6.737 -0.9582  0.0688  0.0469
   30DOPE  H18R 3821  -0.231   3.718   6.643 -0.8596 -1.7788  1.0826
   30DOPE  H18S 3822  -0.135   3.849   6.711  0.1222 -0.3404  1.9092
   30DOPE  H18T 3823  -0.314   3.819   6.748 -0.8831  0.4899 -0.9367
   30DOPE   C33 3824   0.185   3.181   8.047  0.5498 -0.1335  0.1373
   30DOPE   H3X 3825   0.106   3.215   8.117  1.1305  0.4896  0.5042
   30DOPE   H3Y 3826   0.167   3.080   8.005  0.0357 -0.4695  1.1375
   30DOPE   C34 3827   0.189   3.264   7.921  0.0032  0.0637  0.8110
   30DOPE   H4X 3828   0.197   3.371   7.949 -0.2619  0.2534  0.1667
   30DOPE   H4Y 3829   0.280   3.232   7.866 -0.6569 -2.5005  1.0709
   30DOPE   C35 3830   0.061   3.242   7.827 -0.5227  0.0692  0.3925
   30DOPE   H5X 3831  -0.019   3.285   7.892  1.3510  0.9578  2.2340
   30DOPE   H5Y 3832   0.043   3.133   7.816 -0.6137  0.3296 -3.3272
   30DOPE   C36 3833   0.078   3.302   7.689 -0.5541  0.4178 -0.4509
   30DOPE   H6X 3834   0.112   3.406   7.707  2.5621 -0.7582  1.1704
   30DOPE   H6Y 3835  -0.026   3.301   7.651  0.0506 -0.2937 -2.1798
   30DOPE   C37 3836   0.164   3.220   7.588  0.0194 -0.0293  0.0127
   30DOPE   H7X 3837   0.261   3.195   7.636 -0.2650  0.3279  0.7880
   30DOPE   H7Y 3838   0.120   3.118   7.574 -1.4267  0.5139  0.3779
   30DOPE   C38 3839   0.192   3.285   7.456  0.2141  0.1066  0.6415
   30DOPE   H8X 3840   0.244   3.208   7.394  0.3299  0.3435  0.4425
   30DOPE   H8Y 3841   0.258   3.371   7.480  1.5315 -0.7360  0.2068
   30DOPE   C39 3842   0.057   3.325   7.391 -0.2280 -0.0260  0.4513
   30DOPE   H9X 3843   0.000   3.393   7.457 -2.1081 -3.3519  2.5268
   30DOPE  C310 3844   0.007   3.280   7.274  0.1430  0.2518  0.2683
   30DOPE  H10X 3845  -0.090   3.318   7.237 -0.4140  0.4606  1.8610
   30DOPE  C311 3846   0.068   3.176   7.179 -0.1165 -0.1110 -0.2871
   30DOPE  H11X 3847   0.172   3.147   7.205 -0.3751 -0.1435  0.7479
   30DOPE  H11Y 3848   0.008   3.084   7.194 -1.4812  0.7247 -0.4979
   30DOPE  C312 3849   0.079   3.233   7.041  0.3838 -0.2479  0.2142
   30DOPE  H12X 3850   0.150   3.168   6.985 -0.1763 -1.7325  1.1502
   30DOPE  H12Y 3851   0.118   3.337   7.041 -0.7167  0.1925  1.7645
   30DOPE  C313 3852  -0.058   3.221   6.969 -0.1035 -0.0589  0.3359
   30DOPE  H13X 3853  -0.087   3.114   6.978 -1.0197  0.2116  0.6672
   30DOPE  H13Y 3854  -0.128   3.288   7.022  1.6669  0.7615  1.7432
   30DOPE  C314 3855  -0.058   3.256   6.822 -0.3757 -0.3789 -0.4657
   30DOPE  H14X 3856   0.015   3.187   6.775 -0.9551  0.2224 -2.3434
   30DOPE  H14Y 3857  -0.014   3.357   6.808 -2.1714  0.3116 -1.4846
   30DOPE  C315 3858  -0.198   3.240   6.762  0.7347  0.3516  0.2334
   30DOPE  H15X 3859  -0.269   3.309   6.812 -0.7053 -1.2694  0.5366
   30DOPE  H15Y 3860  -0.227   3.136   6.789  2.0152  0.0550  0.5422
   30DOPE  C316 3861  -0.207   3.263   6.608  0.9642  0.3291  0.5394
   30DOPE  H16X 3862  -0.313   3.249   6.577  1.4466  0.2779 -1.1690
   30DOPE  H16Y 3863  -0.152   3.170   6.580 -0.9846 -1.0736  1.0861
   30DOPE  C317 3864  -0.145   3.395   6.565 -0.2875  0.3319 -0.0992
   30DOPE  H17X 3865  -0.187   3.469   6.636  0.9960 -1.0518  2.2269
   30DOPE  H17Y 3866  -0.036   3.390   6.587 -0.2702 -1.1173 -0.3875
   30DOPE  C318 3867  -0.169   3.426   6.420  0.5476  0.4355  0.4520
   30DOPE  H18X 3868  -0.131   3.528   6.396 -0.7036  0.7392 -0.3394
   30DOPE  H18Y 3869  -0.107   3.358   6.357 -0.0054 -0.6018  1.0042
   30DOPE  H18Z 3870  -0.275   3.415   6.389  1.4229 -3.8858 -1.8021
   31DOPE     N 3871   1.256   5.950   4.138 -0.5049  0.1052 -0.2922
   31DOPE   HN1 3872   1.280   6.024   4.208 -0.9942  0.2076 -0.2309
   31DOPE   HN2 3873   1.166   5.905   4.162 -0.5521 -1.3026 -2.8152
   31DOPE   HN3 3874   1.323   5.870   4.142 -0.9448 -0.2289  1.0561
   31DOPE   C12 3875   1.256   6.028   4.007 -0.1088 -0.2103  0.0663
   31DOPE  H12A 3876   1.186   6.112   4.026 -1.7875 -1.6741  0.6448
   31DOPE  H12B 3877   1.216   5.959   3.930  0.9331 -1.5617  0.6799
   31DOPE   C11 3878   1.402   6.085   3.980  0.3647  0.3805 -0.1596
   31DOPE  H11A 3879   1.395   6.156   3.895 -2.6464 -0.7041 -0.9555
   31DOPE  H11B 3880   1.464   5.996   3.955  0.6817  0.3013  0.8651
   31DOPE     P 3881   1.606   6.203   4.085 -0.4987  0.3404 -0.1485
   31DOPE   O13 3882   1.607   6.346   4.114 -0.3191  0.2107 -0.2322
   31DOPE   O14 3883   1.668   6.163   3.960 -0.1710  0.8223  0.1926
   31DOPE   O11 3884   1.688   6.128   4.205  0.2947  0.2467 -0.5985
   31DOPE   O12 3885   1.460   6.154   4.095 -0.4157 -0.3423  0.0528
   31DOPE    C1 3886   1.609   6.139   4.329 -0.6157  0.3006  0.2251
   31DOPE    HA 3887   1.514   6.081   4.327 -0.9767  0.8281  1.2670
   31DOPE    HB 3888   1.586   6.245   4.351  0.2530  0.3066  1.1635
   31DOPE    C2 3889   1.688   6.076   4.446  0.3136  0.0988  0.2099
   31DOPE    HS 3890   1.619   6.050   4.529  2.2877 -0.1343  1.8790
   31DOPE   O21 3891   1.800   6.156   4.472  0.5892 -0.4832  0.1200
   31DOPE   C21 3892   1.783   6.246   4.571  0.1184 -0.4343  0.0085
   31DOPE   O22 3893   1.685   6.255   4.643 -0.2321  0.6002  0.6888
   31DOPE   C22 3894   1.923   6.313   4.603 -0.0687  0.2340 -0.8285
   31DOPE   H2R 3895   1.907   6.419   4.630 -0.3605  0.1218 -0.5444
   31DOPE   H2S 3896   1.988   6.309   4.513  1.2052  1.6556 -0.0163
   31DOPE    C3 3897   1.740   5.935   4.404  0.3246  0.0309  0.0813
   31DOPE    HX 3898   1.827   5.938   4.334  0.5972 -1.3966  0.3246
   31DOPE    HY 3899   1.659   5.887   4.346  1.5807 -2.4150  0.2241
   31DOPE   O31 3900   1.764   5.847   4.517 -0.1386 -0.6984 -0.0274
   31DOPE   C31 3901   1.893   5.852   4.557 -0.3741 -0.8726  0.5745
   31DOPE   O32 3902   1.979   5.927   4.506 -0.0653  0.1564  0.3340
   31DOPE   C32 3903   1.921   5.761   4.676 -0.4303  0.8889 -0.0486
   31DOPE   H2X 3904   1.875   5.661   4.658  0.2415  0.6432 -0.4409
   31DOPE   H2Y 3905   2.031   5.766   4.696 -0.0547 -2.2793 -0.8060
   31DOPE   C23 3906   2.004   6.251   4.715  0.2154  0.7339  0.7104
   31DOPE   H3R 3907   2.109   6.287   4.715  0.2101  0.7667  1.8012
   31DOPE   H3S 3908   1.992   6.141   4.704 -1.7954  0.8264  1.5313
   31DOPE   C24 3909   1.942   6.268   4.854  0.1821  0.2146  0.8076
   31DOPE   H4R 3910   1.833   6.251   4.858  0.2568  0.0062  2.6646
   31DOPE   H4S 3911   1.957   6.377   4.870 -1.4389  0.6518 -0.3845
   31DOPE   C25 3912   2.008   6.183   4.968  0.4403  0.1802 -0.4400
   31DOPE   H5R 3913   2.109   6.226   4.982  0.7257 -0.7941  0.6672
   31DOPE   H5S 3914   2.016   6.075   4.944  0.6953  0.0980 -0.0004
   31DOPE   C26 3915   1.931   6.192   5.108 -0.5962  0.4900  0.0502
   31DOPE   H6R 3916   1.828   6.153   5.096 -0.5770  0.9175 -1.6553
   31DOPE   H6S 3917   1.922   6.298   5.139  0.5972  0.7560 -0.4516
   31DOPE   C27 3918   1.997   6.100   5.214  0.1093  0.1356 -0.2807
   31DOPE   H7R 3919   2.094   6.147   5.242 -0.3994  1.0097  0.0439
   31DOPE   H7S 3920   2.015   6.001   5.165  1.2212 -0.5695  1.4201
   31DOPE   C28 3921   1.905   6.055   5.330 -0.7765 -0.0454  0.1497
   31DOPE   H8R 3922   1.835   5.972   5.306  2.0875 -2.9216  1.0154
   31DOPE   H8S 3923   1.840   6.141   5.357  1.3204  1.1782  1.5316
   31DOPE   C29 3924   1.983   6.014   5.444 -0.4586  0.3447  0.6830
   31DOPE   H9R 3925   2.042   5.921   5.437  2.5207  2.1448  0.3341
   31DOPE  C210 3926   2.015   6.080   5.557 -0.0466  0.1170 -0.3811
   31DOPE  H10R 3927   2.093   6.033   5.619  1.3930  3.2108  0.3643
   31DOPE  C211 3928   1.972   6.215   5.612  1.1351  0.4432  0.0269
   31DOPE  H11R 3929   1.890   6.249   5.546  0.7745  0.0401  0.2650
   31DOPE  H11S 3930   2.056   6.287   5.621 -0.4134  2.4264 -0.7114
   31DOPE  C212 3931   1.904   6.201   5.747 -0.2777  0.2837 -0.2368
   31DOPE  H12R 3932   1.824   6.124   5.757 -0.5906  0.8048  1.8033
   31DOPE  H12S 3933   1.864   6.300   5.778  0.5971  0.2003  1.2200
   31DOPE  C213 3934   2.007   6.158   5.862  0.2223  0.4939 -0.2999
   31DOPE  H13R 3935   2.098   6.222   5.855  1.3197 -1.0820 -1.0694
   31DOPE  H13S 3936   2.034   6.051   5.854  0.3434  0.5258 -0.3204
   31DOPE  C214 3937   1.932   6.177   5.994  0.6014  0.3119 -0.1624
   31DOPE  H14R 3938   1.828   6.140   5.979 -0.5936  3.2301  0.3295
   31DOPE  H14S 3939   1.923   6.286   6.009  2.3393  0.2943  1.3701
   31DOPE  C215 3940   2.001   6.148   6.127  0.6342 -0.9648  0.6154
   31DOPE  H15R 3941   1.936   6.178   6.211  1.5710 -2.0109  1.7557
   31DOPE  H15S 3942   2.090   6.215   6.131 -2.1437  3.0004  1.1790
   31DOPE  C216 3943   2.051   5.996   6.154 -0.0705 -0.0113 -0.6856
   31DOPE  H16R 3944   2.147   5.987   6.098  0.7815 -2.1952  0.9859
   31DOPE  H16S 3945   1.980   5.928   6.102 -0.2433  0.8533 -1.6158
   31DOPE  C217 3946   2.054   5.978   6.307  0.4989  0.3359 -0.9897
   31DOPE  H17R 3947   2.095   5.879   6.335 -0.4310  0.8249  2.5608
   31DOPE  H17S 3948   1.944   5.982   6.323  0.7936 -2.2643  2.7478
   31DOPE  C218 3949   2.126   6.086   6.389 -0.2191  0.4980 -0.3079
   31DOPE  H18R 3950   2.234   6.085   6.364  0.2397  3.0240  1.2513
   31DOPE  H18S 3951   2.096   6.082   6.496 -0.6983  0.2117 -0.4462
   31DOPE  H18T 3952   2.097   6.189   6.358 -1.0498  0.4887  0.3853
   31DOPE   C33 3953   1.857   5.828   4.800  0.2677  0.5500  0.1336
   31DOPE   H3X 3954   1.749   5.805   4.810  0.5548 -0.4829  1.0508
   31DOPE   H3Y 3955   1.870   5.938   4.795 -0.9785  0.6854 -0.4397
   31DOPE   C34 3956   1.930   5.791   4.933 -0.2594 -0.1323 -0.1632
   31DOPE   H4X 3957   2.040   5.785   4.919  0.0086  3.1217 -0.2041
   31DOPE   H4Y 3958   1.909   5.880   4.995  0.5101  0.4989 -0.7833
   31DOPE   C35 3959   1.883   5.656   4.987 -0.1285  0.2402 -0.0664
   31DOPE   H5X 3960   1.883   5.575   4.911  1.5536  1.8784 -1.9357
   31DOPE   H5Y 3961   1.774   5.673   4.993 -0.2955 -0.7133 -0.1428
   31DOPE   C36 3962   1.948   5.613   5.125 -0.0748  0.0942  1.0334
   31DOPE   H6X 3963   2.058   5.599   5.121  0.1996  2.1401 -0.2247
   31DOPE   H6Y 3964   1.905   5.513   5.147  1.3695 -1.2602 -1.7938
   31DOPE   C37 3965   1.915   5.716   5.233  0.2534  0.2662  0.1858
   31DOPE   H7X 3966   1.972   5.811   5.225 -0.1570  0.5196  0.2091
   31DOPE   H7Y 3967   1.809   5.749   5.224  0.2595  0.9379  2.1126
   31DOPE   C38 3968   1.926   5.666   5.376  0.0804  0.0017  0.0642
   31DOPE   H8X 3969   1.893   5.559   5.376 -2.5531  0.7125 -1.4468
   31DOPE   H8Y 3970   1.859   5.719   5.448  1.4539  0.9592  0.6656
   31DOPE   C39 3971   2.067   5.669   5.426 -0.1081  0.1671 -0.2261
   31DOPE   H9X 3972   2.150   5.652   5.356 -1.9462  0.8938 -2.7090
   31DOPE  C310 3973   2.090   5.688   5.559  0.3455 -0.0367 -0.3549
   31DOPE  H10X 3974   2.191   5.678   5.602 -0.1254 -1.9570  0.4118
   31DOPE  C311 3975   1.990   5.721   5.667  0.1046  0.9226  0.0330
   31DOPE  H11X 3976   2.014   5.828   5.683  1.8786  0.4986  0.4737
   31DOPE  H11Y 3977   1.888   5.705   5.626  1.5608 -1.2130 -3.2712
   31DOPE  C312 3978   2.022   5.642   5.798  0.0258 -0.2376 -0.8766
   31DOPE  H12X 3979   2.131   5.652   5.816  0.3077 -1.5551 -1.7340
   31DOPE  H12Y 3980   1.999   5.533   5.795 -1.2791 -0.0645  0.9976
   31DOPE  C313 3981   1.950   5.697   5.925 -0.1941 -0.0742  1.3712
   31DOPE  H13X 3982   1.975   5.805   5.939  2.2605 -0.5205  0.9056
   31DOPE  H13Y 3983   1.842   5.687   5.902 -0.1564 -0.3719  1.3189
   31DOPE  C314 3984   1.992   5.631   6.056  0.2239  0.1781  0.1227
   31DOPE  H14X 3985   2.088   5.674   6.093  0.9593 -0.5270 -0.9178
   31DOPE  H14Y 3986   2.003   5.523   6.032  1.5146 -0.1746  2.0653
   31DOPE  C315 3987   1.881   5.636   6.159  0.3661 -0.6970  0.0360
   31DOPE  H15X 3988   1.781   5.596   6.132 -0.1490 -0.0032  0.8543
   31DOPE  H15Y 3989   1.848   5.741   6.170  1.3079 -0.4169  0.2985
   31DOPE  C316 3990   1.940   5.593   6.299 -0.0130 -0.5468 -0.4154
   31DOPE  H16X 3991   2.036   5.646   6.319  0.9409 -1.6175 -1.9282
   31DOPE  H16Y 3992   1.956   5.484   6.290 -2.4606 -1.1758  1.5846
   31DOPE  C317 3993   1.846   5.618   6.418 -0.4373 -0.1514 -0.7187
   31DOPE  H17X 3994   1.896   5.594   6.515 -0.4184 -0.2541 -0.7529
   31DOPE  H17Y 3995   1.813   5.724   6.416  0.0232 -0.0103 -0.9541
   31DOPE  C318 3996   1.723   5.528   6.418 -0.0165 -0.7703 -0.5362
   31DOPE  H18X 3997   1.694   5.529   6.311  3.6187 -1.3297 -1.6796
   31DOPE  H18Y 3998   1.769   5.430   6.444  0.2516 -0.1747  1.3473
   31DOPE  H18Z 3999   1.643   5.567   6.484  0.6889  1.4885 -0.9377
   32DOPE     N 4000   4.160   0.295   3.844  0.1805  0.4311  0.2516
   32DOPE   HN1 4001   4.261   0.309   3.824  0.0941  0.6941 -0.0049
   32DOPE   HN2 4002   4.100   0.323   3.764 -0.9434  0.4992  1.0905
   32DOPE   HN3 4003   4.132   0.356   3.924  2.1068  0.8092  0.6897
   32DOPE   C12 4004   4.131   0.157   3.897  0.6805 -0.0337  0.7294
   32DOPE  H12A 4005   4.170   0.091   3.817  0.3200  0.8825 -0.2233
   32DOPE  H12B 4006   4.021   0.150   3.913  0.4969  1.6602  0.4030
   32DOPE   C11 4007   4.211   0.122   4.027  0.5677  0.3250 -0.5623
   32DOPE  H11A 4008   4.212   0.014   4.052  0.7184  1.0916  3.3419
   32DOPE  H11B 4009   4.155   0.165   4.112 -1.5582 -2.0611 -0.6463
   32DOPE     P 4010   4.424   0.258   4.101  0.1572  0.4022  0.1586
   32DOPE   O13 4011   4.329   0.350   4.174 -0.6224  0.2260  0.4431
   32DOPE   O14 4012   4.535   0.325   4.032 -0.2544  0.4059  0.6446
   32DOPE   O11 4013   4.488   0.157   4.209  0.3656  0.3435  0.5218
   32DOPE   O12 4014   4.346   0.160   4.004 -0.4029  0.0095  0.3616
   32DOPE    C1 4015   4.408   0.083   4.303  0.1305 -0.9562  0.0647
   32DOPE    HA 4016   4.466  -0.003   4.342  3.4733  1.1734  0.2461
   32DOPE    HB 4017   4.311   0.051   4.259  0.1185 -2.7634  1.2857
   32DOPE    C2 4018   4.384   0.163   4.437 -0.6124 -0.0781  0.7658
   32DOPE    HS 4019   4.320   0.249   4.407 -1.3371  0.0327  2.5343
   32DOPE   O21 4020   4.511   0.195   4.485 -0.0078 -0.1960  0.6671
   32DOPE   C21 4021   4.522   0.314   4.534 -0.0968 -0.2668 -0.7492
   32DOPE   O22 4022   4.438   0.406   4.537  0.1152 -0.4281  0.0915
   32DOPE   C22 4023   4.661   0.312   4.599  0.6612 -0.4122 -0.1185
   32DOPE   H2R 4024   4.711   0.409   4.583  1.2387 -0.8170 -0.8432
   32DOPE   H2S 4025   4.721   0.227   4.560  3.1740  1.8297 -1.4452
   32DOPE    C3 4026   4.306   0.077   4.530 -0.1679 -0.4209 -0.1751
   32DOPE    HX 4027   4.356  -0.021   4.545  0.2180 -0.3760 -1.1084
   32DOPE    HY 4028   4.206   0.057   4.487 -0.7151  3.2203 -0.9261
   32DOPE   O31 4029   4.309   0.133   4.665 -0.1704  0.3950  0.2102
   32DOPE   C31 4030   4.215   0.220   4.687 -0.6170  0.0148 -0.0112
   32DOPE   O32 4031   4.112   0.234   4.624  0.3720  0.4210 -0.5202
   32DOPE   C32 4032   4.254   0.311   4.801  0.2469  0.3667  0.4155
   32DOPE   H2X 4033   4.278   0.245   4.888 -0.4300  0.0950  0.4071
   32DOPE   H2Y 4034   4.343   0.372   4.778  1.4124 -1.0614  0.9567
   32DOPE   C23 4035   4.650   0.290   4.751  0.9378  0.0206  0.2787
   32DOPE   H3R 4036   4.748   0.254   4.790  1.3629 -0.3739 -1.0797
   32DOPE   H3S 4037   4.575   0.216   4.786 -0.6114  1.6348  0.5110
   32DOPE   C24 4038   4.644   0.424   4.822  0.5259 -0.0988 -0.2290
   32DOPE   H4R 4039   4.569   0.491   4.774  2.4226 -0.0474 -3.4114
   32DOPE   H4S 4040   4.740   0.480   4.815 -0.3153  1.3935 -0.3242
   32DOPE   C25 4041   4.607   0.416   4.969  0.7259  0.2420 -0.3396
   32DOPE   H5R 4042   4.683   0.352   5.018  0.7246  0.8337  0.4559
   32DOPE   H5S 4043   4.509   0.364   4.980  0.6972  0.4539  0.4773
   32DOPE   C26 4044   4.600   0.557   5.028  0.0651  0.2838  0.0017
   32DOPE   H6R 4045   4.573   0.630   4.948  0.3700  0.1777 -0.2029
   32DOPE   H6S 4046   4.706   0.590   5.039  0.0036  1.3436 -1.9505
   32DOPE   C27 4047   4.512   0.571   5.152 -0.2140 -0.3727 -0.1564
   32DOPE   H7R 4048   4.404   0.559   5.126 -0.3961 -2.9270  1.4917
   32DOPE   H7S 4049   4.527   0.677   5.180 -0.5733 -0.3983  0.1340
   32DOPE   C28 4050   4.542   0.475   5.268  0.3535 -0.0559 -0.1692
   32DOPE   H8R 4051   4.504   0.374   5.240 -1.8902  0.8182 -0.5307
   32DOPE   H8S 4052   4.478   0.523   5.346 -0.5245  1.9790 -2.0251
   32DOPE   C29 4053   4.690   0.472   5.309 -0.5403  0.4617 -0.7922
   32DOPE   H9R 4054   4.759   0.485   5.225 -0.5882 -3.1933 -1.5377
   32DOPE  C210 4055   4.741   0.453   5.432 -0.3854  0.4723  0.2975
   32DOPE  H10R 4056   4.849   0.438   5.450 -0.7796 -0.2870  2.2500
   32DOPE  C211 4057   4.652   0.425   5.553 -0.0978  0.2914  0.4620
   32DOPE  H11R 4058   4.647   0.316   5.576 -0.4752  0.3231  0.5313
   32DOPE  H11S 4059   4.549   0.458   5.528 -0.2200 -0.2473  0.2254
   32DOPE  C212 4060   4.704   0.503   5.675  0.1930 -0.3254  0.0606
   32DOPE  H12R 4061   4.694   0.609   5.646  0.9313  0.0405  1.0816
   32DOPE  H12S 4062   4.810   0.475   5.695 -0.1179 -1.2919  0.4066
   32DOPE  C213 4063   4.622   0.485   5.798 -0.0600  0.3525  0.1409
   32DOPE  H13R 4064   4.514   0.471   5.781 -0.0701  0.7546 -0.1227
   32DOPE  H13S 4065   4.628   0.582   5.851 -0.2222  1.4299 -1.7529
   32DOPE  C214 4066   4.681   0.369   5.876  0.0740  0.2126 -0.3627
   32DOPE  H14R 4067   4.790   0.383   5.891 -0.3013  4.6544 -0.3876
   32DOPE  H14S 4068   4.651   0.275   5.826 -2.3992 -0.0729  1.4828
   32DOPE  C215 4069   4.613   0.373   6.013 -0.3070 -0.6561  0.5087
   32DOPE  H15R 4070   4.506   0.402   6.000 -0.1882 -0.2282  0.4759
   32DOPE  H15S 4071   4.675   0.438   6.078 -0.0389  3.2414 -3.2272
   32DOPE  C216 4072   4.587   0.242   6.090  0.5733 -0.3387 -0.3901
   32DOPE  H16R 4073   4.675   0.189   6.132  0.5547  0.3983  0.6021
   32DOPE  H16S 4074   4.526   0.169   6.031 -0.1930 -0.3434  0.3848
   32DOPE  C217 4075   4.500   0.251   6.218 -0.2075 -0.2456  0.0022
   32DOPE  H17R 4076   4.560   0.318   6.284 -0.6328  1.3405 -1.1642
   32DOPE  H17S 4077   4.489   0.153   6.269  0.1085  0.8251  2.2895
   32DOPE  C218 4078   4.356   0.310   6.204  0.3372  0.0561  0.2127
   32DOPE  H18R 4079   4.360   0.413   6.162 -2.9725 -0.7173 -2.4008
   32DOPE  H18S 4080   4.298   0.312   6.299 -2.9206 -0.3734 -1.5866
   32DOPE  H18T 4081   4.299   0.252   6.129  0.8085  1.1835 -1.0517
   32DOPE   C33 4082   4.131   0.398   4.834 -0.1464  0.0504 -0.1933
   32DOPE   H3X 4083   4.041   0.334   4.845  1.1076 -2.1996 -2.0863
   32DOPE   H3Y 4084   4.103   0.464   4.749 -2.6804 -1.0611 -0.3019
   32DOPE   C34 4085   4.151   0.477   4.965 -0.1450  1.0242 -0.3364
   32DOPE   H4X 4086   4.237   0.543   4.945  0.6738  0.4662  1.1550
   32DOPE   H4Y 4087   4.064   0.544   4.984  1.3675  2.7565  0.7712
   32DOPE   C35 4088   4.159   0.390   5.091  0.4190  0.2887 -0.0746
   32DOPE   H5X 4089   4.260   0.346   5.102  0.4915  0.9134  2.3175
   32DOPE   H5Y 4090   4.086   0.308   5.073  1.5040 -0.3535 -1.7433
   32DOPE   C36 4091   4.125   0.458   5.222 -0.3045  0.0429 -0.8230
   32DOPE   H6X 4092   4.030   0.513   5.209 -0.7010 -1.1220 -3.3895
   32DOPE   H6Y 4093   4.204   0.529   5.256  0.6979 -1.0380 -0.8346
   32DOPE   C37 4094   4.105   0.347   5.328  0.3098 -0.2667 -0.3865
   32DOPE   H7X 4095   4.026   0.281   5.286  1.9035 -1.5146 -1.5574
   32DOPE   H7Y 4096   4.199   0.287   5.337 -0.2042 -0.9978  0.2741
   32DOPE   C38 4097   4.056   0.405   5.458  0.5963  0.1825 -0.0478
   32DOPE   H8X 4098   3.966   0.467   5.435  0.9856  1.0855  0.7765
   32DOPE   H8Y 4099   4.133   0.483   5.474  2.8626 -1.7819 -0.8234
   32DOPE   C39 4100   4.022   0.312   5.569 -0.4470 -0.1092 -0.5302
   32DOPE   H9X 4101   3.949   0.231   5.555 -0.1347 -0.4575 -0.1786
   32DOPE  C310 4102   4.092   0.295   5.681  0.2321  0.2229 -0.2960
   32DOPE  H10X 4103   4.059   0.215   5.748  0.5478 -0.7001 -1.2234
   32DOPE  C311 4104   4.206   0.381   5.740  0.5957 -0.0535  0.6303
   32DOPE  H11X 4105   4.300   0.327   5.714  1.2462  0.8277  1.1142
   32DOPE  H11Y 4106   4.209   0.481   5.691 -0.6769 -1.2253 -2.0442
   32DOPE  C312 4107   4.192   0.395   5.893  0.7318  0.5470 -0.7462
   32DOPE  H12X 4108   4.294   0.427   5.923  0.7237  3.1757 -3.1012
   32DOPE  H12Y 4109   4.174   0.294   5.935  1.2111  1.2639  1.2927
   32DOPE  C313 4110   4.097   0.498   5.941  0.2153 -0.0296  0.6066
   32DOPE  H13X 4111   4.104   0.591   5.881 -0.6778 -0.1395  0.3215
   32DOPE  H13Y 4112   3.997   0.458   5.914 -0.0266  0.5922  0.5535
   32DOPE  C314 4113   4.110   0.514   6.093  0.0051  0.4572 -0.2998
   32DOPE  H14X 4114   4.212   0.552   6.113  0.9178 -1.4325 -1.1050
   32DOPE  H14Y 4115   4.104   0.410   6.132 -0.4807 -0.1929 -1.9731
   32DOPE  C315 4116   4.006   0.603   6.163  0.4803 -0.1832  0.9494
   32DOPE  H15X 4117   3.907   0.559   6.140  1.7166 -2.1538 -0.9718
   32DOPE  H15Y 4118   4.001   0.704   6.118 -0.5636 -1.0065 -0.9186
   32DOPE  C316 4119   4.026   0.599   6.316  0.1066 -0.4121  0.4275
   32DOPE  H16X 4120   4.050   0.495   6.346 -0.6843 -0.1806  1.9984
   32DOPE  H16Y 4121   3.931   0.620   6.370 -1.1369 -1.9577 -1.0377
   32DOPE  C317 4122   4.129   0.700   6.353 -0.4484  0.2698 -0.6635
   32DOPE  H17X 4123   4.156   0.681   6.459 -1.9609 -0.0748 -0.3208
   32DOPE  H17Y 4124   4.209   0.670   6.281 -0.9185  0.1755 -1.1500
   32DOPE  C318 4125   4.090   0.844   6.347  0.0912  0.4073 -0.3037
   32DOPE  H18X 4126   3.991   0.864   6.392  1.2392  1.0991  2.0739
   32DOPE  H18Y 4127   4.159   0.912   6.401  0.1204  1.4134 -1.5548
   32DOPE  H18Z 4128   4.081   0.887   6.245 -2.2405 -0.8569 -0.6999
   33DOPE     N 4129   1.737   5.439   3.522 -0.2362 -0.1305 -0.1520
   33DOPE   HN1 4130   1.827   5.390   3.542 -1.2477 -0.8264  3.2420
   33DOPE   HN2 4131   1.673   5.381   3.465  0.7175 -2.6486  1.1713
   33DOPE   HN3 4132   1.751   5.532   3.478 -0.0035  0.4073  1.0160
   33DOPE   C12 4133   1.669   5.442   3.654 -0.2504  0.3072  1.1525
   33DOPE  H12A 4134   1.635   5.339   3.677  3.4702 -0.9613  1.7299
   33DOPE  H12B 4135   1.581   5.510   3.647  0.1023  0.6729  0.1072
   33DOPE   C11 4136   1.772   5.480   3.766 -0.3925 -0.0699  0.1414
   33DOPE  H11A 4137   1.720   5.477   3.865  0.4654  3.2328  0.8402
   33DOPE  H11B 4138   1.798   5.588   3.754  0.9379 -0.2861  0.9276
   33DOPE     P 4139   1.899   5.258   3.816 -0.0234 -0.2111 -0.1119
   33DOPE   O13 4140   2.043   5.226   3.819 -0.2874  0.0648  0.3870
   33DOPE   O14 4141   1.808   5.173   3.737  0.5763 -0.1949  0.1940
   33DOPE   O11 4142   1.840   5.260   3.963 -0.3345  0.2107  0.4102
   33DOPE   O12 4143   1.888   5.401   3.759 -0.0424 -0.7070 -0.4128
   33DOPE    C1 4144   1.891   5.347   4.061  0.1623  0.2017 -0.5277
   33DOPE    HA 4145   1.815   5.414   4.108 -1.9146 -2.6097  0.3876
   33DOPE    HB 4146   1.970   5.415   4.021  1.1222 -0.9193 -0.5938
   33DOPE    C2 4147   1.966   5.270   4.166 -0.2377  0.5915  0.0121
   33DOPE    HS 4148   2.055   5.221   4.121 -0.2556 -0.3508  0.9439
   33DOPE   O21 4149   1.878   5.178   4.222  0.0042  0.0793 -0.3204
   33DOPE   C21 4150   1.920   5.063   4.260 -0.0735 -0.2599 -0.1080
   33DOPE   O22 4151   2.036   5.026   4.262  0.0283 -0.2863  0.6091
   33DOPE   C22 4152   1.804   4.983   4.314 -0.4427  0.3968 -0.7891
   33DOPE   H2R 4153   1.744   4.941   4.230 -1.8733  1.1864 -0.1954
   33DOPE   H2S 4154   1.738   5.057   4.364  1.0687  0.4136  1.2806
   33DOPE    C3 4155   2.018   5.377   4.271  0.4233 -0.7677 -0.2933
   33DOPE    HX 4156   1.944   5.459   4.281  0.3575 -0.8569 -0.0377
   33DOPE    HY 4157   2.113   5.412   4.224  1.3055 -1.5645  0.8245
   33DOPE   O31 4158   2.045   5.329   4.404  0.1673 -0.2784  0.6002
   33DOPE   C31 4159   2.177   5.297   4.426 -0.5942 -0.9753 -0.3570
   33DOPE   O32 4160   2.268   5.313   4.345  0.1012 -0.1335  0.0137
   33DOPE   C32 4161   2.197   5.226   4.564  0.2572 -0.2599  0.2659
   33DOPE   H2X 4162   2.105   5.170   4.591 -0.1228 -0.6274 -1.6105
   33DOPE   H2Y 4163   2.265   5.142   4.540 -1.4034 -2.2307  2.0169
   33DOPE   C23 4164   1.856   4.867   4.413  0.5497 -0.2158  0.5313
   33DOPE   H3R 4165   1.942   4.819   4.361  0.7108 -0.9316  1.4333
   33DOPE   H3S 4166   1.776   4.791   4.422  1.8457 -1.5175  1.5113
   33DOPE   C24 4167   1.903   4.929   4.540 -0.3952 -0.8648  0.2572
   33DOPE   H4R 4168   1.811   4.981   4.575 -2.6629 -1.5798 -4.0059
   33DOPE   H4S 4169   1.982   5.005   4.521 -1.6654  0.4029 -0.1974
   33DOPE   C25 4170   1.969   4.833   4.640 -0.0924  0.3532 -0.2240
   33DOPE   H5R 4171   2.056   4.784   4.591  0.1205 -0.1777  0.6644
   33DOPE   H5S 4172   1.908   4.747   4.673  0.6930 -0.4175 -0.7293
   33DOPE   C26 4173   2.018   4.906   4.766  0.4398  0.5495 -0.6744
   33DOPE   H6R 4174   1.929   4.940   4.823  0.8838  0.6405 -0.0306
   33DOPE   H6S 4175   2.080   4.996   4.744  2.0480  0.5931  3.2800
   33DOPE   C27 4176   2.107   4.822   4.859 -0.1529 -0.1388 -0.3056
   33DOPE   H7R 4177   2.201   4.804   4.803  0.1000  0.2518 -0.0126
   33DOPE   H7S 4178   2.056   4.732   4.900  0.8116 -0.9726 -0.8855
   33DOPE   C28 4179   2.145   4.914   4.980  0.4251 -0.2442  0.4487
   33DOPE   H8R 4180   2.049   4.935   5.032 -0.5220 -0.4837 -1.1490
   33DOPE   H8S 4181   2.190   5.009   4.945 -2.1363  0.4357 -1.2319
   33DOPE   C29 4182   2.241   4.850   5.082 -0.2005 -0.4150 -0.3819
   33DOPE   H9R 4183   2.338   4.828   5.036  1.0435  2.5352  0.6185
   33DOPE  C210 4184   2.228   4.836   5.213  0.1425 -0.4979  0.2603
   33DOPE  H10R 4185   2.294   4.776   5.276 -0.4230 -0.9654  0.4116
   33DOPE  C211 4186   2.101   4.870   5.291 -0.0642 -0.5948  0.2813
   33DOPE  H11R 4187   2.051   4.772   5.302 -1.7090  0.1880  0.0279
   33DOPE  H11S 4188   2.028   4.933   5.236  0.6758  0.7184  0.7409
   33DOPE  C212 4189   2.127   4.932   5.434 -0.3683 -0.1950  1.1486
   33DOPE  H12R 4190   2.023   4.960   5.460 -0.3086  0.8416  0.3507
   33DOPE  H12S 4191   2.194   5.021   5.430  2.0716 -1.7920  3.2395
   33DOPE  C213 4192   2.187   4.840   5.534 -0.1526 -0.0094  0.0497
   33DOPE  H13R 4193   2.296   4.821   5.527 -0.2701 -0.2877 -1.5043
   33DOPE  H13S 4194   2.134   4.743   5.521  0.7374 -0.4093 -0.6988
   33DOPE  C214 4195   2.149   4.878   5.680 -0.5037  0.7572 -0.4195
   33DOPE  H14R 4196   2.039   4.889   5.695 -0.3451  0.4334  1.2259
   33DOPE  H14S 4197   2.200   4.974   5.700 -0.1580  0.1251  2.1967
   33DOPE  C215 4198   2.184   4.761   5.779 -0.7790  0.6019  0.3472
   33DOPE  H15R 4199   2.288   4.726   5.761 -2.2161 -2.3067 -3.4476
   33DOPE  H15S 4200   2.110   4.679   5.765  0.5178 -0.1885 -2.5029
   33DOPE  C216 4201   2.168   4.817   5.919 -0.0132 -0.0049 -0.0261
   33DOPE  H16R 4202   2.076   4.880   5.916 -0.3063 -0.4559 -1.3221
   33DOPE  H16S 4203   2.254   4.885   5.933 -1.0264  1.0898  1.1173
   33DOPE  C217 4204   2.181   4.702   6.017 -0.1498 -0.4875  0.3201
   33DOPE  H17R 4205   2.277   4.650   5.998 -0.9227 -1.7562 -0.2622
   33DOPE  H17S 4206   2.108   4.620   6.000  1.2789 -1.8475  0.5103
   33DOPE  C218 4207   2.172   4.748   6.161  0.8928  1.0206  0.2550
   33DOPE  H18R 4208   2.208   4.662   6.222 -0.9793  0.3171  0.4555
   33DOPE  H18S 4209   2.064   4.765   6.182  0.6217 -0.6983  0.4716
   33DOPE  H18T 4210   2.221   4.846   6.176 -0.2723  1.9909 -1.9684
   33DOPE   C33 4211   2.253   5.324   4.671 -0.0586 -0.0345  0.1820
   33DOPE   H3X 4212   2.328   5.393   4.628 -0.6606  0.7903  0.4394
   33DOPE   H3Y 4213   2.309   5.263   4.745 -1.9531 -0.1388  1.5950
   33DOPE   C34 4214   2.148   5.400   4.746  0.3980  0.1272  0.1327
   33DOPE   H4X 4215   2.071   5.448   4.682  1.6008 -0.3480 -1.7550
   33DOPE   H4Y 4216   2.095   5.325   4.808 -0.3069  0.1171 -0.4618
   33DOPE   C35 4217   2.206   5.507   4.832  0.0457 -0.8699 -0.1143
   33DOPE   H5X 4218   2.124   5.554   4.891  0.1906  0.2171 -0.7461
   33DOPE   H5Y 4219   2.245   5.595   4.775 -0.0281  1.3300  2.9286
   33DOPE   C36 4220   2.313   5.464   4.932 -0.1509  0.5200 -0.0835
   33DOPE   H6X 4221   2.344   5.557   4.985  4.4096  0.2289 -1.8484
   33DOPE   H6Y 4222   2.406   5.429   4.883 -0.6547  0.2644 -0.8627
   33DOPE   C37 4223   2.263   5.363   5.038 -0.2064 -0.0757  0.1130
   33DOPE   H7X 4224   2.164   5.396   5.077  0.3448 -0.1979  1.6630
   33DOPE   H7Y 4225   2.256   5.259   5.000  1.5866 -0.2022  0.0292
   33DOPE   C38 4226   2.348   5.360   5.166 -0.5293  0.2168  1.1352
   33DOPE   H8X 4227   2.363   5.462   5.207  1.2728  0.5651 -0.2677
   33DOPE   H8Y 4228   2.449   5.330   5.134 -1.2110 -1.0373  0.0636
   33DOPE   C39 4229   2.298   5.257   5.259  0.0474  0.2464  0.3714
   33DOPE   H9X 4230   2.259   5.164   5.215 -1.6064  0.0602  2.0963
   33DOPE  C310 4231   2.297   5.275   5.390  0.4356 -0.4494 -0.3892
   33DOPE  H10X 4232   2.261   5.202   5.464 -2.9953 -0.6182 -2.0664
   33DOPE  C311 4233   2.334   5.406   5.455 -0.0606  0.0371  0.1984
   33DOPE  H11X 4234   2.426   5.454   5.414 -1.9532  2.1473 -1.9278
   33DOPE  H11Y 4235   2.266   5.492   5.436  2.5826  1.8084 -2.1763
   33DOPE  C312 4236   2.386   5.378   5.594  0.3780 -0.0676  0.0679
   33DOPE  H12X 4237   2.428   5.474   5.629 -1.6397  0.9134 -0.0810
   33DOPE  H12Y 4238   2.464   5.299   5.598 -0.8923 -1.3106  2.7434
   33DOPE  C313 4239   2.283   5.334   5.704 -0.2736  0.1885  0.6084
   33DOPE  H13X 4240   2.245   5.433   5.739  1.6475  1.4344 -0.6507
   33DOPE  H13Y 4241   2.201   5.273   5.659 -0.9254 -1.2146  3.4816
   33DOPE  C314 4242   2.344   5.249   5.813  0.7029 -0.6046 -0.6245
   33DOPE  H14X 4243   2.445   5.291   5.835 -0.2543 -0.2642  4.1691
   33DOPE  H14Y 4244   2.351   5.145   5.776 -0.7753 -0.9645  0.0386
   33DOPE  C315 4245   2.259   5.254   5.943 -0.7194 -0.1585 -0.0638
   33DOPE  H15X 4246   2.167   5.198   5.915 -0.5273 -0.6281  0.2366
   33DOPE  H15Y 4247   2.224   5.358   5.965  1.8805  0.8080 -0.1252
   33DOPE  C316 4248   2.335   5.203   6.067  0.0538  0.3825  0.1729
   33DOPE  H16X 4249   2.410   5.278   6.098 -1.3936  0.7934  2.9857
   33DOPE  H16Y 4250   2.384   5.107   6.038 -0.4213  0.5386 -1.2426
   33DOPE  C317 4251   2.247   5.174   6.188  0.0753  0.2934  1.0668
   33DOPE  H17X 4252   2.184   5.086   6.162  2.7951 -1.4793  0.0115
   33DOPE  H17Y 4253   2.320   5.149   6.268  1.9274 -0.1257 -0.6691
   33DOPE  C318 4254   2.157   5.295   6.227 -0.6114  0.5587 -0.0573
   33DOPE  H18X 4255   2.095   5.324   6.140  0.8260 -3.9163 -2.9321
   33DOPE  H18Y 4256   2.096   5.261   6.314  0.7579 -0.7423  0.4424
   33DOPE  H18Z 4257   2.230   5.372   6.259 -0.1918  0.1668 -0.0580
   34DOPE     N 4258   0.817   6.230   4.235  0.9113 -0.2551  0.0060
   34DOPE   HN1 4259   0.875   6.301   4.284 -0.5135 -0.0577  1.4897
   34DOPE   HN2 4260   0.747   6.285   4.180  0.2970 -0.4937  0.5398
   34DOPE   HN3 4261   0.755   6.184   4.304 -1.0934 -0.8971 -2.0827
   34DOPE   C12 4262   0.881   6.120   4.157  0.2139  0.2787  0.1779
   34DOPE  H12A 4263   0.819   6.028   4.170 -0.0815  0.0683 -2.2932
   34DOPE  H12B 4264   0.978   6.105   4.208  1.3036  2.0791 -1.2821
   34DOPE   C11 4265   0.922   6.180   4.018  0.5957 -0.3243  0.1182
   34DOPE  H11A 4266   0.831   6.215   3.965  0.8488 -0.3828 -0.3591
   34DOPE  H11B 4267   0.955   6.088   3.965  0.2924 -0.0432 -0.5696
   34DOPE     P 4268   1.033   6.409   3.936 -0.1440  0.5513  0.2510
   34DOPE   O13 4269   0.901   6.475   3.926 -0.3478  0.2147 -0.2870
   34DOPE   O14 4270   1.107   6.360   3.814 -0.3698 -0.4617  0.7069
   34DOPE   O11 4271   1.135   6.505   4.019  0.5847  0.2296 -0.2982
   34DOPE   O12 4272   1.017   6.281   4.035 -0.4811 -0.5842 -0.1550
   34DOPE    C1 4273   1.247   6.468   4.093  0.6907  0.0100  0.2240
   34DOPE    HA 4274   1.314   6.556   4.098  1.1236 -0.3603  1.0953
   34DOPE    HB 4275   1.310   6.392   4.044  0.9879  0.1980  0.3132
   34DOPE    C2 4276   1.207   6.417   4.235  0.1959 -0.5194  0.0385
   34DOPE    HS 4277   1.148   6.324   4.219 -0.5344 -0.4886  2.1789
   34DOPE   O21 4278   1.146   6.518   4.310  0.0343 -0.2831  0.0719
   34DOPE   C21 4279   1.041   6.479   4.384 -0.6039 -0.3419  0.0254
   34DOPE   O22 4280   0.986   6.376   4.372  0.8380  0.4963  0.8296
   34DOPE   C22 4281   1.009   6.585   4.491  0.4407 -0.6517  0.1155
   34DOPE   H2R 4282   0.961   6.673   4.443 -1.5985 -1.1100  1.1870
   34DOPE   H2S 4283   1.107   6.617   4.532  1.6739 -3.8043 -0.0878
   34DOPE    C3 4284   1.330   6.370   4.317 -0.6027  0.3601  0.0765
   34DOPE    HX 4285   1.393   6.461   4.330  1.2711 -0.8593 -0.0669
   34DOPE    HY 4286   1.399   6.307   4.256 -0.4997 -0.3050  0.8767
   34DOPE   O31 4287   1.305   6.318   4.446  0.0364  0.6576  0.0605
   34DOPE   C31 4288   1.262   6.197   4.448 -0.2531  0.0577 -0.0943
   34DOPE   O32 4289   1.237   6.131   4.344  0.1183 -0.3757  0.2541
   34DOPE   C32 4290   1.237   6.153   4.593  0.0589  0.2348  0.3361
   34DOPE   H2X 4291   1.138   6.190   4.626 -0.0451  1.6707 -1.4803
   34DOPE   H2Y 4292   1.238   6.041   4.595  1.2381  0.2276  1.5902
   34DOPE   C23 4293   0.915   6.534   4.605 -0.0143 -0.0213 -0.0989
   34DOPE   H3R 4294   0.834   6.462   4.580 -0.9158  0.7373  0.5524
   34DOPE   H3S 4295   0.849   6.620   4.632 -0.6828 -0.1036 -1.3797
   34DOPE   C24 4296   0.995   6.469   4.712 -0.4007 -0.6056 -0.3674
   34DOPE   H4R 4297   1.074   6.541   4.744 -0.6196  0.3296 -1.8605
   34DOPE   H4S 4298   1.057   6.386   4.672 -0.9481 -0.2676 -1.9994
   34DOPE   C25 4299   0.911   6.436   4.842 -0.2870  0.3516 -0.4215
   34DOPE   H5R 4300   0.859   6.342   4.815  0.1209 -0.3282  1.0296
   34DOPE   H5S 4301   0.840   6.517   4.870  1.6170  1.4829  1.5103
   34DOPE   C26 4302   0.985   6.411   4.980 -0.1248  0.2008 -0.3535
   34DOPE   H6R 4303   1.037   6.313   4.977 -2.2778 -0.9717 -1.5519
   34DOPE   H6S 4304   0.900   6.407   5.050 -0.9713  2.6305 -1.1192
   34DOPE   C27 4305   1.081   6.530   5.018 -0.2652  0.5742 -0.5308
   34DOPE   H7R 4306   1.023   6.622   4.994 -0.7173  0.3320 -0.3991
   34DOPE   H7S 4307   1.177   6.537   4.964  0.4560 -0.4662  0.5555
   34DOPE   C28 4308   1.120   6.539   5.168  0.0073 -0.7411  0.4301
   34DOPE   H8R 4309   1.025   6.539   5.226  0.3999  1.4137  1.1563
   34DOPE   H8S 4310   1.174   6.635   5.186 -2.0467  0.2072  1.9541
   34DOPE   C29 4311   1.209   6.421   5.210  0.5341  0.3370 -0.2506
   34DOPE   H9R 4312   1.317   6.433   5.191  0.1832  0.8218 -2.1603
   34DOPE  C210 4313   1.176   6.311   5.281  0.2714 -0.7047  0.0574
   34DOPE  H10R 4314   1.260   6.246   5.312  0.0043 -1.8177 -1.4618
   34DOPE  C211 4315   1.033   6.268   5.310  0.8049 -0.7290  0.5650
   34DOPE  H11R 4316   1.037   6.157   5.303 -0.1724 -0.7392 -0.0393
   34DOPE  H11S 4317   0.962   6.312   5.238  1.2681  0.8737  1.0492
   34DOPE  C212 4318   0.997   6.312   5.452 -0.6890 -0.3974  0.2406
   34DOPE  H12R 4319   0.895   6.272   5.472 -0.1388 -1.3207  1.3436
   34DOPE  H12S 4320   0.990   6.423   5.445  0.4906 -0.3235  0.1575
   34DOPE  C213 4321   1.082   6.273   5.572 -0.1262 -0.0144  0.6770
   34DOPE  H13R 4322   1.173   6.335   5.560 -0.0774 -0.3449 -0.8445
   34DOPE  H13S 4323   1.107   6.164   5.570 -2.2872 -0.5798  1.8336
   34DOPE  C214 4324   1.013   6.307   5.705 -0.4081 -0.1070  0.5622
   34DOPE  H14R 4325   1.079   6.271   5.787  1.5213 -0.1122 -0.9145
   34DOPE  H14S 4326   0.911   6.264   5.716 -2.0112  3.2924  0.2989
   34DOPE  C215 4327   1.006   6.458   5.737 -0.2833  0.5780 -0.8805
   34DOPE  H15R 4328   0.964   6.519   5.655 -2.6129  0.2561 -0.0100
   34DOPE  H15S 4329   1.107   6.500   5.756  0.0776 -1.3266  2.1640
   34DOPE  C216 4330   0.929   6.484   5.871  0.7908 -0.3110 -0.2006
   34DOPE  H16R 4331   0.833   6.429   5.857  0.1864  0.1699  1.8062
   34DOPE  H16S 4332   0.910   6.593   5.873 -0.0549 -0.4350 -0.8040
   34DOPE  C217 4333   0.998   6.420   5.991 -0.9940 -0.4208  0.5606
   34DOPE  H17R 4334   1.104   6.448   5.973 -0.3224 -2.5657  0.9310
   34DOPE  H17S 4335   0.988   6.309   5.984 -2.4020 -0.2354 -1.0026
   34DOPE  C218 4336   0.955   6.481   6.126  0.3134  0.6186  0.4451
   34DOPE  H18R 4337   0.867   6.428   6.167  2.3916 -2.0621  1.7476
   34DOPE  H18S 4338   0.940   6.591   6.123 -0.4747  0.4978 -0.2795
   34DOPE  H18T 4339   1.034   6.463   6.203 -1.7687 -1.9500  2.1436
   34DOPE   C33 4340   1.342   6.195   4.709 -0.4007  0.1845  0.1949
   34DOPE   H3X 4341   1.329   6.303   4.730 -1.1515 -0.3018  2.5538
   34DOPE   H3Y 4342   1.447   6.174   4.679  0.3621  0.4499  2.4516
   34DOPE   C34 4343   1.312   6.124   4.835 -0.1350  0.3429 -0.0513
   34DOPE   H4X 4344   1.228   6.167   4.893  0.5825 -2.5146  3.4937
   34DOPE   H4Y 4345   1.288   6.017   4.819  0.6935 -0.3913  2.9982
   34DOPE   C35 4346   1.434   6.122   4.929  0.0943  0.6478 -0.1167
   34DOPE   H5X 4347   1.461   6.228   4.947  0.7232  0.4308  0.2452
   34DOPE   H5Y 4348   1.526   6.082   4.882  0.6082 -2.3260  2.9855
   34DOPE   C36 4349   1.415   6.053   5.075 -0.5705  0.4915 -0.8199
   34DOPE   H6X 4350   1.357   5.960   5.055  1.2192 -1.0139  0.6673
   34DOPE   H6Y 4351   1.344   6.123   5.125 -0.8820 -0.3744 -0.0088
   34DOPE   C37 4352   1.550   6.019   5.144  0.0869 -0.0666 -0.4039
   34DOPE   H7X 4353   1.595   5.948   5.071  0.6830 -0.5358  0.4044
   34DOPE   H7Y 4354   1.608   6.113   5.147 -0.1653  0.0547  0.9863
   34DOPE   C38 4355   1.551   5.945   5.279  0.3898 -0.2552 -0.4795
   34DOPE   H8X 4356   1.647   5.891   5.297  0.4834  0.0944  0.1098
   34DOPE   H8Y 4357   1.466   5.874   5.282 -0.1114  0.3590  0.2742
   34DOPE   C39 4358   1.526   6.041   5.398 -0.3848 -0.0727 -0.0044
   34DOPE   H9X 4359   1.473   6.133   5.369  0.4526  0.0869 -1.0868
   34DOPE  C310 4360   1.583   6.030   5.521  1.2127  0.0409 -0.3938
   34DOPE  H10X 4361   1.562   6.103   5.601 -1.3215  0.3365 -1.2339
   34DOPE  C311 4362   1.652   5.909   5.579 -0.0310  0.0017  0.9302
   34DOPE  H11X 4363   1.664   5.827   5.506  3.1499  2.4052 -1.5382
   34DOPE  H11Y 4364   1.756   5.947   5.594 -0.7233  3.0867 -1.2067
   34DOPE  C312 4365   1.599   5.852   5.711  0.2316  0.7102 -0.1646
   34DOPE  H12X 4366   1.673   5.780   5.751 -2.4115 -2.1467 -0.0741
   34DOPE  H12Y 4367   1.505   5.796   5.697  0.3381  0.2766  0.7928
   34DOPE  C313 4368   1.583   5.943   5.834 -0.2091 -0.0486 -0.0430
   34DOPE  H13X 4369   1.673   6.008   5.838 -1.3584  1.5271  1.4571
   34DOPE  H13Y 4370   1.503   6.018   5.817  1.3381  1.6528 -0.0832
   34DOPE  C314 4371   1.566   5.869   5.968 -0.5249 -0.3580 -0.3380
   34DOPE  H14X 4372   1.654   5.800   5.969 -0.3232 -0.1050  0.6719
   34DOPE  H14Y 4373   1.474   5.807   5.960 -0.1945 -0.7524 -1.2239
   34DOPE  C315 4374   1.556   5.958   6.090  0.3059  0.5237  0.8306
   34DOPE  H15X 4375   1.462   6.016   6.086  0.2139  0.3588  0.6198
   34DOPE  H15Y 4376   1.642   6.028   6.080 -0.2432  0.9202 -1.5687
   34DOPE  C316 4377   1.567   5.888   6.224  0.3419 -0.7417 -0.1531
   34DOPE  H16X 4378   1.670   5.849   6.234  0.6566  0.3400  1.1189
   34DOPE  H16Y 4379   1.502   5.799   6.215 -1.4039  0.4957 -0.3654
   34DOPE  C317 4380   1.524   5.980   6.335  0.5643  0.4211  0.0716
   34DOPE  H17X 4381   1.513   6.080   6.287  3.4074  0.7480 -0.1059
   34DOPE  H17Y 4382   1.424   5.945   6.369 -0.7932  2.5044 -1.5064
   34DOPE  C318 4383   1.617   5.972   6.455 -0.0671 -0.1299  0.2254
   34DOPE  H18X 4384   1.591   5.889   6.524 -1.3229 -0.0952 -0.1776
   34DOPE  H18Y 4385   1.720   5.948   6.420 -0.5160 -1.7493 -0.0793
   34DOPE  H18Z 4386   1.621   6.061   6.521 -1.4810 -2.4226  3.7014
   35DOPE     N 4387   3.598   0.283   4.232 -0.0912  0.2119  0.3261
   35DOPE   HN1 4388   3.553   0.279   4.138 -3.0954 -0.2060  1.6440
   35DOPE   HN2 4389   3.556   0.199   4.277  1.8723  0.3699  2.6422
   35DOPE   HN3 4390   3.558   0.366   4.281 -2.0456 -0.0690 -0.6829
   35DOPE   C12 4391   3.745   0.265   4.237  0.3229 -0.0249 -0.5118
   35DOPE  H12A 4392   3.785   0.272   4.340  1.0876  1.7782 -0.9026
   35DOPE  H12B 4393   3.787   0.358   4.195  0.2828 -0.9421 -2.7150
   35DOPE   C11 4394   3.788   0.142   4.167 -0.8437 -0.5681  0.2035
   35DOPE  H11A 4395   3.896   0.132   4.188 -0.6365  2.0500  0.7898
   35DOPE  H11B 4396   3.785   0.157   4.057  1.0701  1.0687  0.3248
   35DOPE     P 4397   3.773  -0.092   4.292 -0.2254  0.0883 -0.0488
   35DOPE   O13 4398   3.907  -0.134   4.239 -0.1562  0.3015 -0.0231
   35DOPE   O14 4399   3.663  -0.187   4.305 -0.5159 -0.0304  0.3956
   35DOPE   O11 4400   3.807  -0.017   4.418 -0.2245 -0.0043 -0.0010
   35DOPE   O12 4401   3.716   0.024   4.201 -0.7561 -0.1704 -0.1896
   35DOPE    C1 4402   3.942   0.006   4.472 -0.8194 -0.5002 -0.4858
   35DOPE    HA 4403   3.953   0.112   4.503 -1.8247  0.0933 -2.0113
   35DOPE    HB 4404   4.020  -0.014   4.395 -1.4047 -0.8466 -1.0120
   35DOPE    C2 4405   3.970  -0.075   4.597  0.3204 -0.8198 -0.2132
   35DOPE    HS 4406   4.071  -0.048   4.636  0.1758 -1.4685  0.6351
   35DOPE   O21 4407   3.963  -0.216   4.581 -0.0818 -0.0825 -0.6379
   35DOPE   C21 4408   4.061  -0.263   4.508 -0.6252  0.4981 -0.1814
   35DOPE   O22 4409   4.156  -0.201   4.460  0.6946  0.0800  0.1832
   35DOPE   C22 4410   4.027  -0.412   4.503 -0.1364  0.5096  0.1055
   35DOPE   H2R 4411   4.050  -0.448   4.400  1.3948 -0.7033  0.8235
   35DOPE   H2S 4412   3.918  -0.432   4.509  0.1401 -0.8453  1.0402
   35DOPE    C3 4413   3.875  -0.014   4.711 -0.6650 -0.2923 -0.0184
   35DOPE    HX 4414   3.772  -0.026   4.673  0.1520  0.8819 -2.8917
   35DOPE    HY 4415   3.893   0.095   4.725  0.5055 -0.3802 -0.7082
   35DOPE   O31 4416   3.902  -0.088   4.833  0.0676 -0.0628  0.0150
   35DOPE   C31 4417   4.007  -0.035   4.898  0.0238  0.4878 -0.0182
   35DOPE   O32 4418   4.074   0.062   4.871  0.2041 -0.5761 -0.0499
   35DOPE   C32 4419   4.023  -0.117   5.024 -0.1260  0.0836 -0.3165
   35DOPE   H2X 4420   3.953  -0.202   5.024  0.0986 -0.1098 -1.0302
   35DOPE   H2Y 4421   4.124  -0.164   5.025 -0.9042 -1.6501 -0.1980
   35DOPE   C23 4422   4.103  -0.502   4.601  0.5402 -0.2081  0.3834
   35DOPE   H3R 4423   4.213  -0.484   4.595  0.6495 -1.2199 -2.0604
   35DOPE   H3S 4424   4.078  -0.608   4.579  1.4594 -0.5885  1.1054
   35DOPE   C24 4425   4.050  -0.486   4.739  0.2965  0.2043 -0.0934
   35DOPE   H4R 4426   3.939  -0.484   4.727  0.3658  1.3448 -0.7934
   35DOPE   H4S 4427   4.084  -0.385   4.772  1.7366 -1.2458  3.2633
   35DOPE   C25 4428   4.100  -0.586   4.847 -0.4505 -0.1866 -0.0516
   35DOPE   H5R 4429   4.211  -0.578   4.846 -0.5591  2.0981  0.3277
   35DOPE   H5S 4430   4.063  -0.688   4.823 -0.8121 -0.2776  0.8379
   35DOPE   C26 4431   4.042  -0.562   4.983 -0.3548  0.5284 -0.5876
   35DOPE   H6R 4432   3.932  -0.551   4.979 -0.2636  1.1808 -1.3452
   35DOPE   H6S 4433   4.079  -0.463   5.017 -1.0878  0.9291 -0.9463
   35DOPE   C27 4434   4.089  -0.663   5.088  0.1272 -0.0818  0.0813
   35DOPE   H7R 4435   4.198  -0.689   5.088 -0.3533 -2.3051 -0.1111
   35DOPE   H7S 4436   4.039  -0.759   5.062 -0.0751  0.3556 -1.2125
   35DOPE   C28 4437   4.039  -0.630   5.230  0.2105  0.2194  0.0427
   35DOPE   H8R 4438   4.012  -0.725   5.281  1.2150  0.9758  2.1343
   35DOPE   H8S 4439   3.940  -0.581   5.221  0.0376  0.0516  0.9290
   35DOPE   C29 4440   4.134  -0.551   5.318 -0.1506  0.0186  0.0280
   35DOPE   H9R 4441   4.188  -0.474   5.261 -0.6105  0.0463 -0.3701
   35DOPE  C210 4442   4.169  -0.567   5.445  0.4855  0.3510  0.6117
   35DOPE  H10R 4443   4.248  -0.509   5.495  1.0546 -0.8221  1.1366
   35DOPE  C211 4444   4.116  -0.672   5.545 -0.3975 -0.5765 -0.1021
   35DOPE  H11R 4445   4.074  -0.758   5.490 -0.1247 -0.6498 -0.1984
   35DOPE  H11S 4446   4.026  -0.635   5.598 -1.1476 -0.5907 -1.3198
   35DOPE  C212 4447   4.227  -0.718   5.641  0.2606 -0.0018  0.0726
   35DOPE  H12R 4448   4.326  -0.716   5.590 -0.2896 -0.9502 -1.0715
   35DOPE  H12S 4449   4.199  -0.824   5.655  1.1038 -0.3857 -0.9674
   35DOPE  C213 4450   4.227  -0.634   5.775  0.8303 -0.1030  0.0533
   35DOPE  H13R 4451   4.121  -0.641   5.807  0.9685 -0.9982  0.3370
   35DOPE  H13S 4452   4.241  -0.525   5.760  0.8594 -0.0385  0.5498
   35DOPE  C214 4453   4.325  -0.691   5.874 -0.3283 -0.3927 -0.0258
   35DOPE  H14R 4454   4.429  -0.690   5.834  0.5439 -0.8545  2.0962
   35DOPE  H14S 4455   4.309  -0.800   5.890  0.3031 -0.7392 -1.5485
   35DOPE  C215 4456   4.333  -0.632   6.011  0.2985 -0.0884  0.0521
   35DOPE  H15R 4457   4.236  -0.629   6.066 -0.8377  1.1018 -1.8781
   35DOPE  H15S 4458   4.371  -0.528   6.002  3.4323 -1.0360  1.2929
   35DOPE  C216 4459   4.431  -0.705   6.109 -0.5596 -0.3211 -0.5580
   35DOPE  H16R 4460   4.535  -0.690   6.074  0.4472  0.6073  2.5043
   35DOPE  H16S 4461   4.410  -0.814   6.108 -0.2281 -0.6699  4.4720
   35DOPE  C217 4462   4.424  -0.645   6.257 -0.1274 -0.4124  0.2652
   35DOPE  H17R 4463   4.427  -0.536   6.278  0.0159 -0.7219  2.0560
   35DOPE  H17S 4464   4.524  -0.684   6.286  0.5347 -0.2529 -1.6821
   35DOPE  C218 4465   4.305  -0.707   6.339  0.3372  0.3536 -0.3824
   35DOPE  H18R 4466   4.215  -0.642   6.333 -0.2305 -0.4942 -4.6925
   35DOPE  H18S 4467   4.339  -0.733   6.441 -0.7996 -0.2873 -0.1534
   35DOPE  H18T 4468   4.269  -0.804   6.298 -2.5340  1.1304  0.1164
   35DOPE   C33 4469   4.029  -0.031   5.145  0.5891  0.5137 -0.4834
   35DOPE   H3X 4470   3.934   0.024   5.154 -1.3457 -2.5178 -0.9460
   35DOPE   H3Y 4471   4.114   0.041   5.151 -0.0043  1.3488 -1.7484
   35DOPE   C34 4472   4.032  -0.120   5.278  0.0954  0.0447 -0.0647
   35DOPE   H4X 4473   3.955  -0.200   5.271  0.6970 -0.4974 -0.6204
   35DOPE   H4Y 4474   4.125  -0.181   5.286  1.0825  1.4219 -0.6121
   35DOPE   C35 4475   4.022  -0.028   5.402  0.2282  0.3450 -0.5603
   35DOPE   H5X 4476   3.923   0.022   5.396 -0.4226 -0.9182 -0.5095
   35DOPE   H5Y 4477   4.089   0.060   5.395  0.1513  0.3704 -1.0065
   35DOPE   C36 4478   4.047  -0.102   5.530 -0.2709 -0.6678 -0.0553
   35DOPE   H6X 4479   4.066  -0.032   5.614 -0.1703 -0.5845 -0.1480
   35DOPE   H6Y 4480   4.140  -0.161   5.514 -0.0147 -0.1938 -0.3126
   35DOPE   C37 4481   3.932  -0.197   5.575 -0.5721  0.6026 -0.0627
   35DOPE   H7X 4482   3.837  -0.147   5.603 -0.6717 -0.6574  2.0448
   35DOPE   H7Y 4483   3.907  -0.256   5.485  0.3269 -0.3283  0.2735
   35DOPE   C38 4484   3.989  -0.293   5.672  0.5598 -0.7734 -0.2021
   35DOPE   H8X 4485   4.024  -0.245   5.765  0.0166 -0.4827 -0.1415
   35DOPE   H8Y 4486   4.087  -0.332   5.638  1.0235  0.6335 -0.5386
   35DOPE   C39 4487   3.894  -0.409   5.702 -0.3328  0.6274  0.4601
   35DOPE   H9X 4488   3.842  -0.447   5.613  0.0618  1.8188 -0.3025
   35DOPE  C310 4489   3.858  -0.446   5.828 -0.2070  0.9245  0.0917
   35DOPE  H10X 4490   3.793  -0.534   5.838  0.7150 -0.3246 -3.2229
   35DOPE  C311 4491   3.911  -0.377   5.946  0.4066  0.2170  0.5304
   35DOPE  H11X 4492   4.020  -0.354   5.947  0.9333 -1.6488 -2.0707
   35DOPE  H11Y 4493   3.861  -0.278   5.950 -1.3375 -0.5417 -0.8477
   35DOPE  C312 4494   3.889  -0.445   6.081 -0.7621  0.3527 -0.2629
   35DOPE  H12X 4495   3.981  -0.507   6.083 -1.3707 -0.9394 -3.9493
   35DOPE  H12Y 4496   3.807  -0.521   6.083  1.0946 -1.7264  1.0367
   35DOPE  C313 4497   3.885  -0.356   6.213  0.6902  0.2427 -0.1661
   35DOPE  H13X 4498   3.946  -0.268   6.184  2.3859 -0.7385  0.3033
   35DOPE  H13Y 4499   3.779  -0.334   6.237  0.5596  0.8646 -1.2368
   35DOPE  C314 4500   3.956  -0.410   6.332 -0.3366 -0.4183 -0.9189
   35DOPE  H14X 4501   4.061  -0.437   6.311  0.1723  0.9276 -0.2560
   35DOPE  H14Y 4502   3.901  -0.501   6.364 -0.2686 -0.6009 -1.3161
   35DOPE  C315 4503   3.957  -0.308   6.456  0.2040  0.1175  0.3181
   35DOPE  H15X 4504   3.864  -0.249   6.470  0.7365  0.4487  3.0694
   35DOPE  H15Y 4505   4.034  -0.228   6.449 -0.3730  0.9247  2.4017
   35DOPE  C316 4506   3.973  -0.372   6.602 -0.1300  0.1674  0.7981
   35DOPE  H16X 4507   3.906  -0.460   6.611 -1.2090  0.3316 -3.3685
   35DOPE  H16Y 4508   3.947  -0.292   6.675 -3.1557 -0.3914  0.4831
   35DOPE  C317 4509   4.115  -0.411   6.617  0.2120  0.1522  0.3929
   35DOPE  H17X 4510   4.139  -0.487   6.540 -1.4259 -2.0078  1.8886
   35DOPE  H17Y 4511   4.173  -0.316   6.618  0.3112  0.0864  1.5231
   35DOPE  C318 4512   4.161  -0.471   6.751  0.2769 -0.3542 -0.1167
   35DOPE  H18X 4513   4.163  -0.391   6.828 -1.7727  0.9197 -1.2853
   35DOPE  H18Y 4514   4.093  -0.554   6.781  1.6776 -1.9492 -1.2047
   35DOPE  H18Z 4515   4.260  -0.520   6.756 -0.4214 -1.6889  2.8116
   36DOPE     N 4516   4.767   0.986   4.344  0.2542  0.1850  0.2185
   36DOPE   HN1 4517   4.751   1.054   4.420 -1.3472 -0.1464  0.2157
   36DOPE   HN2 4518   4.682   0.981   4.284 -0.1027  1.4879  0.5942
   36DOPE   HN3 4519   4.787   0.891   4.383 -1.4534  0.0451  0.8281
   36DOPE   C12 4520   4.881   1.027   4.255 -0.2304 -0.1445  0.5755
   36DOPE  H12A 4521   4.839   1.117   4.205 -0.1095 -1.5058 -2.1121
   36DOPE  H12B 4522   4.901   0.945   4.183 -0.9577  1.7039 -1.8458
   36DOPE   C11 4523   5.011   1.062   4.331  0.2306 -0.2446 -0.3686
   36DOPE  H11A 4524   5.085   1.081   4.250  0.9872  2.4559  0.8466
   36DOPE  H11B 4525   5.048   0.975   4.389  1.5189  0.7104  0.3069
   36DOPE     P 4526   5.026   1.322   4.368  0.4023  0.4877  0.3898
   36DOPE   O13 4527   4.913   1.413   4.386  0.5751  0.1807 -0.3119
   36DOPE   O14 4528   5.073   1.310   4.228 -0.0540  0.0618  0.0164
   36DOPE   O11 4529   5.150   1.365   4.452  0.0790 -0.3477 -0.1205
   36DOPE   O12 4530   4.989   1.177   4.421  0.1480  0.0874  0.3036
   36DOPE    C1 4531   5.255   1.288   4.491 -0.6068 -0.2560 -0.4961
   36DOPE    HA 4532   5.348   1.347   4.484 -0.3379 -0.8437 -2.4694
   36DOPE    HB 4533   5.281   1.208   4.418  1.1941 -0.1731  0.0091
   36DOPE    C2 4534   5.246   1.241   4.642 -0.0182  0.4384  0.4978
   36DOPE    HS 4535   5.171   1.160   4.628  0.7028  0.0978 -1.8231
   36DOPE   O21 4536   5.202   1.357   4.722 -0.2425  0.1154 -0.0586
   36DOPE   C21 4537   5.105   1.325   4.805 -0.2074 -0.0577  0.2648
   36DOPE   O22 4538   5.065   1.213   4.823  0.2860  0.2847  0.5535
   36DOPE   C22 4539   5.062   1.453   4.870 -0.2703 -0.1964 -0.5706
   36DOPE   H2R 4540   4.962   1.469   4.826 -0.5078 -0.7778 -0.2504
   36DOPE   H2S 4541   5.137   1.531   4.845 -1.3897  0.7728 -0.9741
   36DOPE    C3 4542   5.381   1.181   4.690 -0.1467 -0.1396 -0.9224
   36DOPE    HX 4543   5.450   1.267   4.704  1.1841 -1.4855  1.2440
   36DOPE    HY 4544   5.417   1.130   4.598  1.0508 -0.0213 -0.5340
   36DOPE   O31 4545   5.371   1.093   4.808  0.5836 -0.0816 -0.1267
   36DOPE   C31 4546   5.374   1.160   4.927 -0.0739  0.4268 -0.3442
   36DOPE   O32 4547   5.388   1.281   4.941 -0.0188 -0.1155 -0.1109
   36DOPE   C32 4548   5.345   1.060   5.048 -0.1091 -0.3206 -0.4604
   36DOPE   H2X 4549   5.245   1.014   5.030 -0.4867  0.0421  0.6861
   36DOPE   H2Y 4550   5.422   0.981   5.042  0.3858  0.1908 -1.0388
   36DOPE   C23 4551   5.057   1.446   5.026  0.5267 -0.2790  0.1757
   36DOPE   H3R 4552   5.156   1.419   5.070  0.8030 -0.9871 -0.8441
   36DOPE   H3S 4553   5.005   1.352   5.053  0.1584  0.0476  0.6049
   36DOPE   C24 4554   4.970   1.560   5.081  0.1703 -0.8019 -0.5037
   36DOPE   H4R 4555   4.863   1.553   5.055  0.1495  0.7092 -0.8667
   36DOPE   H4S 4556   5.009   1.652   5.032 -1.2015  0.6547  1.0241
   36DOPE   C25 4557   4.977   1.584   5.229  0.6449 -0.1882 -0.5978
   36DOPE   H5R 4558   4.929   1.684   5.239 -0.1713 -0.4904 -1.3638
   36DOPE   H5S 4559   5.085   1.589   5.251  0.4513 -0.0447  0.3724
   36DOPE   C26 4560   4.892   1.492   5.317 -0.0813  0.2223 -0.3996
   36DOPE   H6R 4561   4.963   1.412   5.348 -0.3975 -0.5191 -1.5286
   36DOPE   H6S 4562   4.802   1.452   5.268 -1.3367  0.0695  1.8915
   36DOPE   C27 4563   4.833   1.572   5.439 -0.4516 -0.4212 -0.4961
   36DOPE   H7R 4564   4.747   1.513   5.478 -2.1284  0.0676 -3.1484
   36DOPE   H7S 4565   4.786   1.661   5.391 -0.9991 -0.6550 -0.4073
   36DOPE   C28 4566   4.939   1.621   5.531 -0.5327 -0.7592  0.2263
   36DOPE   H8R 4567   4.902   1.694   5.607 -0.2874 -0.9730  0.5542
   36DOPE   H8S 4568   5.021   1.675   5.478 -0.0156  1.2054  2.7780
   36DOPE   C29 4569   5.012   1.516   5.612 -0.1058  0.4071 -1.1625
   36DOPE   H9R 4570   5.013   1.420   5.558 -1.2864 -0.6659  0.6062
   36DOPE  C210 4571   5.052   1.522   5.743  0.0342 -0.1049 -0.2032
   36DOPE  H10R 4572   5.089   1.432   5.793  0.1519 -0.6603 -1.2607
   36DOPE  C211 4573   5.046   1.641   5.830 -0.3855  0.0736 -0.3479
   36DOPE  H11R 4574   4.965   1.711   5.801 -0.8093  0.2730  1.2039
   36DOPE  H11S 4575   5.144   1.693   5.824 -0.5747  0.7738  1.8810
   36DOPE  C212 4576   5.002   1.618   5.980  0.6396 -0.1994  0.2653
   36DOPE  H12R 4577   4.912   1.559   6.004  0.4907  0.0771  0.3913
   36DOPE  H12S 4578   4.992   1.716   6.032 -0.2548  0.7211 -1.5604
   36DOPE  C213 4579   5.118   1.541   6.046 -0.0634  0.0098 -0.2668
   36DOPE  H13R 4580   5.207   1.606   6.031 -0.0227  0.0446  0.1264
   36DOPE  H13S 4581   5.117   1.443   5.995 -0.8258  1.3599 -3.0578
   36DOPE  C214 4582   5.103   1.511   6.194 -0.5154 -0.1456  0.1306
   36DOPE  H14R 4583   5.197   1.459   6.223  1.2893  2.8906  0.1144
   36DOPE  H14S 4584   5.009   1.458   6.217  0.1136 -1.0481  0.6879
   36DOPE  C215 4585   5.103   1.635   6.284 -0.4407  0.0662 -0.5882
   36DOPE  H15R 4586   5.010   1.694   6.277  0.3174  1.5468  0.9002
   36DOPE  H15S 4587   5.195   1.694   6.264 -0.9911  2.2266  2.5117
   36DOPE  C216 4588   5.104   1.585   6.433  0.4470  0.2361 -0.0630
   36DOPE  H16R 4589   5.085   1.678   6.492 -1.0315  0.4177 -0.7688
   36DOPE  H16S 4590   5.199   1.548   6.476  0.0957 -1.6480 -0.8143
   36DOPE  C217 4591   4.980   1.484   6.471 -0.2742 -0.3062 -1.1435
   36DOPE  H17R 4592   5.012   1.379   6.458 -0.4492 -0.5495  0.2333
   36DOPE  H17S 4593   4.889   1.501   6.408 -0.1510  0.7654 -1.0549
   36DOPE  C218 4594   4.930   1.491   6.615 -0.1559  0.1997  0.4051
   36DOPE  H18R 4595   4.841   1.425   6.614  1.0808 -1.5464 -0.7925
   36DOPE  H18S 4596   4.890   1.588   6.653  2.0219  0.5921  1.8728
   36DOPE  H18T 4597   4.994   1.434   6.685 -1.2672 -0.3154  1.0123
   36DOPE   C33 4598   5.353   1.126   5.187 -0.5670 -0.4993 -1.2260
   36DOPE   H3X 4599   5.286   1.215   5.190 -1.0387 -0.8444  1.8855
   36DOPE   H3Y 4600   5.459   1.156   5.198  0.0587 -3.0077  0.0942
   36DOPE   C34 4601   5.326   1.049   5.312  0.3596  0.3271 -0.4594
   36DOPE   H4X 4602   5.226   1.001   5.323  1.2351 -1.4950  0.0863
   36DOPE   H4Y 4603   5.395   0.961   5.310  0.1461  0.1383  0.0636
   36DOPE   C35 4604   5.365   1.124   5.438 -0.2189  0.5985  0.3736
   36DOPE   H5X 4605   5.307   1.217   5.446 -2.9908 -1.1897  3.5951
   36DOPE   H5Y 4606   5.472   1.154   5.425 -0.2094  0.7964  0.8743
   36DOPE   C36 4607   5.352   1.048   5.575  0.1641 -0.3127 -0.9755
   36DOPE   H6X 4608   5.442   0.987   5.592 -1.0368 -1.5618  1.3018
   36DOPE   H6Y 4609   5.262   0.984   5.587  0.6514 -0.5397  2.2058
   36DOPE   C37 4610   5.357   1.157   5.687 -0.4307  0.7161 -0.1815
   36DOPE   H7X 4611   5.453   1.213   5.683 -0.3433  0.5115 -1.3267
   36DOPE   H7Y 4612   5.272   1.225   5.664 -1.0470  0.0914  0.2063
   36DOPE   C38 4613   5.357   1.092   5.832  0.2130  0.2806 -0.0789
   36DOPE   H8X 4614   5.439   1.019   5.841 -0.2612 -0.2067  0.3417
   36DOPE   H8Y 4615   5.259   1.043   5.854  0.3674 -0.6983 -1.4514
   36DOPE   C39 4616   5.388   1.194   5.933 -0.1174 -0.1838  0.2022
   36DOPE   H9X 4617   5.467   1.264   5.902 -1.1941  1.6402  1.3992
   36DOPE  C310 4618   5.312   1.229   6.041 -0.5031 -0.3551 -0.1950
   36DOPE  H10X 4619   5.339   1.312   6.109 -2.2794  0.1305 -0.0231
   36DOPE  C311 4620   5.188   1.166   6.094  0.3088  0.2907 -0.0563
   36DOPE  H11X 4621   5.119   1.251   6.110 -0.6107 -0.4970  0.2134
   36DOPE  H11Y 4622   5.137   1.097   6.024  1.0724 -1.7142  1.2632
   36DOPE  C312 4623   5.192   1.087   6.224  0.0340  0.4467  0.0970
   36DOPE  H12X 4624   5.232   1.147   6.308  0.7615  0.6489 -0.3892
   36DOPE  H12Y 4625   5.269   1.008   6.215  0.3823  0.8039 -0.0727
   36DOPE  C313 4626   5.068   1.018   6.275 -0.3097  0.1925  0.3357
   36DOPE  H13X 4627   5.005   1.109   6.286 -0.7680  0.2115 -1.9994
   36DOPE  H13Y 4628   5.010   0.954   6.204  0.2496  0.0020  0.0436
   36DOPE  C314 4629   5.082   0.947   6.407 -0.3309 -0.3752 -0.0989
   36DOPE  H14X 4630   5.155   0.998   6.474 -1.3361  1.0863 -0.0788
   36DOPE  H14Y 4631   5.115   0.842   6.390 -2.1481 -0.6539 -2.3935
   36DOPE  C315 4632   4.957   0.928   6.489 -0.4179 -0.9702  0.5264
   36DOPE  H15X 4633   4.873   0.903   6.420  1.7922 -0.9138 -2.3830
   36DOPE  H15Y 4634   4.940   1.028   6.534  3.4920  0.7157 -1.2600
   36DOPE  C316 4635   4.975   0.824   6.601  0.2336  0.0534  0.4380
   36DOPE  H16X 4636   4.998   0.723   6.561 -1.2522 -1.2290  2.6422
   36DOPE  H16Y 4637   4.876   0.816   6.650  0.2009 -0.1479  0.3410
   36DOPE  C317 4638   5.080   0.854   6.706 -0.3283  0.0774  0.5688
   36DOPE  H17X 4639   5.063   0.775   6.782  0.8374  0.1502  0.9346
   36DOPE  H17Y 4640   5.180   0.829   6.664 -0.5895 -0.0814  0.0350
   36DOPE  C318 4641   5.070   0.995   6.770  0.2527 -0.3638  0.0666
   36DOPE  H18X 4642   5.132   1.003   6.862 -1.5312  1.5837  1.1794
   36DOPE  H18Y 4643   5.107   1.077   6.706 -2.2729  1.1201  0.3762
   36DOPE  H18Z 4644   4.963   1.007   6.798  0.3324 -1.1440  0.7468
   37DOPE     N 4645   1.915   6.033   4.033 -0.2520 -0.0137 -0.0872
   37DOPE   HN1 4646   1.955   6.069   4.122 -0.0116 -3.8417  1.5601
   37DOPE   HN2 4647   1.945   6.087   3.949 -1.4241 -0.1622 -0.6165
   37DOPE   HN3 4648   1.815   6.059   4.044 -0.4680 -1.1030  0.7310
   37DOPE   C12 4649   1.952   5.887   4.045 -0.0707 -0.2105 -0.2438
   37DOPE  H12A 4650   1.995   5.873   4.147  1.2306  1.6277 -0.4879
   37DOPE  H12B 4651   2.022   5.857   3.965 -0.7998 -0.9785 -0.6128
   37DOPE   C11 4652   1.843   5.788   4.013 -0.1040  0.2832  0.7082
   37DOPE  H11A 4653   1.875   5.684   4.035  0.5739  0.7053  1.8126
   37DOPE  H11B 4654   1.809   5.798   3.907  1.0009 -1.0351  0.1958
   37DOPE     P 4655   1.603   5.722   4.089 -0.2759  0.0524  0.1574
   37DOPE   O13 4656   1.583   5.662   3.954 -0.0008 -0.1369 -0.4617
   37DOPE   O14 4657   1.490   5.799   4.148 -0.5617 -0.1260  0.1130
   37DOPE   O11 4658   1.648   5.609   4.188  0.0213  1.3094 -0.5765
   37DOPE   O12 4659   1.734   5.808   4.099  0.4565 -0.5185 -0.3305
   37DOPE    C1 4660   1.561   5.509   4.248 -0.0505 -0.0812 -0.5141
   37DOPE    HA 4661   1.597   5.409   4.217  1.0110 -0.5720  2.0378
   37DOPE    HB 4662   1.453   5.525   4.230  0.0550  0.2310 -0.8844
   37DOPE    C2 4663   1.568   5.508   4.405 -0.2800 -0.2221  0.5362
   37DOPE    HS 4664   1.486   5.443   4.441  0.3853 -0.5424  1.4942
   37DOPE   O21 4665   1.532   5.639   4.449 -0.8103 -0.2357 -0.9016
   37DOPE   C21 4666   1.407   5.666   4.469  0.8905 -0.1038 -0.2971
   37DOPE   O22 4667   1.316   5.585   4.435  0.4821  0.3607  0.2416
   37DOPE   C22 4668   1.376   5.800   4.534  0.1722 -0.1362 -0.1358
   37DOPE   H2R 4669   1.304   5.852   4.466 -0.0218  1.1521  1.0211
   37DOPE   H2S 4670   1.469   5.856   4.558  0.3486 -1.5188  2.7020
   37DOPE    C3 4671   1.708   5.473   4.447 -0.1948  0.6761 -0.5792
   37DOPE    HX 4672   1.778   5.552   4.413  0.7072 -0.0789 -0.5100
   37DOPE    HY 4673   1.743   5.385   4.389  1.4852  0.7911  0.1955
   37DOPE   O31 4674   1.713   5.453   4.595  0.2304 -0.4605  0.1205
   37DOPE   C31 4675   1.704   5.331   4.634 -0.6027  0.7677  0.1560
   37DOPE   O32 4676   1.662   5.234   4.573  0.4003 -0.8539 -0.7201
   37DOPE   C32 4677   1.754   5.326   4.778 -0.5041 -0.1131  0.3183
   37DOPE   H2X 4678   1.864   5.342   4.778 -0.7376  1.7036 -0.3232
   37DOPE   H2Y 4679   1.694   5.396   4.841 -2.9011  0.0517 -1.9666
   37DOPE   C23 4680   1.300   5.771   4.670 -0.2997 -0.4396 -1.0837
   37DOPE   H3R 4681   1.220   5.694   4.667 -0.0734 -0.9477  2.1075
   37DOPE   H3S 4682   1.245   5.863   4.700  1.6176  0.5499 -0.4004
   37DOPE   C24 4683   1.383   5.725   4.788  0.2165  0.1898  0.5081
   37DOPE   H4R 4684   1.451   5.812   4.799 -0.7289  1.0940 -0.5809
   37DOPE   H4S 4685   1.438   5.631   4.765 -1.1676 -0.9109  1.5335
   37DOPE   C25 4686   1.313   5.702   4.920 -0.4598  0.6125  0.4517
   37DOPE   H5R 4687   1.252   5.611   4.904  0.6987  0.0542 -1.0714
   37DOPE   H5S 4688   1.249   5.792   4.933 -0.5998  0.2879  2.2716
   37DOPE   C26 4689   1.405   5.678   5.050 -0.1564  1.0893  1.2280
   37DOPE   H6R 4690   1.344   5.688   5.143  0.7569  1.7400  1.7790
   37DOPE   H6S 4691   1.492   5.747   5.053 -0.5192  1.5363  1.8590
   37DOPE   C27 4692   1.460   5.534   5.063 -0.4463  0.4161 -0.6348
   37DOPE   H7R 4693   1.563   5.539   5.021  1.0213 -2.9243  2.0710
   37DOPE   H7S 4694   1.404   5.471   4.990 -0.3000  0.3083 -0.6552
   37DOPE   C28 4695   1.467   5.469   5.202 -0.1593  0.1670 -0.3745
   37DOPE   H8R 4696   1.491   5.362   5.184 -0.9545  0.1943 -1.7093
   37DOPE   H8S 4697   1.370   5.465   5.256  0.2985 -2.3445  0.4425
   37DOPE   C29 4698   1.582   5.531   5.282 -0.0084 -0.5069 -0.8299
   37DOPE   H9R 4699   1.660   5.588   5.230 -0.4281  1.5781  0.6719
   37DOPE  C210 4700   1.590   5.545   5.419 -0.1390  0.8327  0.5060
   37DOPE  H10R 4701   1.678   5.596   5.462  0.7130 -0.3371  0.1843
   37DOPE  C211 4702   1.507   5.458   5.509 -0.6732  0.3188  0.5136
   37DOPE  H11R 4703   1.505   5.352   5.477 -1.0431  0.8487 -1.3816
   37DOPE  H11S 4704   1.403   5.497   5.507 -0.3214  1.2597 -0.5853
   37DOPE  C212 4705   1.562   5.471   5.654  0.3811 -0.2396 -0.7191
   37DOPE  H12R 4706   1.579   5.579   5.675 -0.0768 -0.2816 -0.0759
   37DOPE  H12S 4707   1.658   5.417   5.662 -1.0872 -3.2793 -2.0678
   37DOPE  C213 4708   1.459   5.425   5.755 -0.0401 -0.1472  0.0357
   37DOPE  H13R 4709   1.449   5.316   5.775 -0.5991 -0.0896  0.0735
   37DOPE  H13S 4710   1.357   5.455   5.723  0.9665  0.8754 -2.4520
   37DOPE  C214 4711   1.471   5.505   5.886 -0.6371  0.8358 -0.1376
   37DOPE  H14R 4712   1.447   5.611   5.866 -0.1829  0.7180 -1.3761
   37DOPE  H14S 4713   1.576   5.491   5.919 -1.3684 -3.5381  1.0147
   37DOPE  C215 4714   1.393   5.450   6.003  0.1453  0.4938 -0.5961
   37DOPE  H15R 4715   1.447   5.357   6.031  0.6393  1.1170  0.5625
   37DOPE  H15S 4716   1.287   5.431   5.973 -0.4747 -1.2641  2.3492
   37DOPE  C216 4717   1.393   5.550   6.122  0.4518 -0.2365 -0.1851
   37DOPE  H16R 4718   1.325   5.633   6.094 -0.1601 -0.6870 -0.0457
   37DOPE  H16S 4719   1.496   5.593   6.126 -0.0177  0.8841  0.2846
   37DOPE  C217 4720   1.325   5.491   6.244  0.1199 -0.3201  0.2792
   37DOPE  H17R 4721   1.399   5.420   6.286 -0.2279 -0.4620  0.6585
   37DOPE  H17S 4722   1.237   5.434   6.206  1.1341 -0.8312 -1.4059
   37DOPE  C218 4723   1.291   5.598   6.348 -0.3974  0.2150 -0.5832
   37DOPE  H18R 4724   1.382   5.632   6.400 -0.1447 -0.8926 -0.2684
   37DOPE  H18S 4725   1.236   5.540   6.426 -0.2342  1.5426  0.5637
   37DOPE  H18T 4726   1.231   5.682   6.307 -0.0136  1.3315  1.0590
   37DOPE   C33 4727   1.748   5.173   4.834 -0.5922  0.1714  0.5514
   37DOPE   H3X 4728   1.764   5.101   4.752  2.5102  1.2988  0.0306
   37DOPE   H3Y 4729   1.641   5.167   4.863 -0.3192  0.7701  1.7991
   37DOPE   C34 4730   1.829   5.142   4.959 -0.1369  0.1911  0.5735
   37DOPE   H4X 4731   1.790   5.046   4.999 -1.7516 -0.2682 -1.8605
   37DOPE   H4Y 4732   1.938   5.128   4.943 -0.4459  0.5768 -2.5244
   37DOPE   C35 4733   1.811   5.246   5.070 -0.3870 -0.0097  0.5790
   37DOPE   H5X 4734   1.702   5.249   5.094 -0.5035 -2.5806  0.7131
   37DOPE   H5Y 4735   1.848   5.345   5.038 -1.1600 -0.1745 -0.9243
   37DOPE   C36 4736   1.896   5.210   5.197  0.4328 -0.3239  0.2509
   37DOPE   H6X 4737   1.997   5.255   5.185 -0.6652  2.2505 -0.0178
   37DOPE   H6Y 4738   1.909   5.100   5.197 -1.4560 -0.5849  1.1529
   37DOPE   C37 4739   1.832   5.250   5.334 -0.1025 -0.5119 -0.3839
   37DOPE   H7X 4740   1.839   5.361   5.327  3.6342 -0.5703  0.6271
   37DOPE   H7Y 4741   1.726   5.215   5.331 -0.4034  0.4100 -1.2006
   37DOPE   C38 4742   1.902   5.203   5.460  0.2602  0.3676  0.3854
   37DOPE   H8X 4743   2.006   5.167   5.444 -1.3435 -4.1253 -1.7269
   37DOPE   H8Y 4744   1.852   5.106   5.483  0.2648 -0.0382 -1.1380
   37DOPE   C39 4745   1.886   5.303   5.573  0.2494 -0.1723 -0.3824
   37DOPE   H9X 4746   1.912   5.408   5.554 -0.4318  0.0590 -0.0885
   37DOPE  C310 4747   1.867   5.261   5.707  0.1204 -0.4063  0.2254
   37DOPE  H10X 4748   1.841   5.333   5.787 -0.4267  1.1700 -1.3179
   37DOPE  C311 4749   1.869   5.114   5.757  0.2790 -0.0620 -0.2036
   37DOPE  H11X 4750   1.870   5.050   5.666 -1.1694  0.6326 -0.7463
   37DOPE  H11Y 4751   1.960   5.094   5.817 -0.4129  1.5698  1.4679
   37DOPE  C312 4752   1.741   5.076   5.824  0.1475  0.4461 -0.5983
   37DOPE  H12X 4753   1.771   4.980   5.872  2.6547  0.9867 -0.9765
   37DOPE  H12Y 4754   1.656   5.060   5.754  1.3284 -0.2537 -1.9126
   37DOPE  C313 4755   1.711   5.169   5.945 -0.3470 -0.0422  0.1608
   37DOPE  H13X 4756   1.690   5.273   5.912  1.5049  1.7017  3.8613
   37DOPE  H13Y 4757   1.618   5.129   5.991 -0.9564  2.3522  1.1794
   37DOPE  C314 4758   1.823   5.174   6.050  0.1288 -0.3126  0.4291
   37DOPE  H14X 4759   1.914   5.227   6.015 -1.1688  3.0246  1.7131
   37DOPE  H14Y 4760   1.844   5.073   6.092 -0.9532 -0.1436  1.4498
   37DOPE  C315 4761   1.781   5.266   6.163 -0.0122 -0.3352 -0.4740
   37DOPE  H15X 4762   1.760   5.369   6.128  3.8667  1.3693  1.5324
   37DOPE  H15Y 4763   1.868   5.274   6.231  0.2453 -0.5290 -0.7767
   37DOPE  C316 4764   1.672   5.205   6.248  0.2843  0.1214  0.1034
   37DOPE  H16X 4765   1.575   5.200   6.195 -1.0764 -1.0036  2.5299
   37DOPE  H16Y 4766   1.660   5.284   6.326  0.2147  1.7724 -1.5039
   37DOPE  C317 4767   1.710   5.068   6.315 -0.0253 -0.9628 -0.3344
   37DOPE  H17X 4768   1.633   5.037   6.388 -0.0798 -0.9025 -0.3655
   37DOPE  H17Y 4769   1.715   4.990   6.236 -0.1924  0.6942 -2.0821
   37DOPE  C318 4770   1.842   5.052   6.388  0.2508 -0.5672  0.3379
   37DOPE  H18X 4771   1.927   5.043   6.317 -0.0545 -0.1180 -0.0893
   37DOPE  H18Y 4772   1.853   5.139   6.457 -1.8565  0.7064 -0.8110
   37DOPE  H18Z 4773   1.829   4.957   6.444 -0.5326 -0.9796 -0.5155
   38DOPE     N 4774   4.391   0.553   4.333 -0.1599 -0.4198  0.2020
   38DOPE   HN1 4775   4.401   0.508   4.426  0.7581  0.3666  0.5013
   38DOPE   HN2 4776   4.308   0.616   4.333  0.1121  0.0412 -2.3163
   38DOPE   HN3 4777   4.356   0.485   4.263 -0.0441 -0.7713  0.4834
   38DOPE   C12 4778   4.527   0.611   4.296  0.6333  0.0170  0.2641
   38DOPE  H12A 4779   4.601   0.529   4.304  1.5485  1.0017  2.7398
   38DOPE  H12B 4780   4.548   0.691   4.370  1.6884 -0.3176  0.3469
   38DOPE   C11 4781   4.524   0.668   4.155 -0.0045  0.0310  0.7537
   38DOPE  H11A 4782   4.517   0.581   4.086  0.2839  1.7579 -1.5741
   38DOPE  H11B 4783   4.626   0.706   4.136  0.0880 -0.5870 -0.0509
   38DOPE     P 4784   4.420   0.914   4.139 -0.1913 -0.2266 -0.3052
   38DOPE   O13 4785   4.431   0.981   4.005  0.1210 -0.1771 -0.9160
   38DOPE   O14 4786   4.521   0.949   4.237  0.4647  0.1266  0.4235
   38DOPE   O11 4787   4.272   0.940   4.205  0.3863 -0.6015  0.6207
   38DOPE   O12 4788   4.419   0.762   4.119  0.3541 -0.4860 -0.5154
   38DOPE    C1 4789   4.226   1.074   4.229 -0.1390 -0.1096  0.4401
   38DOPE    HA 4790   4.116   1.065   4.238 -0.2617 -1.5766 -1.6916
   38DOPE    HB 4791   4.240   1.148   4.147 -0.2485 -0.6140 -0.0398
   38DOPE    C2 4792   4.283   1.139   4.359  0.2239 -0.4255 -0.2178
   38DOPE    HS 4793   4.394   1.131   4.354  0.1924 -1.1297 -0.0259
   38DOPE   O21 4794   4.216   1.070   4.472 -0.5787  0.0612  0.1519
   38DOPE   C21 4795   4.295   1.036   4.563 -0.3179  0.3226  0.3340
   38DOPE   O22 4796   4.414   1.064   4.580 -0.3163  0.4327 -0.6140
   38DOPE   C22 4797   4.230   0.922   4.637  0.2147 -0.1603  0.1230
   38DOPE   H2R 4798   4.204   0.849   4.558  0.2915 -0.0133 -0.0377
   38DOPE   H2S 4799   4.139   0.954   4.692  0.7250 -0.3235  1.0952
   38DOPE    C3 4800   4.252   1.291   4.380  0.7555  0.4370  0.0765
   38DOPE    HX 4801   4.141   1.304   4.379  0.4978 -1.5010 -0.7021
   38DOPE    HY 4802   4.297   1.341   4.292 -0.4942  0.1970 -0.7313
   38DOPE   O31 4803   4.306   1.332   4.505 -0.2928  0.5159 -0.5694
   38DOPE   C31 4804   4.275   1.461   4.527  0.3812 -0.5197 -0.0559
   38DOPE   O32 4805   4.221   1.539   4.448 -0.2492  0.1022  0.0989
   38DOPE   C32 4806   4.316   1.506   4.671 -0.1458 -0.0912 -0.0552
   38DOPE   H2X 4807   4.382   1.595   4.662  0.1064  0.2525  3.5324
   38DOPE   H2Y 4808   4.230   1.541   4.732 -0.5425 -1.2800  0.0897
   38DOPE   C23 4809   4.325   0.859   4.737 -0.8055 -0.9567  0.0441
   38DOPE   H3R 4810   4.421   0.839   4.684 -0.0926 -0.3453  1.0860
   38DOPE   H3S 4811   4.300   0.756   4.769  0.7295 -1.3590  0.0249
   38DOPE   C24 4812   4.354   0.947   4.861  0.2898  0.8817  0.4337
   38DOPE   H4R 4813   4.390   1.048   4.831 -1.7152  1.1109 -1.4431
   38DOPE   H4S 4814   4.435   0.901   4.921 -0.5546 -1.3802 -0.0830
   38DOPE   C25 4815   4.231   0.969   4.953  0.1206  0.1233  0.1764
   38DOPE   H5R 4816   4.150   0.896   4.933  0.8054 -0.8284  0.7912
   38DOPE   H5S 4817   4.191   1.069   4.926  4.0539  1.7736 -0.2431
   38DOPE   C26 4818   4.286   0.963   5.099  0.1353  0.0774  0.1983
   38DOPE   H6R 4819   4.377   1.026   5.106 -0.2864  1.0059 -1.8597
   38DOPE   H6S 4820   4.325   0.863   5.127 -0.0016  0.2614  1.0826
   38DOPE   C27 4821   4.194   1.018   5.210  0.2099 -0.6677 -0.0234
   38DOPE   H7R 4822   4.097   0.964   5.213 -0.2548  0.1873  0.7809
   38DOPE   H7S 4823   4.174   1.126   5.189  0.4967 -0.2447  1.7108
   38DOPE   C28 4824   4.253   1.008   5.354  0.0913  0.0072  0.3885
   38DOPE   H8R 4825   4.196   1.079   5.418 -0.6334 -0.9322  0.8062
   38DOPE   H8S 4826   4.350   1.061   5.351  0.1054  0.0159  0.9470
   38DOPE   C29 4827   4.259   0.868   5.416 -0.8312  0.0394 -0.2897
   38DOPE   H9R 4828   4.266   0.790   5.338  1.6357 -0.0740 -0.0209
   38DOPE  C210 4829   4.255   0.851   5.550 -0.2539  0.1009 -0.3293
   38DOPE  H10R 4830   4.253   0.748   5.589 -1.3071 -1.2912 -3.7233
   38DOPE  C211 4831   4.252   0.959   5.656  0.5905  0.0395 -0.1017
   38DOPE  H11R 4832   4.302   1.053   5.626  0.2504  0.2495 -0.0203
   38DOPE  H11S 4833   4.298   0.920   5.750 -0.1776 -1.2056 -0.2147
   38DOPE  C212 4834   4.114   1.007   5.703  0.7053 -0.1774  0.4505
   38DOPE  H12R 4835   4.069   0.933   5.773 -0.6650  0.7757  0.6163
   38DOPE  H12S 4836   4.045   1.024   5.618 -0.6181  1.4443  1.7803
   38DOPE  C213 4837   4.123   1.134   5.784  0.1503 -0.1868  0.1544
   38DOPE  H13R 4838   4.017   1.162   5.804  0.5107  0.6451  0.9490
   38DOPE  H13S 4839   4.168   1.224   5.737 -1.3527  1.0241  0.9206
   38DOPE  C214 4840   4.193   1.112   5.921 -0.0335  0.1608  0.0311
   38DOPE  H14R 4841   4.303   1.126   5.914  0.3261 -2.8056 -1.4116
   38DOPE  H14S 4842   4.172   1.007   5.949 -0.3708 -0.3810 -2.1129
   38DOPE  C215 4843   4.122   1.194   6.031  0.2372  0.0685 -0.3195
   38DOPE  H15R 4844   4.018   1.155   6.037 -0.4776  1.4833 -2.5006
   38DOPE  H15S 4845   4.107   1.289   5.976  3.1049 -0.0027 -1.3555
   38DOPE  C216 4846   4.198   1.205   6.166  0.1725 -0.0140  0.0607
   38DOPE  H16R 4847   4.304   1.238   6.167  0.0170  0.5490 -0.8414
   38DOPE  H16S 4848   4.199   1.105   6.214  1.3441 -0.8178 -1.5541
   38DOPE  C217 4849   4.136   1.310   6.265  0.4779  0.3413  0.4932
   38DOPE  H17R 4850   4.029   1.286   6.279  0.5287  0.6659  1.5788
   38DOPE  H17S 4851   4.143   1.412   6.221  0.2449 -0.1232 -0.6481
   38DOPE  C218 4852   4.200   1.313   6.406  0.5761 -0.3391 -0.7398
   38DOPE  H18R 4853   4.294   1.371   6.416 -0.0953  0.4974  1.0563
   38DOPE  H18S 4854   4.210   1.208   6.440 -1.8518  0.4623  3.0237
   38DOPE  H18T 4855   4.136   1.362   6.482  1.8012 -1.9926  1.4483
   38DOPE   C33 4856   4.383   1.390   4.746 -0.3094  0.0726  0.8405
   38DOPE   H3X 4857   4.469   1.348   4.690 -0.6501  1.2702 -0.6291
   38DOPE   H3Y 4858   4.307   1.311   4.763  0.9001 -1.4391 -0.5506
   38DOPE   C34 4859   4.418   1.428   4.889  0.4034 -0.3724 -0.2172
   38DOPE   H4X 4860   4.480   1.521   4.889  1.3156 -0.9254 -2.0703
   38DOPE   H4Y 4861   4.331   1.455   4.952  0.1487 -2.2848  0.2984
   38DOPE   C35 4862   4.505   1.324   4.961 -0.3777 -0.0988 -0.0233
   38DOPE   H5X 4863   4.590   1.294   4.897  0.7745 -0.7974  1.7476
   38DOPE   H5Y 4864   4.450   1.229   4.983 -2.0977  0.7715 -0.4133
   38DOPE   C36 4865   4.567   1.383   5.088  0.2030 -0.7984  0.3816
   38DOPE   H6X 4866   4.602   1.487   5.070 -0.0022 -1.0993 -2.3107
   38DOPE   H6Y 4867   4.664   1.332   5.106  1.1566  0.4514 -0.9521
   38DOPE   C37 4868   4.467   1.363   5.203 -0.3546 -0.1979 -0.3018
   38DOPE   H7X 4869   4.376   1.419   5.175  0.1323  0.4401 -0.6404
   38DOPE   H7Y 4870   4.430   1.259   5.213  0.4110 -0.2894  2.0366
   38DOPE   C38 4871   4.518   1.394   5.342 -0.2292  0.7707 -0.2610
   38DOPE   H8X 4872   4.564   1.494   5.337  0.3858  0.5854  1.2983
   38DOPE   H8Y 4873   4.610   1.338   5.369 -0.2682 -0.6662 -2.8117
   38DOPE   C39 4874   4.409   1.401   5.443 -0.5994 -0.1325 -0.2652
   38DOPE   H9X 4875   4.318   1.455   5.411 -0.4574 -0.2611 -0.9016
   38DOPE  C310 4876   4.416   1.348   5.569 -0.2423 -0.1587  0.1608
   38DOPE  H10X 4877   4.325   1.360   5.630 -0.1029  1.1213  0.1404
   38DOPE  C311 4878   4.518   1.273   5.642 -0.3717  0.1741 -0.2277
   38DOPE  H11X 4879   4.473   1.194   5.706 -0.9393 -0.6515 -1.6025
   38DOPE  H11Y 4880   4.597   1.233   5.576 -2.1367 -1.6501 -1.3549
   38DOPE  C312 4881   4.599   1.365   5.740 -0.1982  0.7046 -0.1926
   38DOPE  H12X 4882   4.595   1.469   5.700  0.3289  0.0463 -2.1068
   38DOPE  H12Y 4883   4.707   1.339   5.741 -0.1369  0.9638 -0.1889
   38DOPE  C313 4884   4.538   1.363   5.879  0.1641  0.0001 -0.2809
   38DOPE  H13X 4885   4.429   1.375   5.863 -0.0462 -0.8686  0.4221
   38DOPE  H13Y 4886   4.566   1.265   5.924 -0.7984 -1.0255 -1.8322
   38DOPE  C314 4887   4.590   1.478   5.966 -0.4773 -0.5336  0.1342
   38DOPE  H14X 4888   4.548   1.578   5.943 -1.2621 -0.8889 -0.0049
   38DOPE  H14Y 4889   4.700   1.485   5.948 -0.8205  0.9048 -1.6217
   38DOPE  C315 4890   4.580   1.460   6.123  0.6185 -0.5679  0.0251
   38DOPE  H15X 4891   4.598   1.354   6.151 -0.3895 -0.7410  0.0624
   38DOPE  H15Y 4892   4.472   1.476   6.147  0.2205  0.9129 -2.4178
   38DOPE  C316 4893   4.670   1.564   6.186  0.1152  0.8365 -0.2458
   38DOPE  H16X 4894   4.677   1.645   6.111  0.3348  1.7007  0.6816
   38DOPE  H16Y 4895   4.773   1.524   6.197 -0.2297 -0.8384 -2.3820
   38DOPE  C317 4896   4.618   1.603   6.322  0.3493 -0.4962 -0.2598
   38DOPE  H17X 4897   4.573   1.517   6.376  1.7309  0.5554  2.7338
   38DOPE  H17Y 4898   4.705   1.636   6.381 -0.5000 -0.9855  1.3188
   38DOPE  C318 4899   4.514   1.713   6.307  0.2081  0.0117 -0.6402
   38DOPE  H18X 4900   4.502   1.774   6.399  1.0323 -1.1344  0.2510
   38DOPE  H18Y 4901   4.543   1.786   6.228 -1.3962 -1.5452 -2.7861
   38DOPE  H18Z 4902   4.415   1.669   6.281  0.5266 -1.2973  0.2641
   39DOPE     N 4903   1.151   0.123   3.649  0.7512  0.0846  0.0135
   39DOPE   HN1 4904   1.131   0.191   3.572 -2.0919 -2.0957 -1.3574
   39DOPE   HN2 4905   1.254   0.128   3.660  0.6271 -0.8518  1.8055
   39DOPE   HN3 4906   1.132   0.028   3.611 -2.3459  0.5642  0.0375
   39DOPE   C12 4907   1.083   0.158   3.775 -0.0472 -0.7407 -0.1912
   39DOPE  H12A 4908   1.094   0.079   3.853 -3.6796 -1.0538  0.1828
   39DOPE  H12B 4909   0.975   0.166   3.749  0.3010 -0.3528 -1.6039
   39DOPE   C11 4910   1.131   0.289   3.829 -0.8271  0.0913 -0.3219
   39DOPE  H11A 4911   1.238   0.273   3.851 -0.4843  0.8664 -1.3412
   39DOPE  H11B 4912   1.073   0.315   3.920 -0.2271 -0.2065  0.1513
   39DOPE     P 4913   1.224   0.518   3.724 -0.2001 -0.0712  0.0069
   39DOPE   O13 4914   1.160   0.597   3.617  0.2535  0.6162  0.3040
   39DOPE   O14 4915   1.361   0.475   3.696 -0.4937  0.4749 -0.7602
   39DOPE   O11 4916   1.216   0.596   3.862  0.7728  0.1175  0.5195
   39DOPE   O12 4917   1.131   0.397   3.743 -0.1262 -0.0548  0.9176
   39DOPE    C1 4918   1.081   0.640   3.902  0.1129  0.2174 -0.0512
   39DOPE    HA 4919   1.018   0.548   3.909 -0.1898  0.4125 -0.2198
   39DOPE    HB 4920   1.036   0.712   3.830  1.7689  0.9757 -0.3843
   39DOPE    C2 4921   1.084   0.715   4.040 -0.2581 -0.4730 -0.3018
   39DOPE    HS 4922   1.170   0.784   4.057 -1.8398  1.4635  0.2602
   39DOPE   O21 4923   1.086   0.623   4.153  0.1459  0.3389  0.1883
   39DOPE   C21 4924   1.204   0.583   4.200  0.2424 -0.0368 -1.1256
   39DOPE   O22 4925   1.308   0.640   4.185 -0.2403 -0.1805  0.2155
   39DOPE   C22 4926   1.171   0.469   4.301  0.2043  0.6026  0.0605
   39DOPE   H2R 4927   1.175   0.369   4.254 -0.8314  0.9504 -0.8143
   39DOPE   H2S 4928   1.064   0.484   4.327  0.2867  0.3251  0.5618
   39DOPE    C3 4929   0.957   0.797   4.064  0.4001  0.1165 -0.2509
   39DOPE    HX 4930   0.876   0.723   4.052 -1.8072  2.2077  0.8494
   39DOPE    HY 4931   0.940   0.873   3.984 -1.3275  0.3272  0.2717
   39DOPE   O31 4932   0.946   0.848   4.196 -0.6683 -0.4293 -0.2661
   39DOPE   C31 4933   1.016   0.967   4.202 -0.3976 -0.4194 -0.2024
   39DOPE   O32 4934   1.064   1.027   4.106 -0.0881  0.5053 -0.6016
   39DOPE   C32 4935   1.035   1.006   4.348  0.6754 -0.3297 -0.0996
   39DOPE   H2X 4936   1.087   1.104   4.354  1.2823 -0.6688  0.2567
   39DOPE   H2Y 4937   0.937   1.024   4.397  0.3398  1.5627 -1.3539
   39DOPE   C23 4938   1.248   0.474   4.434  0.2747  0.3117 -0.3420
   39DOPE   H3R 4939   1.229   0.578   4.468 -2.8822 -0.4903  0.6573
   39DOPE   H3S 4940   1.354   0.444   4.423 -0.4192 -2.0630 -1.1239
   39DOPE   C24 4941   1.181   0.395   4.541 -1.1128 -0.1843 -0.2904
   39DOPE   H4R 4942   1.180   0.286   4.519  0.1341  0.0142 -1.4602
   39DOPE   H4S 4943   1.074   0.420   4.560 -0.8489 -0.7480  2.2432
   39DOPE   C25 4944   1.251   0.424   4.681  0.1458  0.6875 -0.6941
   39DOPE   H5R 4945   1.260   0.532   4.705  0.3207  0.3251  1.0229
   39DOPE   H5S 4946   1.358   0.392   4.682 -0.1128 -0.2236 -1.2639
   39DOPE   C26 4947   1.180   0.343   4.781 -0.0276  0.2248  0.4192
   39DOPE   H6R 4948   1.183   0.241   4.738 -0.5863 -0.8522  2.8157
   39DOPE   H6S 4949   1.069   0.357   4.783 -0.1466  0.3746 -2.3324
   39DOPE   C27 4950   1.247   0.362   4.918  0.0351 -0.7177 -0.3262
   39DOPE   H7R 4951   1.330   0.433   4.901 -0.5167 -0.5231 -2.5468
   39DOPE   H7S 4952   1.296   0.275   4.966 -0.0216 -0.6887 -0.2136
   39DOPE   C28 4953   1.154   0.420   5.031 -0.0290 -0.6925  0.2536
   39DOPE   H8R 4954   1.071   0.353   5.062  0.7085 -1.7698 -0.0380
   39DOPE   H8S 4955   1.105   0.498   4.968  0.9112 -0.0142  0.3391
   39DOPE   C29 4956   1.236   0.489   5.142 -0.3273  0.3417  0.0776
   39DOPE   H9R 4957   1.278   0.584   5.108 -0.1734  0.2891  0.1197
   39DOPE  C210 4958   1.239   0.455   5.268  0.2830 -0.3274  0.4669
   39DOPE  H10R 4959   1.293   0.520   5.339 -0.6533  0.6149  0.3489
   39DOPE  C211 4960   1.176   0.332   5.325 -0.0121 -0.0573 -0.0373
   39DOPE  H11R 4961   1.112   0.283   5.248 -0.6063  0.6652 -0.0056
   39DOPE  H11S 4962   1.112   0.368   5.408 -0.0190 -1.1403  0.4533
   39DOPE  C212 4963   1.272   0.226   5.379  0.2625 -0.0411 -0.3740
   39DOPE  H12R 4964   1.348   0.275   5.443  1.1308  0.2477 -1.6018
   39DOPE  H12S 4965   1.329   0.173   5.301  1.4040  0.4047  0.1347
   39DOPE  C213 4966   1.195   0.113   5.456  0.6248  0.5677  0.0112
   39DOPE  H13R 4967   1.266   0.031   5.475  0.3456  0.2786 -0.1873
   39DOPE  H13S 4968   1.116   0.066   5.394  1.0001 -3.0783  2.0551
   39DOPE  C214 4969   1.128   0.159   5.593  0.0655  0.2466  0.7971
   39DOPE  H14R 4970   1.055   0.082   5.622  0.6826 -0.8291 -0.4086
   39DOPE  H14S 4971   1.069   0.247   5.559  0.3644  0.0627 -0.2610
   39DOPE  C215 4972   1.221   0.207   5.704 -0.6396 -0.1923  0.1555
   39DOPE  H15R 4973   1.284   0.291   5.668 -2.0524  1.1678  0.6986
   39DOPE  H15S 4974   1.288   0.127   5.741 -0.5056 -2.1290 -3.8559
   39DOPE  C216 4975   1.147   0.273   5.821 -0.3144  0.7901  0.9722
   39DOPE  H16R 4976   1.061   0.331   5.781 -0.9963 -0.6391  0.2872
   39DOPE  H16S 4977   1.218   0.347   5.864  1.8231  0.3944 -1.6563
   39DOPE  C217 4978   1.110   0.183   5.936  0.0927  0.2219  0.1088
   39DOPE  H17R 4979   1.093   0.083   5.889 -1.4874  0.8830 -0.7906
   39DOPE  H17S 4980   1.025   0.213   6.001  2.0989  0.3608  2.8437
   39DOPE  C218 4981   1.233   0.168   6.036 -0.0223 -0.5372  0.0051
   39DOPE  H18R 4982   1.212   0.074   6.091 -2.2089 -1.8498 -2.8180
   39DOPE  H18S 4983   1.253   0.260   6.094 -1.3420  1.2870 -2.2485
   39DOPE  H18T 4984   1.330   0.145   5.987 -0.1608  0.3175 -0.6814
   39DOPE   C33 4985   1.114   0.910   4.436  0.0173 -0.0591  0.2554
   39DOPE   H3X 4986   1.208   0.892   4.381  1.2401  1.6680  1.6631
   39DOPE   H3Y 4987   1.072   0.810   4.460 -1.2073 -0.5475 -3.3486
   39DOPE   C34 4988   1.166   0.965   4.562  0.0094  0.2219 -0.1354
   39DOPE   H4X 4989   1.234   1.052   4.546  0.6918 -0.1415  0.6509
   39DOPE   H4Y 4990   1.090   1.006   4.632 -1.8383  2.0202 -3.0183
   39DOPE   C35 4991   1.251   0.865   4.643  0.1924 -0.0894  0.0031
   39DOPE   H5X 4992   1.354   0.866   4.601 -0.1305  1.2488 -0.8192
   39DOPE   H5Y 4993   1.207   0.763   4.645 -4.1374  1.5745  2.6810
   39DOPE   C36 4994   1.263   0.913   4.794 -0.5034  0.1807  0.3399
   39DOPE   H6X 4995   1.165   0.939   4.839  0.3775  1.4050  1.6271
   39DOPE   H6Y 4996   1.327   1.003   4.783 -0.7523  0.1404 -1.7106
   39DOPE   C37 4997   1.350   0.820   4.880 -0.3215 -0.2480 -0.9604
   39DOPE   H7X 4998   1.288   0.727   4.889 -2.5777  1.3448  1.5024
   39DOPE   H7Y 4999   1.449   0.788   4.842  0.8468  0.2196  1.5271
   39DOPE   C38 5000   1.359   0.862   5.028  0.8040  0.3183  0.2287
   39DOPE   H8X 5001   1.418   0.956   5.031 -1.2228  1.6645  2.4031
   39DOPE   H8Y 5002   1.426   0.790   5.079 -0.7277 -1.9155 -0.7507
   39DOPE   C39 5003   1.236   0.882   5.111 -0.1878 -0.1499 -0.5169
   39DOPE   H9X 5004   1.147   0.904   5.051  1.1632  3.0234 -1.6180
   39DOPE  C310 5005   1.236   0.886   5.252  0.7467 -0.1071 -0.1852
   39DOPE  H10X 5006   1.144   0.906   5.308  0.7637  0.5701 -0.3946
   39DOPE  C311 5007   1.348   0.845   5.345  0.3787  0.1523  0.7218
   39DOPE  H11X 5008   1.420   0.782   5.288 -0.3395 -0.3828  0.3911
   39DOPE  H11Y 5009   1.407   0.933   5.377  0.6183 -0.2081  1.2958
   39DOPE  C312 5010   1.306   0.785   5.470  0.6277  0.3289 -0.2085
   39DOPE  H12X 5011   1.244   0.697   5.444 -0.3751  1.2645 -1.0597
   39DOPE  H12Y 5012   1.247   0.861   5.526 -1.2543 -1.8024  0.8775
   39DOPE  C313 5013   1.426   0.751   5.560  0.5253  0.7626 -0.2412
   39DOPE  H13X 5014   1.496   0.705   5.488 -0.5552  0.9843 -1.4788
   39DOPE  H13Y 5015   1.481   0.836   5.605  3.2421 -0.4165 -1.1447
   39DOPE  C314 5016   1.387   0.645   5.678  0.4047 -0.1421  0.8465
   39DOPE  H14X 5017   1.486   0.628   5.726  0.1615  1.5001  2.0125
   39DOPE  H14Y 5018   1.351   0.555   5.623  1.4739  1.7609 -3.3540
   39DOPE  C315 5019   1.273   0.692   5.771 -0.2302 -0.5203 -0.5267
   39DOPE  H15X 5020   1.256   0.608   5.842 -0.4791  0.9427  1.2238
   39DOPE  H15Y 5021   1.177   0.708   5.718 -1.1164 -0.3819  1.0592
   39DOPE  C316 5022   1.312   0.812   5.858 -0.1841  0.1220 -0.7780
   39DOPE  H16X 5023   1.227   0.851   5.917  0.1368 -1.5000  0.8318
   39DOPE  H16Y 5024   1.360   0.888   5.792  2.6591 -1.1989 -0.3637
   39DOPE  C317 5025   1.423   0.780   5.962  0.3958  0.3972 -0.3153
   39DOPE  H17X 5026   1.403   0.698   6.035  0.4516  0.6609 -0.0028
   39DOPE  H17Y 5027   1.506   0.746   5.897  0.4729  4.2449 -2.5426
   39DOPE  C318 5028   1.475   0.898   6.039  0.0603  0.1382  0.3109
   39DOPE  H18X 5029   1.552   0.874   6.116 -2.2263 -1.8947  2.1264
   39DOPE  H18Y 5030   1.498   0.990   5.980  0.0883  0.5759  0.9898
   39DOPE  H18Z 5031   1.403   0.945   6.109  0.4354  2.1869 -0.6048
   40DOPE     N 5032   3.155   1.216   3.448  0.4783 -0.1645 -0.2610
   40DOPE   HN1 5033   3.156   1.305   3.502 -0.7812 -1.6520  2.4130
   40DOPE   HN2 5034   3.171   1.229   3.346 -2.3188 -4.1366 -1.4476
   40DOPE   HN3 5035   3.067   1.166   3.467 -0.1903  1.4420  1.1230
   40DOPE   C12 5036   3.281   1.155   3.513 -0.0649 -0.0430  0.5682
   40DOPE  H12A 5037   3.370   1.213   3.481  0.3232 -1.8136 -1.8077
   40DOPE  H12B 5038   3.288   1.050   3.479 -0.8213  0.4546 -1.2570
   40DOPE   C11 5039   3.264   1.166   3.669 -0.3223  0.7817  0.6558
   40DOPE  H11A 5040   3.281   1.269   3.708 -0.3070  0.1229  2.5217
   40DOPE  H11B 5041   3.353   1.112   3.707  0.2352  0.0017 -1.6363
   40DOPE     P 5042   3.092   1.141   3.862 -0.2405 -0.0150 -0.2099
   40DOPE   O13 5043   3.009   1.024   3.907 -0.0895 -0.1833  0.2137
   40DOPE   O14 5044   3.023   1.273   3.844  0.3947  0.1583 -0.5905
   40DOPE   O11 5045   3.220   1.157   3.963  0.3894  0.0439  0.5120
   40DOPE   O12 5046   3.152   1.104   3.721 -0.2924 -0.0982 -0.0780
   40DOPE    C1 5047   3.303   1.051   3.996 -0.2550  0.4033  0.1835
   40DOPE    HA 5048   3.404   1.080   3.962 -0.6814 -1.8660 -3.6476
   40DOPE    HB 5049   3.270   0.956   3.948  1.4116 -0.1097 -0.0020
   40DOPE    C2 5050   3.287   1.029   4.153 -0.0462 -0.4637 -0.9306
   40DOPE    HS 5051   3.358   0.954   4.191 -1.1887 -0.5916  1.0577
   40DOPE   O21 5052   3.154   0.998   4.183 -0.7345 -0.1442 -0.2194
   40DOPE   C21 5053   3.126   0.868   4.163  0.0395 -0.2922 -0.0962
   40DOPE   O22 5054   3.197   0.784   4.111  0.5332  0.1202  0.0503
   40DOPE   C22 5055   2.988   0.834   4.225 -0.8763 -0.5241  0.3605
   40DOPE   H2R 5056   2.981   0.723   4.219 -3.0965 -0.3886 -0.9036
   40DOPE   H2S 5057   2.913   0.869   4.151 -0.8310 -2.0543 -0.4498
   40DOPE    C3 5058   3.317   1.152   4.234  0.1683 -0.5157 -1.0366
   40DOPE    HX 5059   3.246   1.235   4.216  0.2321 -0.0200  0.7543
   40DOPE    HY 5060   3.416   1.193   4.207 -0.3674  1.3164 -0.3212
   40DOPE   O31 5061   3.310   1.129   4.382 -0.7022 -0.2734 -0.1523
   40DOPE   C31 5062   3.400   1.056   4.443  1.1434 -0.3880  0.5560
   40DOPE   O32 5063   3.500   1.010   4.400 -0.4040  0.1924  0.5008
   40DOPE   C32 5064   3.355   1.041   4.587  0.0689  0.0505 -0.3069
   40DOPE   H2X 5065   3.282   1.121   4.612 -0.0280 -0.2477  0.3978
   40DOPE   H2Y 5066   3.299   0.945   4.598 -0.6123  0.3383 -1.0672
   40DOPE   C23 5067   2.961   0.894   4.361 -0.5830 -0.0420 -0.1644
   40DOPE   H3R 5068   2.854   0.868   4.371 -0.8732  0.8622 -0.7471
   40DOPE   H3S 5069   2.981   1.004   4.357  0.6083 -0.2287  0.1038
   40DOPE   C24 5070   3.036   0.836   4.491 -0.2771 -0.5525  0.1127
   40DOPE   H4R 5071   3.141   0.869   4.477 -0.7088  1.0401  0.3882
   40DOPE   H4S 5072   3.025   0.726   4.484 -1.0806 -0.4889  0.2498
   40DOPE   C25 5073   2.977   0.904   4.610 -0.0740  0.7417  0.0924
   40DOPE   H5R 5074   2.871   0.871   4.616 -0.0746  0.7161 -0.0412
   40DOPE   H5S 5075   2.983   1.015   4.599  0.1423  0.8176  0.9093
   40DOPE   C26 5076   3.060   0.859   4.729 -0.2546  0.2875  0.0421
   40DOPE   H6R 5077   3.156   0.912   4.747  0.0210  0.8557 -2.6671
   40DOPE   H6S 5078   3.086   0.753   4.708 -0.4630 -0.2513  2.2387
   40DOPE   C27 5079   2.979   0.873   4.852  0.1298  0.6626 -0.0406
   40DOPE   H7R 5080   2.880   0.826   4.831  0.8194 -0.5749 -0.6063
   40DOPE   H7S 5081   2.960   0.982   4.851  2.0104  1.1777 -4.6142
   40DOPE   C28 5082   3.028   0.807   4.975  0.5156 -0.6536  0.2505
   40DOPE   H8R 5083   3.088   0.715   4.956 -0.7321 -1.2447 -0.9968
   40DOPE   H8S 5084   2.939   0.770   5.030 -0.6347  1.6341  0.0375
   40DOPE   C29 5085   3.109   0.898   5.062  0.2218  0.3624 -0.2025
   40DOPE   H9R 5086   3.193   0.948   5.012 -0.0207  0.7683 -0.2146
   40DOPE  C210 5087   3.085   0.931   5.192 -0.0907  0.2808  0.1222
   40DOPE  H10R 5088   3.151   1.007   5.237 -0.5685  0.6305  0.2422
   40DOPE  C211 5089   2.972   0.884   5.281  0.2755  0.1715  0.5344
   40DOPE  H11R 5090   2.968   0.773   5.281  1.6367  0.0876  1.8494
   40DOPE  H11S 5091   2.872   0.925   5.257  1.4163  1.9763 -1.4410
   40DOPE  C212 5092   3.007   0.923   5.426 -0.3304  0.2585 -0.2614
   40DOPE  H12R 5093   3.005   1.033   5.440  1.9736  0.4029 -0.6186
   40DOPE  H12S 5094   3.110   0.890   5.451 -0.3604  1.1626  1.1883
   40DOPE  C213 5095   2.908   0.861   5.524 -0.7932 -0.0699  0.0205
   40DOPE  H13R 5096   2.913   0.751   5.509 -1.0687 -0.1136  0.2509
   40DOPE  H13S 5097   2.807   0.906   5.515 -1.2161 -0.9737  0.1175
   40DOPE  C214 5098   2.961   0.900   5.667  0.2562  0.0924 -0.4403
   40DOPE  H14R 5099   2.923   1.002   5.691  0.2309  0.0593 -0.3414
   40DOPE  H14S 5100   3.072   0.909   5.671  0.1260  1.5443  0.6933
   40DOPE  C215 5101   2.898   0.804   5.767 -0.0698 -0.7967  0.3067
   40DOPE  H15R 5102   2.936   0.700   5.761  1.8190 -0.2914  2.4305
   40DOPE  H15S 5103   2.788   0.811   5.752 -0.2717  1.8766  2.3121
   40DOPE  C216 5104   2.935   0.853   5.910  0.4972  0.1147  0.1393
   40DOPE  H16R 5105   2.889   0.952   5.927 -1.7101 -0.3582 -2.4538
   40DOPE  H16S 5106   3.045   0.865   5.921  0.3392  2.2579 -0.3466
   40DOPE  C217 5107   2.877   0.763   6.018  0.4924 -0.5975 -0.6716
   40DOPE  H17R 5108   2.915   0.659   6.010  2.6655  0.2023 -1.3600
   40DOPE  H17S 5109   2.766   0.757   6.008  0.3657 -0.9231  0.7999
   40DOPE  C218 5110   2.901   0.822   6.156  0.8889  0.1620 -0.4567
   40DOPE  H18R 5111   2.877   0.930   6.164  0.6036  0.1472 -1.0746
   40DOPE  H18S 5112   3.008   0.831   6.187 -0.0521  0.0789  3.3669
   40DOPE  H18T 5113   2.853   0.761   6.236  2.0573 -0.7165 -0.3964
   40DOPE   C33 5114   3.465   1.050   4.696 -0.0733 -0.1032 -0.7875
   40DOPE   H3X 5115   3.511   1.151   4.699 -1.5425  0.5976  0.5826
   40DOPE   H3Y 5116   3.542   0.971   4.686 -0.6382 -0.8263  0.3486
   40DOPE   C34 5117   3.404   1.038   4.844 -0.2044 -0.5488  0.3528
   40DOPE   H4X 5118   3.325   1.115   4.856  0.0791 -0.1522 -0.2335
   40DOPE   H4Y 5119   3.363   0.938   4.866  0.9121 -0.7187  1.8233
   40DOPE   C35 5120   3.508   1.065   4.956 -0.1803  0.5720  0.2480
   40DOPE   H5X 5121   3.573   1.153   4.938  3.3669 -1.7379  0.7476
   40DOPE   H5Y 5122   3.578   0.980   4.967  2.0428  2.3726  0.8522
   40DOPE   C36 5123   3.449   1.068   5.099  0.1430 -0.6303 -0.0823
   40DOPE   H6X 5124   3.426   0.962   5.125 -3.0560  0.0703  0.4259
   40DOPE   H6Y 5125   3.351   1.120   5.088  0.9449  0.8144 -0.6525
   40DOPE   C37 5126   3.525   1.140   5.209  0.3491  0.0607  0.0232
   40DOPE   H7X 5127   3.610   1.075   5.239 -1.1891 -1.8592  0.4864
   40DOPE   H7Y 5128   3.570   1.233   5.170  0.4931  0.1829  0.4826
   40DOPE   C38 5129   3.426   1.190   5.323  0.1467 -0.4378  0.8339
   40DOPE   H8X 5130   3.338   1.239   5.277  0.6019 -0.2893  0.0975
   40DOPE   H8Y 5131   3.486   1.268   5.375  1.4785 -0.2838 -0.8217
   40DOPE   C39 5132   3.392   1.083   5.417  0.5160  0.3361  0.2075
   40DOPE   H9X 5133   3.316   1.013   5.382  1.1276 -1.4672  2.2622
   40DOPE  C310 5134   3.435   1.056   5.542  0.0689 -0.4349  0.1473
   40DOPE  H10X 5135   3.384   0.979   5.602 -2.6947  0.3822 -1.0107
   40DOPE  C311 5136   3.544   1.133   5.611  0.2428  0.3410  0.5593
   40DOPE  H11X 5137   3.637   1.106   5.557  0.3433  0.7650  0.5214
   40DOPE  H11Y 5138   3.516   1.239   5.592  0.6677  0.5206  0.9217
   40DOPE  C312 5139   3.566   1.112   5.761  0.0000  0.1622 -0.2817
   40DOPE  H12X 5140   3.644   1.183   5.797  1.3556 -0.8851 -1.0661
   40DOPE  H12Y 5141   3.613   1.014   5.784 -0.0366  0.2033 -0.0270
   40DOPE  C313 5142   3.435   1.126   5.842 -0.4204  0.2830 -0.3332
   40DOPE  H13X 5143   3.389   1.227   5.827  1.0455  1.8608  4.0926
   40DOPE  H13Y 5144   3.362   1.048   5.813  0.0544 -0.2831 -0.0143
   40DOPE  C314 5145   3.464   1.120   5.996 -0.9163 -0.0123 -0.3234
   40DOPE  H14X 5146   3.561   1.173   6.006 -0.3357 -1.2279  0.8004
   40DOPE  H14Y 5147   3.485   1.015   6.027 -0.0704  0.7529  1.8526
   40DOPE  C315 5148   3.364   1.184   6.084  0.2965  0.2387  0.3163
   40DOPE  H15X 5149   3.343   1.290   6.057 -1.4896 -0.2935 -0.5930
   40DOPE  H15Y 5150   3.413   1.186   6.184 -0.4501 -0.8791  0.7291
   40DOPE  C316 5151   3.237   1.098   6.103 -0.1368 -0.2910 -0.4867
   40DOPE  H16X 5152   3.268   0.993   6.120 -0.5172 -0.3799 -0.3414
   40DOPE  H16Y 5153   3.188   1.098   6.003  1.2764 -0.7342 -1.2043
   40DOPE  C317 5154   3.147   1.143   6.221 -0.2288 -0.6784  0.7073
   40DOPE  H17X 5155   3.077   1.058   6.234 -0.9758 -0.2557 -0.4334
   40DOPE  H17Y 5156   3.207   1.152   6.314 -0.9565 -1.3103  1.2450
   40DOPE  C318 5157   3.067   1.269   6.187 -0.0219 -0.1551 -0.1399
   40DOPE  H18X 5158   2.977   1.279   6.252  0.2053 -2.0791  0.5426
   40DOPE  H18Y 5159   3.120   1.366   6.184 -0.7294  0.2229 -1.7286
   40DOPE  H18Z 5160   3.023   1.251   6.086 -1.0544 -1.3059  0.4841
   41DOPE     N 5161   0.603   1.120   3.283 -0.4590  0.0669  0.0248
   41DOPE   HN1 5162   0.535   1.195   3.260 -1.1679 -0.1799  1.2158
   41DOPE   HN2 5163   0.684   1.125   3.219  1.5890  0.1970  2.4804
   41DOPE   HN3 5164   0.567   1.023   3.268 -1.3978  0.4714 -0.4054
   41DOPE   C12 5165   0.655   1.148   3.421  0.3749 -0.4312 -0.4579
   41DOPE  H12A 5166   0.698   1.250   3.413 -2.0897  0.6276 -0.9241
   41DOPE  H12B 5167   0.746   1.090   3.446  1.1117 -0.1593 -2.3121
   41DOPE   C11 5168   0.543   1.139   3.528 -0.2526 -0.8513  0.7056
   41DOPE  H11A 5169   0.589   1.174   3.623 -1.7850  2.5363  0.3326
   41DOPE  H11B 5170   0.524   1.030   3.536 -1.8061 -0.9118 -2.3722
   41DOPE     P 5171   0.288   1.194   3.564 -0.2181  0.3026  0.0485
   41DOPE   O13 5172   0.240   1.062   3.525  0.3358 -0.0074 -0.3095
   41DOPE   O14 5173   0.201   1.306   3.540 -0.3658  0.4226  0.9105
   41DOPE   O11 5174   0.328   1.190   3.719 -0.2560 -0.4714 -0.0487
   41DOPE   O12 5175   0.424   1.212   3.492 -0.4021  0.1768 -0.1100
   41DOPE    C1 5176   0.375   1.312   3.779 -0.2712 -0.6103 -0.6054
   41DOPE    HA 5177   0.294   1.385   3.799 -0.1898  0.3912 -3.5269
   41DOPE    HB 5178   0.446   1.361   3.710 -0.3599  0.4943  0.0540
   41DOPE    C2 5179   0.452   1.274   3.908 -0.3278  0.5615 -0.3021
   41DOPE    HS 5180   0.527   1.195   3.884  1.6378  3.1413 -3.6060
   41DOPE   O21 5181   0.356   1.250   4.016 -0.0147  0.5298  0.1483
   41DOPE   C21 5182   0.388   1.161   4.107 -0.8080 -0.4557  0.7082
   41DOPE   O22 5183   0.473   1.069   4.095 -0.3953 -0.0101 -0.0920
   41DOPE   C22 5184   0.287   1.168   4.226  0.1223  0.0506 -0.5479
   41DOPE   H2R 5185   0.190   1.165   4.172 -0.7354 -1.2685  0.9699
   41DOPE   H2S 5186   0.311   1.252   4.294  1.8049 -0.7622 -0.0931
   41DOPE    C3 5187   0.532   1.399   3.958  0.4426 -0.2204  0.1098
   41DOPE    HX 5188   0.452   1.471   3.984 -0.2485 -0.8352 -0.2942
   41DOPE    HY 5189   0.591   1.452   3.880 -0.3841  1.8292  0.7934
   41DOPE   O31 5190   0.616   1.374   4.075 -0.4548  0.5635  0.1049
   41DOPE   C31 5191   0.745   1.345   4.053  0.0734  0.5240  0.8328
   41DOPE   O32 5192   0.795   1.325   3.942  0.3869  0.3406  0.3482
   41DOPE   C32 5193   0.816   1.322   4.186 -0.0266  0.1732  0.0752
   41DOPE   H2X 5194   0.738   1.292   4.259 -0.7905  0.1793 -0.7319
   41DOPE   H2Y 5195   0.879   1.233   4.165 -0.0627  0.4270 -1.1470
   41DOPE   C23 5196   0.290   1.034   4.305 -0.0730 -0.0021 -0.2425
   41DOPE   H3R 5197   0.317   0.945   4.246  1.0362 -1.0027  1.6625
   41DOPE   H3S 5198   0.195   0.999   4.351  0.5267 -3.4900 -1.4133
   41DOPE   C24 5199   0.392   1.030   4.417  0.0843  0.3603 -0.1121
   41DOPE   H4R 5200   0.497   1.044   4.380  0.0350  1.3203  0.1005
   41DOPE   H4S 5201   0.384   0.933   4.470  0.8793 -0.4170 -1.3503
   41DOPE   C25 5202   0.384   1.136   4.525  0.4840  0.0129 -0.0869
   41DOPE   H5R 5203   0.279   1.137   4.562 -0.9360  0.4992 -3.7448
   41DOPE   H5S 5204   0.418   1.232   4.483 -1.0631 -0.0962 -1.6910
   41DOPE   C26 5205   0.477   1.101   4.651  0.5826 -0.8505  0.6198
   41DOPE   H6R 5206   0.582   1.117   4.618  0.1285  2.3522  0.3434
   41DOPE   H6S 5207   0.471   0.994   4.680  1.2158 -1.7205 -2.1254
   41DOPE   C27 5208   0.457   1.209   4.759  0.1705 -0.0155 -0.3247
   41DOPE   H7R 5209   0.430   1.306   4.713 -2.3103 -0.5082 -0.0434
   41DOPE   H7S 5210   0.555   1.210   4.811  1.6319  0.4137 -2.9690
   41DOPE   C28 5211   0.347   1.177   4.859  0.0227 -0.2123 -0.1961
   41DOPE   H8R 5212   0.251   1.172   4.804  0.7565 -3.4072 -1.4585
   41DOPE   H8S 5213   0.358   1.260   4.931  0.4484 -0.5460  0.1320
   41DOPE   C29 5214   0.370   1.046   4.929  0.4677 -0.1635 -0.7189
   41DOPE   H9R 5215   0.340   0.952   4.879 -1.1499 -1.0402  1.7251
   41DOPE  C210 5216   0.422   1.028   5.058  0.1192  0.2915  0.2234
   41DOPE  H10R 5217   0.418   0.924   5.092 -1.0658  0.4560  0.6544
   41DOPE  C211 5218   0.468   1.135   5.154 -0.1712  0.5648  0.2873
   41DOPE  H11R 5219   0.498   1.223   5.093 -1.4957  0.0325 -1.1957
   41DOPE  H11S 5220   0.568   1.099   5.189 -0.4919  0.6367  1.3038
   41DOPE  C212 5221   0.379   1.191   5.270 -0.9631 -0.3009 -0.5732
   41DOPE  H12R 5222   0.289   1.243   5.232  0.0208  1.6876 -0.2875
   41DOPE  H12S 5223   0.433   1.270   5.325 -3.2821  2.1768 -1.6333
   41DOPE  C213 5224   0.335   1.074   5.355  0.7146 -0.3378 -0.3116
   41DOPE  H13R 5225   0.305   0.981   5.303 -0.4465 -0.1654  0.0090
   41DOPE  H13S 5226   0.241   1.104   5.407  0.9996  1.8896 -0.9964
   41DOPE  C214 5227   0.436   1.038   5.464 -0.6713  0.6103  0.4869
   41DOPE  H14R 5228   0.477   1.131   5.509  1.0966  0.3068 -0.4244
   41DOPE  H14S 5229   0.522   0.993   5.408 -0.3526  1.4679  0.2750
   41DOPE  C215 5230   0.373   0.948   5.571 -0.4566 -0.0788 -1.0115
   41DOPE  H15R 5231   0.319   0.867   5.517 -0.8404 -0.6582  0.2236
   41DOPE  H15S 5232   0.295   1.006   5.624  0.3670 -0.4546  0.6841
   41DOPE  C216 5233   0.481   0.896   5.671 -0.8988  0.3898 -0.5391
   41DOPE  H16R 5234   0.571   0.884   5.608 -1.9440 -0.0444 -2.0165
   41DOPE  H16S 5235   0.452   0.802   5.722  0.1440  0.3250 -0.0463
   41DOPE  C217 5236   0.509   1.004   5.779 -0.3662 -0.0844  0.0802
   41DOPE  H17R 5237   0.529   1.095   5.720  1.3324 -0.3008  0.2587
   41DOPE  H17S 5238   0.604   0.975   5.831 -1.2055  2.0532  3.1039
   41DOPE  C218 5239   0.405   1.020   5.890  0.0100  0.2295 -0.0413
   41DOPE  H18R 5240   0.442   1.084   5.973  0.6594 -0.7742  0.4472
   41DOPE  H18S 5241   0.383   0.918   5.928  1.2089 -0.1840 -0.4210
   41DOPE  H18T 5242   0.318   1.060   5.833  0.4867  1.3211 -0.0275
   41DOPE   C33 5243   0.886   1.454   4.221 -0.5901  0.1350 -0.3347
   41DOPE   H3X 5244   0.810   1.535   4.225  1.4932  2.1579 -0.2526
   41DOPE   H3Y 5245   0.969   1.473   4.150 -0.1682 -0.5603 -0.0363
   41DOPE   C34 5246   0.954   1.438   4.360  1.1124  0.2004 -0.7575
   41DOPE   H4X 5247   1.005   1.340   4.363  0.4750 -0.2188 -2.4288
   41DOPE   H4Y 5248   1.033   1.513   4.382  1.2487 -0.5160  1.4948
   41DOPE   C35 5249   0.847   1.427   4.471  0.2259  0.6634  0.6616
   41DOPE   H5X 5250   0.787   1.336   4.447  1.2197 -0.0240  0.7260
   41DOPE   H5Y 5251   0.780   1.515   4.480  0.5757  1.1651 -1.2321
   41DOPE   C36 5252   0.909   1.397   4.615 -0.2207 -0.3858  0.6226
   41DOPE   H6X 5253   0.959   1.491   4.646  0.4067 -0.3158 -0.5298
   41DOPE   H6Y 5254   0.995   1.329   4.602 -0.8158 -1.0571  0.1006
   41DOPE   C37 5255   0.812   1.364   4.721 -0.1807  0.4176  0.3151
   41DOPE   H7X 5256   0.727   1.435   4.715 -0.7975 -0.3950 -1.1315
   41DOPE   H7Y 5257   0.757   1.269   4.703 -0.7568  0.7156  0.4867
   41DOPE   C38 5258   0.864   1.371   4.862  0.0638 -0.7316 -0.1484
   41DOPE   H8X 5259   0.777   1.365   4.931  0.3879  0.4606  0.3880
   41DOPE   H8Y 5260   0.915   1.468   4.876 -1.5149 -0.1894  2.7422
   41DOPE   C39 5261   0.971   1.270   4.878 -0.1897 -0.5521  0.1016
   41DOPE   H9X 5262   1.003   1.214   4.789 -2.9571 -1.1566 -0.6124
   41DOPE  C310 5263   1.022   1.243   5.000  0.3645  0.6667 -0.1499
   41DOPE  H10X 5264   1.102   1.169   5.012 -0.9777 -0.3575  4.2566
   41DOPE  C311 5265   0.994   1.302   5.134  0.0480 -0.1868 -0.9363
   41DOPE  H11X 5266   1.065   1.384   5.156  1.0145 -0.9713 -1.0608
   41DOPE  H11Y 5267   0.890   1.341   5.141 -0.1272 -0.6672 -0.7968
   41DOPE  C312 5268   0.993   1.199   5.251  0.0997 -0.1472  0.2408
   41DOPE  H12X 5269   1.095   1.154   5.254  0.5543  0.8503  0.1429
   41DOPE  H12Y 5270   0.920   1.125   5.211  2.5945 -2.4330 -0.3883
   41DOPE  C313 5271   0.951   1.250   5.388  0.2569  0.2275  0.3790
   41DOPE  H13X 5272   1.012   1.340   5.411  0.1675  0.8553 -1.6208
   41DOPE  H13Y 5273   0.848   1.286   5.371 -0.1257 -1.9602 -2.8742
   41DOPE  C314 5274   0.942   1.133   5.490 -0.4188 -0.1439 -0.2508
   41DOPE  H14X 5275   1.048   1.107   5.511  0.6458  2.6467 -1.6779
   41DOPE  H14Y 5276   0.893   1.047   5.440  1.0496 -0.0233 -2.0196
   41DOPE  C315 5277   0.881   1.178   5.624  0.2785 -0.1866  0.4241
   41DOPE  H15X 5278   0.772   1.198   5.613  0.5888  1.9751  0.7908
   41DOPE  H15Y 5279   0.936   1.270   5.653 -0.2651  0.8970 -1.7681
   41DOPE  C316 5280   0.884   1.077   5.738 -0.4984 -0.4003  0.2736
   41DOPE  H16X 5281   0.977   1.016   5.731 -1.2075 -1.2820 -2.1841
   41DOPE  H16Y 5282   0.807   1.003   5.708  0.2609 -0.6433 -1.1083
   41DOPE  C317 5283   0.853   1.127   5.879 -0.3499 -0.3036  0.4958
   41DOPE  H17X 5284   0.942   1.190   5.901 -1.0448  1.2231 -0.8673
   41DOPE  H17Y 5285   0.758   1.184   5.889 -0.5360 -0.5487  0.1413
   41DOPE  C318 5286   0.855   1.007   5.970  0.3784 -0.0859 -0.1574
   41DOPE  H18X 5287   0.765   0.944   5.949 -0.3764  0.8891  0.0487
   41DOPE  H18Y 5288   0.941   0.940   5.951 -0.0683 -0.4515 -0.9522
   41DOPE  H18Z 5289   0.860   1.026   6.079  3.0602 -2.3229  0.2006
   42DOPE     N 5290   1.949   6.594   3.830  0.4424  0.5001 -0.3569
   42DOPE   HN1 5291   2.051   6.579   3.845  0.3749 -1.3803 -1.5722
   42DOPE   HN2 5292   1.916   6.497   3.811  0.5727  0.2915  0.4275
   42DOPE   HN3 5293   1.940   6.657   3.748 -1.0255  0.8006 -0.0013
   42DOPE   C12 5294   1.896   6.657   3.955  0.2185 -0.2323  0.3598
   42DOPE  H12A 5295   1.912   6.592   4.043 -1.9075 -0.6258  0.5141
   42DOPE  H12B 5296   1.786   6.657   3.943  0.3167  0.7508 -0.7430
   42DOPE   C11 5297   1.962   6.791   3.974 -0.2363  0.5905  0.1073
   42DOPE  H11A 5298   2.070   6.769   3.988 -0.3321  0.6113  0.9694
   42DOPE  H11B 5299   1.915   6.827   4.068 -1.5008  1.5631 -0.8620
   42DOPE     P 5300   1.793   6.938   3.840  0.1807  0.3291  0.2941
   42DOPE   O13 5301   1.719   6.840   3.761 -0.4149 -0.2883  0.1400
   42DOPE   O14 5302   1.800   7.078   3.793 -0.2116  0.0207  0.2287
   42DOPE   O11 5303   1.733   6.945   3.987 -0.1941  0.1553  0.1436
   42DOPE   O12 5304   1.942   6.883   3.864  0.1932 -0.1142 -0.3115
   42DOPE    C1 5305   1.618   7.030   4.003  0.2799  0.0329  0.1517
   42DOPE    HA 5306   1.537   6.999   3.933  1.4415 -0.8714 -0.8266
   42DOPE    HB 5307   1.639   7.139   3.999  0.5230  0.0372  1.4556
   42DOPE    C2 5308   1.551   7.004   4.137 -0.4466 -0.7301 -0.4165
   42DOPE    HS 5309   1.462   7.070   4.146 -1.4225 -1.9657 -0.6893
   42DOPE   O21 5310   1.638   7.042   4.249 -0.2432 -0.1913  0.5313
   42DOPE   C21 5311   1.667   7.170   4.271 -1.0881  0.2403 -0.1527
   42DOPE   O22 5312   1.643   7.266   4.201  0.4863  0.1536 -1.0833
   42DOPE   C22 5313   1.746   7.161   4.408  0.3794  0.1168  0.0669
   42DOPE   H2R 5314   1.797   7.259   4.416  1.6432 -0.2555 -2.3810
   42DOPE   H2S 5315   1.826   7.085   4.391  1.8146  1.9736 -2.0636
   42DOPE    C3 5316   1.487   6.862   4.157 -0.4670  0.1001 -0.9458
   42DOPE    HX 5317   1.558   6.784   4.123 -1.6994 -1.4468 -0.1156
   42DOPE    HY 5318   1.399   6.861   4.088 -0.6295  1.7363 -0.7853
   42DOPE   O31 5319   1.433   6.848   4.286  0.1577 -0.1339 -0.5134
   42DOPE   C31 5320   1.503   6.773   4.367  0.7599 -0.1141 -0.1565
   42DOPE   O32 5321   1.616   6.728   4.351  0.6888 -0.0375  0.0940
   42DOPE   C32 5322   1.417   6.741   4.488  0.4358 -0.6333 -0.5797
   42DOPE   H2X 5323   1.411   6.836   4.545 -2.2058  0.0106 -1.7614
   42DOPE   H2Y 5324   1.317   6.733   4.440  0.1178  2.7358 -0.7231
   42DOPE   C23 5325   1.645   7.144   4.522  0.1539  0.3626 -0.0859
   42DOPE   H3R 5326   1.605   7.042   4.507 -1.8001  1.3292 -2.1273
   42DOPE   H3S 5327   1.557   7.210   4.509  0.9673  1.3766 -0.5919
   42DOPE   C24 5328   1.715   7.154   4.653 -0.2256 -0.3407 -0.8217
   42DOPE   H4R 5329   1.749   7.258   4.674 -2.1465  0.1126  0.2695
   42DOPE   H4S 5330   1.801   7.085   4.661  0.7407  0.9301  0.1795
   42DOPE   C25 5331   1.612   7.124   4.766  0.5906  0.3736 -0.1472
   42DOPE   H5R 5332   1.566   7.024   4.748 -1.8585  1.5914 -1.1491
   42DOPE   H5S 5333   1.534   7.204   4.770  0.7887  0.5502  0.2895
   42DOPE   C26 5334   1.685   7.098   4.905 -0.0622  0.3254  0.5425
   42DOPE   H6R 5335   1.741   7.190   4.929 -0.8563  1.1921 -0.8198
   42DOPE   H6S 5336   1.751   7.009   4.896 -0.1370  0.1320  1.7613
   42DOPE   C27 5337   1.585   7.064   5.017 -0.3974 -0.4892 -0.1721
   42DOPE   H7R 5338   1.536   6.968   4.989  0.9909 -1.2622 -0.0480
   42DOPE   H7S 5339   1.507   7.142   5.008  0.5842  0.4690 -0.5450
   42DOPE   C28 5340   1.646   7.058   5.155  1.1739  0.3812 -0.2120
   42DOPE   H8R 5341   1.568   7.036   5.231  1.4718 -0.2142 -0.0707
   42DOPE   H8S 5342   1.688   7.157   5.182  0.8127  0.3073  0.6287
   42DOPE   C29 5343   1.761   6.957   5.176 -0.4099 -0.7347  0.4213
   42DOPE   H9R 5344   1.832   6.966   5.093 -2.0839  0.7144 -0.9351
   42DOPE  C210 5345   1.771   6.870   5.273 -0.0854  0.4559 -0.5256
   42DOPE  H10R 5346   1.860   6.806   5.273  0.6780  1.4604  1.6114
   42DOPE  C211 5347   1.673   6.847   5.388  0.3710 -0.5016  0.1003
   42DOPE  H11R 5348   1.665   6.741   5.417 -0.8827 -1.0564 -2.0144
   42DOPE  H11S 5349   1.575   6.887   5.353  1.0923  1.8877  0.6426
   42DOPE  C212 5350   1.715   6.936   5.507 -0.8400  0.2445  0.7564
   42DOPE  H12R 5351   1.708   7.043   5.478 -0.7573 -0.0182 -0.2616
   42DOPE  H12S 5352   1.822   6.915   5.528  0.0035 -0.3122 -3.3103
   42DOPE  C213 5353   1.631   6.899   5.628  0.2701 -0.2904 -0.2448
   42DOPE  H13R 5354   1.626   6.789   5.632  1.0536 -0.3198  0.2901
   42DOPE  H13S 5355   1.523   6.920   5.611  0.1450 -1.2402 -0.6407
   42DOPE  C214 5356   1.678   6.958   5.763 -0.8357  0.2899  0.7071
   42DOPE  H14R 5357   1.714   7.059   5.735  1.1183 -1.0842 -2.1918
   42DOPE  H14S 5358   1.763   6.900   5.805 -2.0071 -1.6063  0.5545
   42DOPE  C215 5359   1.581   6.961   5.883 -0.1767  0.4470 -0.0267
   42DOPE  H15R 5360   1.538   6.859   5.893 -1.4933  0.8827 -0.9530
   42DOPE  H15S 5361   1.500   7.028   5.848  1.5735  2.7034  0.0106
   42DOPE  C216 5362   1.629   7.019   6.013  0.6738 -0.3962 -0.3190
   42DOPE  H16R 5363   1.650   7.125   5.988  0.9081 -0.1083  1.0071
   42DOPE  H16S 5364   1.726   6.980   6.053  0.7594  1.8783  1.9773
   42DOPE  C217 5365   1.514   7.029   6.118 -0.3385 -0.5182 -0.3239
   42DOPE  H17R 5366   1.482   6.930   6.157  1.0999 -1.7848 -2.1710
   42DOPE  H17S 5367   1.428   7.073   6.064 -0.5068 -0.6068 -0.1281
   42DOPE  C218 5368   1.559   7.122   6.239 -0.4051  0.1876  0.2886
   42DOPE  H18R 5369   1.657   7.080   6.272 -0.6162 -1.4861 -1.0780
   42DOPE  H18S 5370   1.474   7.117   6.311 -0.9453  0.5001 -0.3125
   42DOPE  H18T 5371   1.551   7.230   6.214 -1.1184 -0.0916 -0.7398
   42DOPE   C33 5372   1.457   6.619   4.574 -0.0447  0.2922  0.0370
   42DOPE   H3X 5373   1.565   6.591   4.564 -0.8326 -3.5012  0.3695
   42DOPE   H3Y 5374   1.405   6.525   4.544  0.4538  0.1223 -0.3155
   42DOPE   C34 5375   1.433   6.635   4.723 -0.1646  0.5962  0.5212
   42DOPE   H4X 5376   1.455   6.738   4.759 -2.3013  0.4327  2.6286
   42DOPE   H4Y 5377   1.326   6.620   4.750 -0.0801  1.4783  1.4114
   42DOPE   C35 5378   1.519   6.540   4.812 -0.7399 -0.6860  0.2416
   42DOPE   H5X 5379   1.624   6.567   4.788 -0.1606 -1.0267  2.1774
   42DOPE   H5Y 5380   1.510   6.435   4.776  0.3715 -0.3183 -1.1666
   42DOPE   C36 5381   1.494   6.566   4.960 -0.5271  0.1419 -0.6187
   42DOPE   H6X 5382   1.395   6.533   4.997  0.0813 -0.5967  0.3786
   42DOPE   H6Y 5383   1.517   6.672   4.982  1.2856 -0.2899 -0.3163
   42DOPE   C37 5384   1.595   6.504   5.060 -0.3060  0.0224 -0.6179
   42DOPE   H7X 5385   1.591   6.393   5.060  0.0400  0.0060 -0.8488
   42DOPE   H7Y 5386   1.704   6.520   5.045  0.3024 -2.4700  0.6766
   42DOPE   C38 5387   1.569   6.559   5.202  0.3863  0.4263 -0.3664
   42DOPE   H8X 5388   1.461   6.549   5.229  0.5612 -0.3709  0.0648
   42DOPE   H8Y 5389   1.605   6.663   5.218  1.0513  0.4066 -1.6272
   42DOPE   C39 5390   1.652   6.484   5.304  0.3172 -0.0062  0.0618
   42DOPE   H9X 5391   1.757   6.466   5.276 -0.2199 -3.7339 -0.1103
   42DOPE  C310 5392   1.604   6.425   5.418  0.2797 -0.4777  0.2304
   42DOPE  H10X 5393   1.678   6.375   5.483  1.7266  1.0338 -0.1856
   42DOPE  C311 5394   1.474   6.433   5.491  0.0043 -0.1927  0.0731
   42DOPE  H11X 5395   1.404   6.487   5.424  0.9377 -1.1557 -1.7420
   42DOPE  H11Y 5396   1.427   6.333   5.502  0.7524 -0.8686 -2.2871
   42DOPE  C312 5397   1.476   6.505   5.628 -0.2306 -0.1921 -0.1102
   42DOPE  H12X 5398   1.368   6.513   5.655 -0.3188 -3.3905  0.8891
   42DOPE  H12Y 5399   1.495   6.613   5.610  0.3622 -0.4286 -0.9506
   42DOPE  C313 5400   1.561   6.436   5.736 -0.1819  0.2420  0.2071
   42DOPE  H13X 5401   1.533   6.328   5.729 -2.7749  0.8614  0.1958
   42DOPE  H13Y 5402   1.666   6.463   5.711 -0.1193  0.5533  0.7896
   42DOPE  C314 5403   1.521   6.477   5.884 -0.1271  0.4548 -0.4140
   42DOPE  H14X 5404   1.417   6.445   5.904  1.1452 -2.1435  3.1778
   42DOPE  H14Y 5405   1.525   6.588   5.887 -0.0881  0.4434 -0.0301
   42DOPE  C315 5406   1.616   6.406   5.983  0.1910 -0.3921 -0.2822
   42DOPE  H15X 5407   1.717   6.442   5.952 -0.8848  1.5964 -1.7742
   42DOPE  H15Y 5408   1.614   6.296   5.974 -0.7744 -0.4434  0.4976
   42DOPE  C316 5409   1.593   6.429   6.135  0.1171  0.0429  0.0515
   42DOPE  H16X 5410   1.614   6.531   6.173 -2.3221 -0.1701  2.2700
   42DOPE  H16Y 5411   1.659   6.358   6.189 -0.8204  0.2915  1.6079
   42DOPE  C317 5412   1.459   6.397   6.184  0.2835  0.1275 -0.3854
   42DOPE  H17X 5413   1.377   6.459   6.142  0.6026  0.5443 -0.3951
   42DOPE  H17Y 5414   1.448   6.290   6.158 -0.1515  0.0070  0.2648
   42DOPE  C318 5415   1.439   6.396   6.331 -0.3641  0.0282 -0.3764
   42DOPE  H18X 5416   1.422   6.496   6.375 -0.0963 -0.7639  1.6484
   42DOPE  H18Y 5417   1.343   6.345   6.354 -0.4114  0.6672  0.9341
   42DOPE  H18Z 5418   1.526   6.363   6.391 -0.9865 -1.2312 -0.1308
   43DOPE     N 5419   5.809   6.491   4.602  0.1369  0.2142 -0.6663
   43DOPE   HN1 5420   5.762   6.512   4.512  0.3727  1.9242 -0.4178
   43DOPE   HN2 5421   5.909   6.519   4.593  0.5758 -0.2688  1.9810
   43DOPE   HN3 5422   5.807   6.388   4.613  2.9456  0.2574  1.1096
   43DOPE   C12 5423   5.766   6.554   4.734  0.5628  0.1798  0.0677
   43DOPE  H12A 5424   5.663   6.520   4.759  0.2958 -0.1314 -1.3954
   43DOPE  H12B 5425   5.775   6.664   4.726 -1.9656  0.6180  1.9660
   43DOPE   C11 5426   5.858   6.514   4.849 -0.6555  0.2390 -0.4244
   43DOPE  H11A 5427   5.841   6.411   4.887  3.3806 -0.7800 -0.9415
   43DOPE  H11B 5428   5.848   6.590   4.929 -1.8686 -0.7893  0.4319
   43DOPE     P 5429   6.090   6.388   4.812 -0.3488  0.1628 -0.2830
   43DOPE   O13 5430   6.227   6.426   4.785 -0.6962 -0.0211 -0.2798
   43DOPE   O14 5431   6.030   6.290   4.719 -0.0041  0.0705  0.1246
   43DOPE   O11 5432   6.078   6.349   4.960 -0.5748  0.6869  0.3422
   43DOPE   O12 5433   5.997   6.514   4.806  0.0770  0.2045 -0.1131
   43DOPE    C1 5434   6.137   6.417   5.068  0.2033 -0.0654 -0.3226
   43DOPE    HA 5435   6.062   6.414   5.150 -0.1878 -2.1700 -0.7062
   43DOPE    HB 5436   6.159   6.524   5.045 -1.0206  0.1239 -0.7126
   43DOPE    C2 5437   6.272   6.359   5.118  0.1016  0.0474  0.3847
   43DOPE    HS 5438   6.330   6.332   5.027 -0.9031  1.1851 -0.6249
   43DOPE   O21 5439   6.238   6.248   5.201 -0.4890 -0.3631 -0.3843
   43DOPE   C21 5440   6.335   6.156   5.208  0.6348 -0.4920 -0.2997
   43DOPE   O22 5441   6.442   6.171   5.149  0.2461  0.0133 -0.0979
   43DOPE   C22 5442   6.276   6.033   5.280 -0.3003 -0.2464 -0.1738
   43DOPE   H2R 5443   6.240   5.962   5.203  0.8101 -2.7438  1.5108
   43DOPE   H2S 5444   6.195   6.074   5.344 -0.2612 -1.3870  0.6211
   43DOPE    C3 5445   6.357   6.467   5.189 -0.0059  0.6602 -0.2737
   43DOPE    HX 5446   6.383   6.547   5.117 -2.9266  1.1468 -0.8750
   43DOPE    HY 5447   6.461   6.432   5.211 -0.3040  0.0914  0.2645
   43DOPE   O31 5448   6.295   6.531   5.299 -0.4432  0.0535 -0.2546
   43DOPE   C31 5449   6.290   6.452   5.408 -0.0055 -0.3818 -0.1763
   43DOPE   O32 5450   6.366   6.362   5.436  0.3001  0.7669 -0.2921
   43DOPE   C32 5451   6.164   6.488   5.479  0.0914  0.0442 -0.2513
   43DOPE   H2X 5452   6.172   6.597   5.494  1.5769  0.4225 -3.0715
   43DOPE   H2Y 5453   6.072   6.482   5.417 -0.0872  0.6491 -0.0472
   43DOPE   C23 5454   6.377   5.971   5.366 -0.4910 -0.3848 -0.3945
   43DOPE   H3R 5455   6.479   5.961   5.324 -0.8145  0.0155 -1.2921
   43DOPE   H3S 5456   6.342   5.870   5.399 -1.9418  0.5921  1.2240
   43DOPE   C24 5457   6.403   6.047   5.497 -0.8918 -0.5775 -0.6470
   43DOPE   H4R 5458   6.309   6.090   5.538 -1.0669 -0.5458 -1.0744
   43DOPE   H4S 5459   6.480   6.125   5.477 -0.0533 -1.6729 -1.8384
   43DOPE   C25 5460   6.474   5.961   5.606 -0.1570 -0.0259 -0.4792
   43DOPE   H5R 5461   6.571   5.934   5.561  0.7171  0.1180  1.2347
   43DOPE   H5S 5462   6.421   5.864   5.619  1.7398 -0.6711  4.7770
   43DOPE   C26 5463   6.484   6.044   5.736  0.1841 -0.6132  0.2290
   43DOPE   H6R 5464   6.382   6.079   5.765 -0.4926 -1.5741 -0.8970
   43DOPE   H6S 5465   6.546   6.135   5.726  0.5253 -0.8023  0.6085
   43DOPE   C27 5466   6.539   5.965   5.854 -0.9975  0.5376 -0.1837
   43DOPE   H7R 5467   6.650   5.966   5.856 -0.9800 -0.4475  0.9264
   43DOPE   H7S 5468   6.499   5.861   5.848 -0.8251  0.2715  2.2417
   43DOPE   C28 5469   6.496   6.004   5.993 -0.0133 -0.0298 -0.2371
   43DOPE   H8R 5470   6.540   5.943   6.074 -0.5918 -0.0608  0.0614
   43DOPE   H8S 5471   6.388   5.980   5.989 -0.7357  2.7164  0.1401
   43DOPE   C29 5472   6.528   6.147   6.024 -0.4147 -0.8442 -0.4149
   43DOPE   H9R 5473   6.459   6.222   5.983  0.2681 -0.5124 -0.9785
   43DOPE  C210 5474   6.626   6.195   6.107  0.2244  0.1461 -0.0548
   43DOPE  H10R 5475   6.625   6.304   6.116  1.7415  0.2617 -1.0299
   43DOPE  C211 5476   6.731   6.115   6.185  0.5885 -0.3264 -0.3911
   43DOPE  H11R 5477   6.826   6.167   6.211  0.3326 -0.4872  0.9263
   43DOPE  H11S 5478   6.739   6.023   6.123 -1.6665  0.1013 -1.4202
   43DOPE  C212 5479   6.680   6.081   6.326  0.3718 -0.2116 -0.5579
   43DOPE  H12R 5480   6.584   6.024   6.322  0.4337 -0.2240 -2.6926
   43DOPE  H12S 5481   6.664   6.179   6.376 -0.8087 -1.3268  1.3738
   43DOPE  C213 5482   6.787   6.001   6.410  0.1792  0.4746  0.6869
   43DOPE  H13R 5483   6.887   6.048   6.397  1.6955 -1.8979  2.9646
   43DOPE  H13S 5484   6.809   5.900   6.368  1.1354  0.0130  2.2310
   43DOPE  C214 5485   6.740   5.973   6.552  0.1634  0.0800 -0.8186
   43DOPE  H14R 5486   6.648   5.909   6.551 -0.8495  1.4403  0.6102
   43DOPE  H14S 5487   6.715   6.072   6.595  0.0656 -0.9635  1.7226
   43DOPE  C215 5488   6.853   5.920   6.640 -0.6412 -0.0203 -0.3457
   43DOPE  H15R 5489   6.932   5.999   6.635  0.5703 -1.1295  0.5832
   43DOPE  H15S 5490   6.890   5.826   6.594  2.9953  1.8533 -1.6517
   43DOPE  C216 5491   6.823   5.914   6.790  0.1062 -0.2197 -0.0639
   43DOPE  H16R 5492   6.734   5.851   6.813 -1.2719  2.6324  3.3363
   43DOPE  H16S 5493   6.808   6.016   6.831 -1.9456 -0.3593 -0.3601
   43DOPE  C217 5494   6.955   5.848   6.843  0.7360 -0.0778  0.4732
   43DOPE  H17R 5495   7.026   5.926   6.809  1.1094 -1.5362 -2.3988
   43DOPE  H17S 5496   6.980   5.755   6.787  0.8077 -0.2543  0.7976
   43DOPE  C218 5497   6.966   5.832   6.997 -0.6723  0.1081  0.3645
   43DOPE  H18R 5498   6.874   5.780   7.031 -0.3319  0.0615  1.2566
   43DOPE  H18S 5499   6.976   5.929   7.050  0.3791  0.3637 -0.2759
   43DOPE  H18T 5500   7.059   5.776   7.021 -0.7641 -0.8490 -1.3434
   43DOPE   C33 5501   6.145   6.406   5.610  0.0781  0.1072 -0.7606
   43DOPE   H3X 5502   6.169   6.298   5.604 -1.2687 -0.3295  0.9093
   43DOPE   H3Y 5503   6.041   6.411   5.649  0.2623 -2.5488  0.2805
   43DOPE   C34 5504   6.229   6.455   5.723  0.0979 -0.2416 -0.2256
   43DOPE   H4X 5505   6.234   6.374   5.799 -1.2360  1.1347  1.4184
   43DOPE   H4Y 5506   6.330   6.470   5.680  0.0016  0.7289 -0.1305
   43DOPE   C35 5507   6.173   6.581   5.795 -0.5541  0.6771  0.0723
   43DOPE   H5X 5508   6.066   6.564   5.819 -0.5224  1.3236  0.7245
   43DOPE   H5Y 5509   6.174   6.675   5.735 -4.2025  0.4501 -0.5683
   43DOPE   C36 5510   6.241   6.612   5.934  0.7094 -0.1403  0.5732
   43DOPE   H6X 5511   6.196   6.709   5.964  0.4500 -0.5637  1.5872
   43DOPE   H6Y 5512   6.350   6.626   5.918  1.1605  1.0531  3.8860
   43DOPE   C37 5513   6.230   6.508   6.037 -0.3884  0.3003  0.3798
   43DOPE   H7X 5514   6.123   6.505   6.065 -1.1382 -0.6290 -2.2224
   43DOPE   H7Y 5515   6.247   6.407   5.993  2.2056  0.3117  1.2108
   43DOPE   C38 5516   6.328   6.523   6.152 -0.0631 -0.0284 -0.4648
   43DOPE   H8X 5517   6.431   6.544   6.116 -0.9897  1.6680 -2.3302
   43DOPE   H8Y 5518   6.335   6.424   6.203 -2.4267  0.7393  1.5199
   43DOPE   C39 5519   6.304   6.642   6.243 -0.3101 -0.3525 -0.2272
   43DOPE   H9X 5520   6.315   6.742   6.198  2.6896 -0.9601 -1.0940
   43DOPE  C310 5521   6.251   6.632   6.368  0.3123  0.0133  0.2276
   43DOPE  H10X 5522   6.236   6.728   6.419  0.8026  0.7627 -1.0066
   43DOPE  C311 5523   6.202   6.506   6.432 -0.1016  0.3772  0.0296
   43DOPE  H11X 5524   6.162   6.435   6.357 -0.7083 -0.8462  1.4592
   43DOPE  H11Y 5525   6.288   6.465   6.490 -0.6731 -0.7535  0.1121
   43DOPE  C312 5526   6.079   6.525   6.532  0.1000 -0.1437 -0.5936
   43DOPE  H12X 5527   6.058   6.420   6.561  2.0471 -0.6014 -0.7121
   43DOPE  H12Y 5528   6.001   6.577   6.473  1.3370  0.0676 -2.0964
   43DOPE  C313 5529   6.115   6.593   6.667  0.2712 -0.4318  0.2556
   43DOPE  H13X 5530   6.203   6.534   6.701  0.8977  1.6597  2.5455
   43DOPE  H13Y 5531   6.153   6.696   6.650  3.0105 -1.4611 -0.4114
   43DOPE  C314 5532   6.011   6.579   6.772 -0.0223  0.3287 -0.0766
   43DOPE  H14X 5533   6.030   6.487   6.830 -1.5948 -2.0083 -2.9929
   43DOPE  H14Y 5534   5.909   6.574   6.728  0.2477 -2.3563 -0.5438
   43DOPE  C315 5535   6.020   6.716   6.861  0.0419 -0.2772  0.2246
   43DOPE  H15X 5536   5.987   6.804   6.802 -0.6935 -1.0099 -0.4808
   43DOPE  H15Y 5537   6.125   6.734   6.892  1.0837 -0.6337 -2.7586
   43DOPE  C316 5538   5.928   6.716   6.990 -0.4259 -0.8359 -0.1344
   43DOPE  H16X 5539   5.929   6.819   7.032  0.9448 -0.9953  0.2729
   43DOPE  H16Y 5540   5.962   6.637   7.060 -0.1379 -0.9406 -0.3896
   43DOPE  C317 5541   5.775   6.689   6.958  0.5899 -0.2012 -0.8698
   43DOPE  H17X 5542   5.756   6.580   6.946 -2.8973  0.1938 -0.2604
   43DOPE  H17Y 5543   5.717   6.700   7.052  1.9217 -1.3055  0.1185
   43DOPE  C318 5544   5.711   6.773   6.853 -0.2310  0.2437 -0.0804
   43DOPE  H18X 5545   5.696   6.876   6.892  0.1224  0.5065 -0.6342
   43DOPE  H18Y 5546   5.771   6.778   6.760 -0.9465  1.0980 -0.5146
   43DOPE  H18Z 5547   5.609   6.732   6.835 -0.6968  0.8142  1.1127
   44DOPE     N 5548   2.517   5.128   3.860  0.0694 -0.4634  0.6305
   44DOPE   HN1 5549   2.486   5.224   3.834  2.3272  0.1302 -0.0905
   44DOPE   HN2 5550   2.525   5.128   3.963 -2.4673 -0.9176  0.9049
   44DOPE   HN3 5551   2.610   5.121   3.815 -0.5354 -0.4243 -0.6813
   44DOPE   C12 5552   2.420   5.027   3.809  0.0763 -0.1221  0.1470
   44DOPE  H12A 5553   2.410   5.022   3.699 -1.3409 -0.2510  0.2636
   44DOPE  H12B 5554   2.320   5.045   3.856  0.6670 -0.3926  1.5573
   44DOPE   C11 5555   2.466   4.880   3.854  0.4841 -0.2972 -0.1558
   44DOPE  H11A 5556   2.399   4.808   3.801  0.4820 -0.9946  0.7701
   44DOPE  H11B 5557   2.462   4.867   3.964  1.6973  1.0181  0.0636
   44DOPE     P 5558   2.688   4.744   3.827 -0.3424  0.1229 -0.1915
   44DOPE   O13 5559   2.804   4.763   3.737  0.0764  0.1851 -0.0501
   44DOPE   O14 5560   2.600   4.628   3.811 -0.0086  0.2418  0.1944
   44DOPE   O11 5561   2.727   4.752   3.977  0.2580  0.5772  0.0794
   44DOPE   O12 5562   2.594   4.863   3.794 -0.1076 -0.7079 -0.1048
   44DOPE    C1 5563   2.776   4.868   4.038  0.4958 -0.3116  0.3405
   44DOPE    HA 5564   2.730   4.962   4.001  1.2987  0.1061  0.3717
   44DOPE    HB 5565   2.886   4.875   4.028  0.7312 -1.4826  1.7235
   44DOPE    C2 5566   2.749   4.857   4.192  0.0056  0.0136  0.0045
   44DOPE    HS 5567   2.777   4.956   4.235  1.5690 -0.1401 -0.5854
   44DOPE   O21 5568   2.810   4.745   4.256 -0.9006 -0.5236 -0.0516
   44DOPE   C21 5569   2.902   4.768   4.337  0.4012  0.2654 -0.2888
   44DOPE   O22 5570   2.943   4.873   4.378  0.0284  0.1430 -0.1381
   44DOPE   C22 5571   2.950   4.631   4.385 -0.1962  0.7957 -0.4298
   44DOPE   H2R 5572   3.003   4.578   4.304 -0.8036 -0.9404  0.2550
   44DOPE   H2S 5573   2.873   4.557   4.415  1.8940 -1.6409 -0.7098
   44DOPE    C3 5574   2.596   4.841   4.222  0.1765 -0.3286 -0.1530
   44DOPE    HX 5575   2.568   4.750   4.163  0.5332  1.1471 -2.7570
   44DOPE    HY 5576   2.540   4.926   4.180 -0.0503 -0.1097  0.5869
   44DOPE   O31 5577   2.561   4.828   4.363  0.4107  0.5055  0.0358
   44DOPE   C31 5578   2.563   4.702   4.410 -0.3769  0.0876 -0.4238
   44DOPE   O32 5579   2.592   4.605   4.342  0.1307  0.4704 -0.4334
   44DOPE   C32 5580   2.557   4.702   4.567  0.3876  0.4501  0.1395
   44DOPE   H2X 5581   2.663   4.687   4.595  0.6178  1.6696  0.0007
   44DOPE   H2Y 5582   2.534   4.806   4.598  2.2967  0.2908  2.3608
   44DOPE   C23 5583   3.045   4.635   4.512 -0.4910  0.7385 -0.0816
   44DOPE   H3R 5584   3.137   4.696   4.502 -0.5365  0.9349  0.6298
   44DOPE   H3S 5585   3.079   4.533   4.540 -1.9460 -0.0940 -1.1872
   44DOPE   C24 5586   2.976   4.673   4.646  0.0678  0.0601  1.0006
   44DOPE   H4R 5587   2.879   4.619   4.655  0.2320 -0.5322 -0.5025
   44DOPE   H4S 5588   2.956   4.782   4.651  0.1653  0.0281  3.5002
   44DOPE   C25 5589   3.053   4.647   4.770 -0.0457 -0.1770  0.0964
   44DOPE   H5R 5590   3.158   4.684   4.768  0.0469 -0.4396 -2.0570
   44DOPE   H5S 5591   3.073   4.538   4.784 -0.7118 -0.6055 -1.9350
   44DOPE   C26 5592   2.971   4.695   4.892  0.0289  0.4706 -0.0901
   44DOPE   H6R 5593   2.872   4.646   4.901  0.7228 -1.0537 -0.4018
   44DOPE   H6S 5594   2.969   4.806   4.892  1.9148  0.5483 -0.3558
   44DOPE   C27 5595   3.062   4.677   5.018  0.1993 -0.4231  0.2403
   44DOPE   H7R 5596   3.131   4.764   5.022 -0.4444  0.0809  0.3763
   44DOPE   H7S 5597   3.116   4.582   4.996  1.6339  0.3070  0.4934
   44DOPE   C28 5598   2.992   4.671   5.153  0.4514  0.4286 -0.1494
   44DOPE   H8R 5599   3.054   4.609   5.222 -0.3494  1.5445  1.6393
   44DOPE   H8S 5600   2.901   4.607   5.156  0.6098  0.2365  1.9284
   44DOPE   C29 5601   2.968   4.798   5.226  0.5506 -0.0047  0.1535
   44DOPE   H9R 5602   2.936   4.875   5.153  1.9902  1.2357  0.7838
   44DOPE  C210 5603   2.996   4.825   5.350  0.6694 -0.5525  0.6982
   44DOPE  H10R 5604   2.988   4.928   5.388  2.7108 -0.9897  2.5263
   44DOPE  C211 5605   3.041   4.743   5.473  0.0888 -0.0643  0.7837
   44DOPE  H11R 5606   3.109   4.802   5.537 -0.3157  0.6792  0.5311
   44DOPE  H11S 5607   3.090   4.646   5.448  0.8237  0.7833 -1.3107
   44DOPE  C212 5608   2.912   4.711   5.553 -0.3478  0.4137  0.3250
   44DOPE  H12R 5609   2.854   4.636   5.495 -0.8664  0.7701  0.3691
   44DOPE  H12S 5610   2.846   4.799   5.570  0.1479  1.2288 -1.6692
   44DOPE  C213 5611   2.942   4.637   5.688 -0.3057 -0.1590  0.4501
   44DOPE  H13R 5612   2.984   4.535   5.668 -0.5805 -0.7848  2.8179
   44DOPE  H13S 5613   2.843   4.619   5.735 -1.2972  1.2509 -0.9880
   44DOPE  C214 5614   3.022   4.724   5.785  0.1702  0.5093 -0.0993
   44DOPE  H14R 5615   2.980   4.827   5.787  1.6861  1.1478  0.9136
   44DOPE  H14S 5616   3.124   4.727   5.742 -0.0549  0.7759 -0.6224
   44DOPE  C215 5617   3.023   4.672   5.930  0.3156 -0.4936 -0.4745
   44DOPE  H15R 5618   2.913   4.661   5.945  0.3612  0.6674  0.9870
   44DOPE  H15S 5619   3.065   4.751   5.996  2.0406 -1.9308  0.2244
   44DOPE  C216 5620   3.095   4.538   5.960  0.1763 -0.2802  0.5576
   44DOPE  H16R 5621   3.206   4.544   5.961  0.1873 -0.4613  0.5062
   44DOPE  H16S 5622   3.079   4.463   5.880  1.4902 -1.5760  1.4554
   44DOPE  C217 5623   3.054   4.480   6.095 -1.0732 -0.3180 -0.6154
   44DOPE  H17R 5624   3.066   4.551   6.179  0.7003 -1.2129 -0.0466
   44DOPE  H17S 5625   3.124   4.397   6.122  1.2783  1.8948  0.4773
   44DOPE  C218 5626   2.911   4.434   6.090  0.3360  0.5475 -0.2913
   44DOPE  H18R 5627   2.871   4.375   6.175 -1.4343  2.1525  0.0521
   44DOPE  H18S 5628   2.897   4.366   6.003  1.2865 -0.0500  0.0170
   44DOPE  H18T 5629   2.841   4.520   6.084  1.4112  1.5106  0.5081
   44DOPE   C33 5630   2.453   4.610   4.636 -1.0830  0.0226  0.5495
   44DOPE   H3X 5631   2.485   4.507   4.612  0.9466  1.0771 -1.6622
   44DOPE   H3Y 5632   2.353   4.626   4.589 -0.8234 -0.1371 -0.0690
   44DOPE   C34 5633   2.446   4.635   4.789  0.1974  0.6238  0.1311
   44DOPE   H4X 5634   2.430   4.739   4.824 -2.6777  0.1932  0.3261
   44DOPE   H4Y 5635   2.366   4.580   4.842  1.9256  1.5477  4.0085
   44DOPE   C35 5636   2.578   4.585   4.856 -0.3403  0.7016 -0.0244
   44DOPE   H5X 5637   2.663   4.638   4.808 -1.6100  2.5506 -0.3526
   44DOPE   H5Y 5638   2.595   4.476   4.853  0.4268  0.8293 -0.6643
   44DOPE   C36 5639   2.590   4.613   5.006  0.0695 -0.2688 -0.1288
   44DOPE   H6X 5640   2.592   4.723   5.024  0.0454 -0.2020 -0.5111
   44DOPE   H6Y 5641   2.694   4.584   5.032  1.2905  2.3394 -1.6249
   44DOPE   C37 5642   2.493   4.540   5.099  0.6402 -0.4785  0.5138
   44DOPE   H7X 5643   2.391   4.556   5.058 -0.7566 -1.7153  3.2141
   44DOPE   H7Y 5644   2.514   4.431   5.089 -0.6463 -0.6461 -0.7365
   44DOPE   C38 5645   2.513   4.562   5.254  0.5548  0.1851  0.5833
   44DOPE   H8X 5646   2.466   4.660   5.275  1.6538  0.4381  2.0121
   44DOPE   H8Y 5647   2.623   4.576   5.267  1.1304  0.7164 -3.3626
   44DOPE   C39 5648   2.455   4.449   5.335 -0.5251 -0.1814 -0.0544
   44DOPE   H9X 5649   2.422   4.358   5.283 -1.7603 -0.3460  0.9883
   44DOPE  C310 5650   2.445   4.452   5.471  0.6074  0.3167 -0.1522
   44DOPE  H10X 5651   2.411   4.365   5.528 -1.0618  1.2034  0.2496
   44DOPE  C311 5652   2.492   4.569   5.556  0.5477 -0.3048  0.6331
   44DOPE  H11X 5653   2.542   4.649   5.498  0.8575 -1.3610 -0.5941
   44DOPE  H11Y 5654   2.402   4.616   5.602  1.4237  0.7369  1.3532
   44DOPE  C312 5655   2.589   4.534   5.674 -0.5887 -0.5427  0.1792
   44DOPE  H12X 5656   2.631   4.623   5.726  0.3530 -1.1645  0.5161
   44DOPE  H12Y 5657   2.671   4.471   5.633 -1.7736 -0.7456 -2.0056
   44DOPE  C313 5658   2.508   4.458   5.781  1.1053  0.2885 -0.6769
   44DOPE  H13X 5659   2.411   4.509   5.799  1.1653  0.1573  0.0445
   44DOPE  H13Y 5660   2.479   4.361   5.734  1.3308  0.2758 -0.7911
   44DOPE  C314 5661   2.581   4.423   5.910 -0.3440  0.5467  0.0177
   44DOPE  H14X 5662   2.630   4.510   5.959  4.0824 -0.7051 -1.7689
   44DOPE  H14Y 5663   2.670   4.357   5.905  0.3697  1.1428  2.6953
   44DOPE  C315 5664   2.485   4.346   6.006  0.3740  0.0171 -0.3203
   44DOPE  H15X 5665   2.434   4.269   5.944 -0.4314  1.2664 -1.2502
   44DOPE  H15Y 5666   2.402   4.407   6.046 -1.2899 -2.0744 -0.4132
   44DOPE  C316 5667   2.557   4.265   6.117  1.2084  0.2946  0.7418
   44DOPE  H16X 5668   2.490   4.243   6.203 -0.4571  0.8419 -0.3724
   44DOPE  H16Y 5669   2.632   4.330   6.167  0.6377 -0.5254  2.7743
   44DOPE  C317 5670   2.615   4.134   6.065  0.0741  0.2773 -0.2685
   44DOPE  H17X 5671   2.538   4.058   6.039  1.3918 -0.4790 -2.1283
   44DOPE  H17Y 5672   2.679   4.146   5.976  1.7379  0.4982  0.9055
   44DOPE  C318 5673   2.718   4.078   6.173  0.7494  0.4057 -0.1651
   44DOPE  H18X 5674   2.660   4.076   6.268  1.9569  1.7567  0.6439
   44DOPE  H18Y 5675   2.765   3.979   6.158 -0.0297 -0.2989  1.6206
   44DOPE  H18Z 5676   2.805   4.146   6.180  0.9443  0.0235  1.5986
   45DOPE     N 5677   4.552   3.366   3.752 -0.6073  0.2947 -0.1142
   45DOPE   HN1 5678   4.556   3.317   3.844 -1.4135 -0.6916 -0.5844
   45DOPE   HN2 5679   4.463   3.355   3.699 -0.1970 -0.0617 -0.7457
   45DOPE   HN3 5680   4.632   3.328   3.698 -0.7503 -2.0021  1.1807
   45DOPE   C12 5681   4.584   3.506   3.789 -0.0977 -0.2873  0.3336
   45DOPE  H12A 5682   4.545   3.527   3.891  0.1999 -1.6420  0.7406
   45DOPE  H12B 5683   4.533   3.578   3.721 -1.2125 -0.8382  0.5743
   45DOPE   C11 5684   4.731   3.548   3.789  0.1541  0.2934  0.4955
   45DOPE  H11A 5685   4.782   3.536   3.692  0.4992 -1.3893  0.8608
   45DOPE  H11B 5686   4.776   3.470   3.854 -0.2288 -0.0159  0.3924
   45DOPE     P 5687   4.789   3.704   3.995 -0.1886  0.0039 -0.0111
   45DOPE   O13 5688   4.826   3.843   4.023 -0.6270  0.1381  0.0119
   45DOPE   O14 5689   4.894   3.601   4.024 -0.3218  0.1896 -0.2876
   45DOPE   O11 5690   4.659   3.669   4.078 -0.4764 -0.2585 -0.1448
   45DOPE   O12 5691   4.745   3.681   3.842  0.1294  0.1742 -0.1993
   45DOPE    C1 5692   4.539   3.745   4.067 -0.0943  0.4236 -0.5621
   45DOPE    HA 5693   4.483   3.709   3.978  0.2234 -2.4179  0.2980
   45DOPE    HB 5694   4.562   3.854   4.060 -0.1025  0.4815  0.2597
   45DOPE    C2 5695   4.446   3.724   4.197  0.1922 -0.0614  0.2242
   45DOPE    HS 5696   4.407   3.826   4.218  1.7030  0.4313  0.8276
   45DOPE   O21 5697   4.528   3.690   4.310 -0.7238  0.2400 -0.4454
   45DOPE   C21 5698   4.614   3.783   4.346 -0.5085 -0.2432 -0.2105
   45DOPE   O22 5699   4.604   3.900   4.315 -0.3699  0.4711 -0.6160
   45DOPE   C22 5700   4.717   3.716   4.441  0.3766 -0.0582 -0.5157
   45DOPE   H2R 5701   4.798   3.678   4.374  0.0513 -0.6827 -0.5597
   45DOPE   H2S 5702   4.671   3.643   4.511  0.1943 -1.3043 -1.8858
   45DOPE    C3 5703   4.331   3.619   4.186 -0.1573 -0.5085  0.4404
   45DOPE    HX 5704   4.369   3.526   4.141 -0.5494 -0.7028  0.5048
   45DOPE    HY 5705   4.251   3.662   4.121 -0.9350 -0.6974  1.2451
   45DOPE   O31 5706   4.261   3.589   4.315 -0.3641  0.1452  0.0648
   45DOPE   C31 5707   4.182   3.684   4.358 -0.5425 -0.0734 -0.9036
   45DOPE   O32 5708   4.174   3.801   4.318  0.2162  0.1846 -0.5089
   45DOPE   C32 5709   4.101   3.648   4.484  0.0279 -0.1796  0.0281
   45DOPE   H2X 5710   4.001   3.694   4.474 -0.4186 -0.7975  1.3993
   45DOPE   H2Y 5711   4.096   3.538   4.491 -0.3431 -0.1074  1.0713
   45DOPE   C23 5712   4.774   3.819   4.539 -0.9280  0.5465 -0.1231
   45DOPE   H3R 5713   4.690   3.865   4.595 -0.6235 -0.6918  1.4364
   45DOPE   H3S 5714   4.823   3.894   4.474 -0.6631 -1.1656 -1.9943
   45DOPE   C24 5715   4.867   3.747   4.631 -0.2704 -0.0613 -0.5517
   45DOPE   H4R 5716   4.927   3.676   4.570 -0.3441 -0.1048 -0.5735
   45DOPE   H4S 5717   4.797   3.693   4.698 -0.7046  1.1887  0.0266
   45DOPE   C25 5718   4.964   3.839   4.717 -0.3243  0.2920  1.4202
   45DOPE   H5R 5719   4.919   3.940   4.704  1.3106  0.9373  0.4234
   45DOPE   H5S 5720   5.065   3.847   4.671 -1.4104 -1.0109 -1.4683
   45DOPE   C26 5721   4.962   3.800   4.868  1.3455  0.2228 -0.2170
   45DOPE   H6R 5722   4.990   3.693   4.884  1.1553 -0.0150 -1.3867
   45DOPE   H6S 5723   4.854   3.799   4.894  1.4587  1.8067  0.4318
   45DOPE   C27 5724   5.036   3.899   4.953 -0.0822  0.4269 -0.3687
   45DOPE   H7R 5725   4.994   3.995   4.917  0.0389  1.0521  1.0884
   45DOPE   H7S 5726   5.145   3.895   4.931  0.3427 -1.6167  1.7218
   45DOPE   C28 5727   5.019   3.895   5.104  0.8136  0.3666 -0.3396
   45DOPE   H8R 5728   4.910   3.884   5.126  0.4673 -0.0171 -2.0441
   45DOPE   H8S 5729   5.044   3.990   5.156 -0.9224  0.0589  1.1717
   45DOPE   C29 5730   5.101   3.782   5.167  0.6684 -0.3084 -0.1941
   45DOPE   H9R 5731   5.197   3.772   5.114  0.3181  1.2572 -1.1875
   45DOPE  C210 5732   5.070   3.711   5.277  0.0240  0.0183 -0.1845
   45DOPE  H10R 5733   5.135   3.626   5.306  0.3860 -0.4420 -2.1961
   45DOPE  C211 5734   4.954   3.728   5.365  0.2478  0.8293  0.1262
   45DOPE  H11R 5735   4.888   3.640   5.350  0.2281  0.9260 -0.3977
   45DOPE  H11S 5736   4.892   3.813   5.332 -1.4877 -0.2471  0.5036
   45DOPE  C212 5737   4.968   3.739   5.524  0.1656  0.3240  0.0358
   45DOPE  H12R 5738   5.063   3.792   5.545  1.3041 -1.6020 -0.0468
   45DOPE  H12S 5739   4.979   3.640   5.572 -3.3565 -0.5684 -0.6699
   45DOPE  C213 5740   4.851   3.807   5.598  0.0275 -0.1064  0.3088
   45DOPE  H13R 5741   4.755   3.783   5.547  1.4973 -2.6789 -1.4558
   45DOPE  H13S 5742   4.867   3.916   5.584  0.1457 -0.0717  0.6921
   45DOPE  C214 5743   4.856   3.790   5.747 -0.7638  0.0029  0.1860
   45DOPE  H14R 5744   4.947   3.836   5.791 -0.4397 -0.5510  0.1120
   45DOPE  H14S 5745   4.884   3.685   5.772  1.0406  0.4404  0.1515
   45DOPE  C215 5746   4.728   3.826   5.817  0.1708  0.1285 -0.1578
   45DOPE  H15R 5747   4.651   3.766   5.764  0.4395 -0.1531 -0.2271
   45DOPE  H15S 5748   4.710   3.935   5.804  1.0052  0.5817  2.0020
   45DOPE  C216 5749   4.713   3.795   5.970  0.5054  0.4339  0.6692
   45DOPE  H16R 5750   4.741   3.687   5.972  1.4573  0.6306 -0.5098
   45DOPE  H16S 5751   4.607   3.802   6.002  0.7047  1.2256  1.1793
   45DOPE  C217 5752   4.796   3.874   6.067  0.3873 -0.3103 -0.4752
   45DOPE  H17R 5753   4.774   3.980   6.046 -2.2944 -0.7508 -0.2339
   45DOPE  H17S 5754   4.904   3.862   6.045  0.4029 -0.4502 -0.3346
   45DOPE  C218 5755   4.767   3.841   6.212  0.6594  0.0879  0.1413
   45DOPE  H18R 5756   4.773   3.733   6.233  1.0968  0.3999  1.7868
   45DOPE  H18S 5757   4.666   3.878   6.242  0.0728  0.6378 -2.3210
   45DOPE  H18T 5758   4.840   3.890   6.280  1.5786  0.3801 -1.0251
   45DOPE   C33 5759   4.175   3.699   4.611 -0.8731  0.1088 -0.7194
   45DOPE   H3X 5760   4.123   3.671   4.705 -0.9014 -1.4897 -1.1828
   45DOPE   H3Y 5761   4.171   3.810   4.605 -0.7610  0.0671 -1.8411
   45DOPE   C34 5762   4.319   3.650   4.641  0.3332  0.3341 -0.1162
   45DOPE   H4X 5763   4.316   3.546   4.680 -0.3848  0.2011 -0.4934
   45DOPE   H4Y 5764   4.384   3.654   4.552  0.4830 -1.2271 -0.1103
   45DOPE   C35 5765   4.391   3.725   4.750  0.5473  0.5519  0.1482
   45DOPE   H5X 5766   4.323   3.758   4.832  0.9514  1.0115  0.3040
   45DOPE   H5Y 5767   4.437   3.819   4.712  0.7261  0.0573 -0.8910
   45DOPE   C36 5768   4.505   3.636   4.801  0.8618  0.0090  0.4522
   45DOPE   H6X 5769   4.565   3.609   4.711  0.4736 -0.8877  0.4563
   45DOPE   H6Y 5770   4.461   3.545   4.847  2.1683 -0.8356  0.0871
   45DOPE   C37 5771   4.594   3.690   4.910 -0.3989  0.1533 -0.2197
   45DOPE   H7X 5772   4.687   3.631   4.930  2.0060  2.7934 -2.6267
   45DOPE   H7Y 5773   4.646   3.782   4.876 -0.6254 -0.8584 -3.5968
   45DOPE   C38 5774   4.514   3.727   5.043 -0.2378 -0.2114  0.3040
   45DOPE   H8X 5775   4.465   3.634   5.079  1.1993 -0.9356  0.4465
   45DOPE   H8Y 5776   4.426   3.791   5.021 -1.2807 -1.1240  1.6181
   45DOPE   C39 5777   4.600   3.799   5.148  0.1169  0.5794  0.3149
   45DOPE   H9X 5778   4.667   3.874   5.104 -0.4906  0.3707 -1.0297
   45DOPE  C310 5779   4.617   3.773   5.277  0.3698  0.2891 -0.5465
   45DOPE  H10X 5780   4.685   3.845   5.325 -1.1515  0.5158  1.3836
   45DOPE  C311 5781   4.567   3.651   5.367  0.2229 -0.3887 -0.6155
   45DOPE  H11X 5782   4.546   3.564   5.301 -1.0179  0.3768 -1.2706
   45DOPE  H11Y 5783   4.647   3.630   5.442  1.5626  2.7783 -0.9891
   45DOPE  C312 5784   4.436   3.682   5.436  0.3464  0.0555  0.2057
   45DOPE  H12X 5785   4.411   3.592   5.495 -0.2704  1.6331  2.4912
   45DOPE  H12Y 5786   4.351   3.681   5.364  1.6867 -0.9411 -1.4595
   45DOPE  C313 5787   4.427   3.789   5.539 -0.2612  0.5283 -0.2204
   45DOPE  H13X 5788   4.531   3.795   5.578  0.0661  0.4386 -1.0639
   45DOPE  H13Y 5789   4.415   3.890   5.493  1.9912  2.1270  2.3501
   45DOPE  C314 5790   4.332   3.755   5.652  0.6133 -0.1751  0.0737
   45DOPE  H14X 5791   4.353   3.653   5.691  0.3800 -0.3955 -0.3710
   45DOPE  H14Y 5792   4.232   3.768   5.606  0.7350  0.6474  0.0260
   45DOPE  C315 5793   4.338   3.858   5.767  0.2803 -0.0340 -0.0894
   45DOPE  H15X 5794   4.308   3.960   5.736 -0.6292 -0.3554 -0.2837
   45DOPE  H15Y 5795   4.447   3.863   5.789  0.2628 -3.1217  1.2866
   45DOPE  C316 5796   4.239   3.823   5.884 -0.0093  0.3628  0.0019
   45DOPE  H16X 5797   4.261   3.720   5.918 -1.2658 -0.4968 -1.6399
   45DOPE  H16Y 5798   4.139   3.815   5.836 -0.2825  0.1629  0.5904
   45DOPE  C317 5799   4.239   3.918   6.002 -0.3353 -0.0185  0.6764
   45DOPE  H17X 5800   4.336   3.935   6.053 -0.7929 -1.4725  2.1373
   45DOPE  H17Y 5801   4.210   4.018   5.964  1.3630 -0.3700 -1.7682
   45DOPE  C318 5802   4.129   3.878   6.100 -0.1301  0.2134 -0.6502
   45DOPE  H18X 5803   4.166   3.805   6.175 -3.2122  0.3422  1.1382
   45DOPE  H18Y 5804   4.093   3.967   6.156  1.2562 -0.8216  2.0373
   45DOPE  H18Z 5805   4.039   3.839   6.048 -1.2031  1.2963  0.3354
   46DOPE     N 5806   3.622   3.057   3.821  0.1812  0.0409  0.1508
   46DOPE   HN1 5807   3.616   2.970   3.763 -1.0283 -0.4035  0.8958
   46DOPE   HN2 5808   3.526   3.093   3.837 -0.9387 -2.5553 -0.2039
   46DOPE   HN3 5809   3.666   3.117   3.748 -1.3762  0.0979 -0.8008
   46DOPE   C12 5810   3.697   3.046   3.947  0.4246  0.1573  0.4442
   46DOPE  H12A 5811   3.705   3.146   3.995  2.8900 -0.1298  0.7731
   46DOPE  H12B 5812   3.798   3.005   3.924 -0.5478 -0.9668 -2.2691
   46DOPE   C11 5813   3.620   2.948   4.037  0.0106  0.7430 -0.4955
   46DOPE  H11A 5814   3.517   2.988   4.053 -0.2388  0.3163 -1.0213
   46DOPE  H11B 5815   3.657   2.959   4.142 -2.1752  2.8278  0.1613
   46DOPE     P 5816   3.739   2.716   4.031 -0.0675  0.6481  0.1210
   46DOPE   O13 5817   3.867   2.768   3.991 -0.1136 -0.0420  0.2405
   46DOPE   O14 5818   3.704   2.580   3.968 -0.0430 -0.5230 -0.0875
   46DOPE   O11 5819   3.737   2.711   4.193 -0.1916 -0.0453  0.6130
   46DOPE   O12 5820   3.619   2.810   3.989  0.3723 -0.0694  0.5692
   46DOPE    C1 5821   3.621   2.708   4.272  0.5063  0.5609 -0.7860
   46DOPE    HA 5822   3.522   2.695   4.223 -1.2796  1.2399  2.3471
   46DOPE    HB 5823   3.604   2.798   4.335 -2.5818  0.0690 -0.7559
   46DOPE    C2 5824   3.624   2.584   4.376  0.5023 -0.2419 -0.8100
   46DOPE    HS 5825   3.524   2.574   4.424  1.5419 -2.8744  1.0840
   46DOPE   O21 5826   3.711   2.612   4.485 -0.0508  0.1508 -0.3332
   46DOPE   C21 5827   3.685   2.558   4.602  0.3422 -0.6091 -0.3365
   46DOPE   O22 5828   3.588   2.496   4.635  0.7660  0.0800 -0.5180
   46DOPE   C22 5829   3.794   2.598   4.705 -0.2469 -0.2860  0.6968
   46DOPE   H2R 5830   3.814   2.707   4.708 -0.5576 -0.1234 -1.4339
   46DOPE   H2S 5831   3.894   2.552   4.694  0.5940  1.4274  0.8162
   46DOPE    C3 5832   3.639   2.447   4.295 -0.2605  0.0525 -0.5499
   46DOPE    HX 5833   3.739   2.452   4.246  0.7445  0.9587  1.4469
   46DOPE    HY 5834   3.565   2.447   4.213 -0.8728  2.0528 -0.0578
   46DOPE   O31 5835   3.631   2.333   4.380  0.0501 -0.0018  0.3553
   46DOPE   C31 5836   3.512   2.272   4.398 -0.0795 -0.2904  0.4865
   46DOPE   O32 5837   3.413   2.309   4.337 -0.5010  0.0453 -0.3003
   46DOPE   C32 5838   3.525   2.159   4.502 -0.0741 -0.0530 -0.8432
   46DOPE   H2X 5839   3.512   2.061   4.450  0.7800 -1.6324  1.7184
   46DOPE   H2Y 5840   3.624   2.165   4.551  0.7323  1.5113 -2.5462
   46DOPE   C23 5841   3.764   2.554   4.846  0.3490  0.1370  0.1212
   46DOPE   H3R 5842   3.733   2.447   4.838  0.6109  0.1681 -1.7324
   46DOPE   H3S 5843   3.670   2.603   4.881 -0.0258 -0.8408  0.5060
   46DOPE   C24 5844   3.868   2.589   4.956 -0.0932  0.2408  0.2352
   46DOPE   H4R 5845   3.865   2.700   4.962  0.3532  0.2776 -0.1362
   46DOPE   H4S 5846   3.971   2.562   4.923  0.2813  1.6863  0.1529
   46DOPE   C25 5847   3.828   2.536   5.094 -0.4024  0.5328  0.1628
   46DOPE   H5R 5848   3.774   2.442   5.072  1.6586 -0.6184 -0.2177
   46DOPE   H5S 5849   3.748   2.600   5.137 -1.2521  0.6764 -1.5352
   46DOPE   C26 5850   3.932   2.514   5.205 -0.5339  0.1211  0.5620
   46DOPE   H6R 5851   3.974   2.616   5.221 -1.6662  0.4371  1.7801
   46DOPE   H6S 5852   4.021   2.461   5.166 -1.1170 -0.2427 -0.2950
   46DOPE   C27 5853   3.890   2.451   5.337 -0.3404 -0.3952 -0.1007
   46DOPE   H7R 5854   3.982   2.443   5.400 -1.2108 -0.7453  1.1556
   46DOPE   H7S 5855   3.855   2.349   5.309  0.7054 -0.2423 -2.1524
   46DOPE   C28 5856   3.788   2.536   5.410  0.3259 -0.5004 -0.0372
   46DOPE   H8R 5857   3.691   2.549   5.357  1.3491  2.5488 -1.3807
   46DOPE   H8S 5858   3.832   2.632   5.444  0.9610 -0.5503 -0.6938
   46DOPE   C29 5859   3.744   2.452   5.530 -0.6566 -0.6025  0.3437
   46DOPE   H9R 5860   3.666   2.377   5.511  0.4666 -1.7197 -0.0513
   46DOPE  C210 5861   3.791   2.454   5.660 -0.1901  0.3745 -0.2499
   46DOPE  H10R 5862   3.759   2.375   5.729  0.1509  1.1987  0.8953
   46DOPE  C211 5863   3.882   2.553   5.715 -0.6875  0.1517 -0.3082
   46DOPE  H11R 5864   3.864   2.650   5.665  1.2172  1.3149  1.1375
   46DOPE  H11S 5865   3.988   2.534   5.687 -0.3269 -0.1243  1.1502
   46DOPE  C212 5866   3.887   2.598   5.859 -0.0120  0.2810 -0.0625
   46DOPE  H12R 5867   3.942   2.690   5.887  1.7046 -1.2521  2.0115
   46DOPE  H12S 5868   3.936   2.523   5.925 -1.5450  0.1790  1.0143
   46DOPE  C213 5869   3.741   2.601   5.920  0.0748 -0.0677 -0.1559
   46DOPE  H13R 5870   3.700   2.499   5.937 -0.5920  0.5441  2.5004
   46DOPE  H13S 5871   3.675   2.653   5.848 -0.4895  0.9044  1.0209
   46DOPE  C214 5872   3.727   2.671   6.057 -0.3760  0.5334  0.9912
   46DOPE  H14R 5873   3.770   2.773   6.057 -1.9195  1.2376  2.2775
   46DOPE  H14S 5874   3.803   2.624   6.123  0.9497 -0.4364 -1.1057
   46DOPE  C215 5875   3.577   2.677   6.106  0.2137 -0.3874  0.0891
   46DOPE  H15R 5876   3.521   2.587   6.072  0.8956 -0.3391 -1.2145
   46DOPE  H15S 5877   3.530   2.763   6.055  0.0064 -0.3024  0.4168
   46DOPE  C216 5878   3.570   2.694   6.259 -0.0045 -0.5305  0.3609
   46DOPE  H16R 5879   3.613   2.794   6.282  2.1129 -1.1658 -0.6411
   46DOPE  H16S 5880   3.628   2.621   6.319  3.0408  3.2188  2.3959
   46DOPE  C217 5881   3.430   2.715   6.312  0.4692  0.4229 -0.2325
   46DOPE  H17R 5882   3.394   2.805   6.258  1.4759  1.1254  0.2454
   46DOPE  H17S 5883   3.425   2.751   6.417  2.0530 -2.3069  0.8566
   46DOPE  C218 5884   3.331   2.602   6.302  0.7561 -0.7157  0.1360
   46DOPE  H18R 5885   3.365   2.511   6.356  1.7084 -0.6660 -0.3687
   46DOPE  H18S 5886   3.317   2.580   6.194 -1.2714 -0.1212  0.2367
   46DOPE  H18T 5887   3.229   2.634   6.332  0.7401  0.0231 -0.6722
   46DOPE   C33 5888   3.410   2.178   4.604 -0.5121 -0.7784  0.5626
   46DOPE   H3X 5889   3.309   2.152   4.564  0.5039 -1.0121 -1.9955
   46DOPE   H3Y 5890   3.411   2.286   4.628  0.2479 -1.0476  1.8542
   46DOPE   C34 5891   3.435   2.110   4.740  0.1479  0.3924 -0.5288
   46DOPE   H4X 5892   3.338   2.103   4.793  0.7309  3.3813  1.1401
   46DOPE   H4Y 5893   3.473   2.007   4.727  1.4753  0.5336  1.7745
   46DOPE   C35 5894   3.545   2.164   4.830  0.3444 -0.2841 -0.0490
   46DOPE   H5X 5895   3.522   2.269   4.860 -0.5468 -0.3243 -0.5628
   46DOPE   H5Y 5896   3.639   2.171   4.771 -0.5261  3.7115 -1.3175
   46DOPE   C36 5897   3.575   2.072   4.949  0.0948 -0.1788 -0.0710
   46DOPE   H6X 5898   3.611   1.970   4.922  0.5664 -0.0129 -0.0755
   46DOPE   H6Y 5899   3.474   2.049   4.988  0.9713 -2.3050  1.0890
   46DOPE   C37 5900   3.677   2.123   5.052 -0.5947  0.5752  0.1296
   46DOPE   H7X 5901   3.775   2.132   5.001  0.1966 -0.7169  1.3418
   46DOPE   H7Y 5902   3.638   2.221   5.088 -2.0639 -0.3843  1.2611
   46DOPE   C38 5903   3.702   2.031   5.177  0.1461  0.0039 -0.0000
   46DOPE   H8X 5904   3.788   2.073   5.234 -0.3052 -1.5143  1.9071
   46DOPE   H8Y 5905   3.720   1.926   5.145  0.6597  0.3655 -0.9547
   46DOPE   C39 5906   3.581   2.024   5.260  0.2622  0.1481 -0.9893
   46DOPE   H9X 5907   3.485   2.017   5.207 -0.2043 -1.2274 -0.0164
   46DOPE  C310 5908   3.571   2.040   5.394  0.0691  1.0399 -0.4629
   46DOPE  H10X 5909   3.477   2.029   5.449  1.5497 -0.7954  1.9106
   46DOPE  C311 5910   3.687   2.053   5.491  0.3250 -0.5658  0.3982
   46DOPE  H11X 5911   3.790   2.039   5.452 -0.0755 -2.0883 -0.1768
   46DOPE  H11Y 5912   3.666   2.153   5.534 -1.0230 -1.1269  1.0934
   46DOPE  C312 5913   3.684   1.965   5.612 -0.0766  0.2665  0.2821
   46DOPE  H12X 5914   3.691   1.858   5.584 -0.6736 -0.1983  1.7861
   46DOPE  H12Y 5915   3.584   1.970   5.659 -0.9266 -0.5779 -1.3235
   46DOPE  C313 5916   3.790   2.003   5.706 -0.3118  0.0344  0.6743
   46DOPE  H13X 5917   3.888   2.024   5.658  0.3185 -0.0719  1.8758
   46DOPE  H13Y 5918   3.769   2.106   5.741 -1.7416 -0.2195  0.6200
   46DOPE  C314 5919   3.786   1.908   5.822  0.9119 -0.0704 -0.1950
   46DOPE  H14X 5920   3.808   1.803   5.793 -5.0266 -0.9547 -2.7702
   46DOPE  H14Y 5921   3.683   1.911   5.864  1.1356  2.4364  0.3510
   46DOPE  C315 5922   3.890   1.964   5.919 -0.2862  0.9924  0.2292
   46DOPE  H15X 5923   3.859   2.066   5.953 -1.0249  0.9611 -0.3234
   46DOPE  H15Y 5924   3.994   1.972   5.883  0.2488 -3.3150  0.3547
   46DOPE  C316 5925   3.904   1.869   6.039 -0.3237 -0.4752 -0.3772
   46DOPE  H16X 5926   3.916   1.761   6.016  3.4499 -0.8360  2.3650
   46DOPE  H16Y 5927   3.811   1.880   6.099  0.6694 -0.8723  1.3142
   46DOPE  C317 5928   4.034   1.902   6.129  0.4425  0.0660  0.0863
   46DOPE  H17X 5929   4.014   1.838   6.218  0.3129  0.2289  0.1743
   46DOPE  H17Y 5930   4.128   1.876   6.076 -0.1828  0.1400 -1.1028
   46DOPE  C318 5931   4.045   2.051   6.175 -0.1384  0.0654  0.2849
   46DOPE  H18X 5932   4.080   2.108   6.087 -2.6288  0.3556 -0.5928
   46DOPE  H18Y 5933   3.952   2.091   6.220 -1.1593  0.7102 -2.2482
   46DOPE  H18Z 5934   4.127   2.057   6.250 -0.0795  0.8145  0.1686
   47DOPE     N 5935   2.028   1.569   3.947 -0.3224  0.0822  0.2206
   47DOPE   HN1 5936   1.947   1.619   3.988 -2.9669 -2.7756 -1.0919
   47DOPE   HN2 5937   2.000   1.468   3.942 -3.9785  0.9312  0.6083
   47DOPE   HN3 5938   2.115   1.583   4.003 -0.8659  1.5505  0.7475
   47DOPE   C12 5939   2.068   1.628   3.815  0.7794 -0.0094  0.1862
   47DOPE  H12A 5940   2.014   1.566   3.740 -0.4214  2.1831 -0.8613
   47DOPE  H12B 5941   2.177   1.609   3.799  0.7881 -0.3972  0.6887
   47DOPE   C11 5942   2.012   1.773   3.790 -0.5203 -0.2077 -0.2214
   47DOPE  H11A 5943   2.020   1.781   3.680  2.3428  1.0293 -0.0087
   47DOPE  H11B 5944   2.072   1.857   3.830  0.6387 -0.3263 -1.6205
   47DOPE     P 5945   1.750   1.738   3.774  0.1258 -0.1598  0.2729
   47DOPE   O13 5946   1.738   1.591   3.800 -0.4884 -0.0737 -0.3177
   47DOPE   O14 5947   1.748   1.780   3.635  0.6732 -0.1461  0.6858
   47DOPE   O11 5948   1.635   1.810   3.844  0.0659 -0.2820 -0.2958
   47DOPE   O12 5949   1.880   1.793   3.837 -0.5213 -1.0301  0.1774
   47DOPE    C1 5950   1.653   1.857   3.978 -1.1872 -0.3874 -0.1335
   47DOPE    HA 5951   1.702   1.957   3.978 -0.5618 -0.6718 -1.2999
   47DOPE    HB 5952   1.703   1.781   4.042 -1.4327  0.5912  1.2570
   47DOPE    C2 5953   1.511   1.862   4.056 -1.5427 -0.5071  1.1225
   47DOPE    HS 5954   1.530   1.866   4.165 -0.7049 -0.7461  0.9925
   47DOPE   O21 5955   1.445   1.736   4.027 -0.1889 -0.1603  0.3264
   47DOPE   C21 5956   1.335   1.713   4.102 -0.1889  0.3770 -0.3500
   47DOPE   O22 5957   1.307   1.771   4.201  0.6172 -0.2809 -0.2125
   47DOPE   C22 5958   1.267   1.590   4.053  0.1461 -1.1293  0.3075
   47DOPE   H2R 5959   1.243   1.605   3.946  0.9606 -0.5814  0.1916
   47DOPE   H2S 5960   1.171   1.576   4.107  0.1348  0.8485  0.9015
   47DOPE    C3 5961   1.432   1.989   4.005  0.7643  1.4553 -0.0613
   47DOPE    HX 5962   1.331   1.982   4.050 -0.7485 -0.5973 -3.4210
   47DOPE    HY 5963   1.427   1.981   3.895 -1.2992  1.5859 -0.0005
   47DOPE   O31 5964   1.503   2.108   4.037 -0.2006 -0.0680 -0.4354
   47DOPE   C31 5965   1.479   2.157   4.160  0.2724  0.3061  0.3979
   47DOPE   O32 5966   1.421   2.095   4.247 -0.0590  0.0474  0.5948
   47DOPE   C32 5967   1.542   2.296   4.170 -0.0726  0.9244 -0.2466
   47DOPE   H2X 5968   1.637   2.290   4.112  1.3199  0.0640  1.9912
   47DOPE   H2Y 5969   1.471   2.369   4.126 -2.0023  0.3690  1.7638
   47DOPE   C23 5970   1.359   1.465   4.068 -0.2144 -0.4015 -0.3504
   47DOPE   H3R 5971   1.462   1.496   4.044 -0.1259 -0.7734 -0.4501
   47DOPE   H3S 5972   1.325   1.390   3.994  1.4667  0.9880 -2.6422
   47DOPE   C24 5973   1.347   1.393   4.209  0.6143  0.2573 -0.3572
   47DOPE   H4R 5974   1.398   1.295   4.206 -0.2059 -0.1716 -0.9820
   47DOPE   H4S 5975   1.237   1.380   4.220  0.3333 -0.2996 -3.0684
   47DOPE   C25 5976   1.398   1.473   4.330  0.0079 -0.4685 -0.4825
   47DOPE   H5R 5977   1.353   1.575   4.324  0.4990 -0.2022  0.2388
   47DOPE   H5S 5978   1.509   1.471   4.335  0.0183 -0.2371 -0.5848
   47DOPE   C26 5979   1.350   1.419   4.463 -0.1826 -0.5868  0.6378
   47DOPE   H6R 5980   1.382   1.315   4.486  1.8190  0.1328  1.3501
   47DOPE   H6S 5981   1.239   1.415   4.457 -0.1648 -0.3459  0.1457
   47DOPE   C27 5982   1.392   1.503   4.584 -0.1594  0.1622 -0.2795
   47DOPE   H7R 5983   1.371   1.610   4.567 -0.3443  0.0892 -0.5241
   47DOPE   H7S 5984   1.501   1.495   4.601 -0.2839 -2.4089 -0.1942
   47DOPE   C28 5985   1.323   1.462   4.716  0.0492  1.1756  0.4626
   47DOPE   H8R 5986   1.217   1.452   4.684  0.0621 -2.3594  1.0731
   47DOPE   H8S 5987   1.343   1.542   4.791 -0.2054  1.5924  0.0909
   47DOPE   C29 5988   1.369   1.323   4.762 -0.5132 -0.2635  0.2649
   47DOPE   H9R 5989   1.382   1.252   4.679 -0.1100  1.1565 -0.9266
   47DOPE  C210 5990   1.400   1.284   4.883 -0.2118  0.2901 -0.8207
   47DOPE  H10R 5991   1.429   1.179   4.894  0.4761  0.3830 -1.7036
   47DOPE  C211 5992   1.380   1.363   5.008 -0.4578 -0.0535  0.3902
   47DOPE  H11R 5993   1.285   1.421   5.001 -0.1151  0.4409 -0.3293
   47DOPE  H11S 5994   1.462   1.438   5.007  0.9674 -1.5402  0.8439
   47DOPE  C212 5995   1.396   1.286   5.141  0.0808  0.3357 -0.8221
   47DOPE  H12R 5996   1.493   1.231   5.139  0.3416  0.8085 -1.2668
   47DOPE  H12S 5997   1.311   1.216   5.153  0.5100  0.0500  0.9497
   47DOPE  C213 5998   1.411   1.367   5.275 -0.0277  0.5962 -0.3921
   47DOPE  H13R 5999   1.329   1.440   5.265 -0.5968  0.3566  2.0075
   47DOPE  H13S 6000   1.514   1.405   5.258  1.5632 -2.5663  1.1882
   47DOPE  C214 6001   1.411   1.278   5.401  0.5145 -0.1402 -0.2120
   47DOPE  H14R 6002   1.514   1.248   5.433  0.2241 -0.2278  0.6787
   47DOPE  H14S 6003   1.350   1.188   5.381  1.6838 -1.2240  0.8445
   47DOPE  C215 6004   1.339   1.352   5.515 -0.8428 -0.0309  0.1071
   47DOPE  H15R 6005   1.238   1.390   5.488 -0.6197  2.5970  2.5123
   47DOPE  H15S 6006   1.389   1.450   5.530 -1.4921  0.5586 -1.4041
   47DOPE  C216 6007   1.322   1.268   5.644 -0.4612  0.4161  0.5154
   47DOPE  H16R 6008   1.420   1.248   5.692  0.1576 -0.2303 -0.9511
   47DOPE  H16S 6009   1.279   1.171   5.612 -2.4061  1.2361  0.5329
   47DOPE  C217 6010   1.230   1.312   5.764  0.1466  0.0227  0.5485
   47DOPE  H17R 6011   1.133   1.319   5.710  0.6842 -1.7828 -0.7312
   47DOPE  H17S 6012   1.270   1.407   5.806 -1.2255  0.5426  0.7260
   47DOPE  C218 6013   1.224   1.206   5.871  0.2814 -1.0443  0.5090
   47DOPE  H18R 6014   1.177   1.115   5.830 -2.8115  1.1104 -1.1620
   47DOPE  H18S 6015   1.170   1.241   5.961 -0.1390  2.0743 -0.8248
   47DOPE  H18T 6016   1.328   1.184   5.906 -0.1263 -1.3001  1.6016
   47DOPE   C33 6017   1.589   2.341   4.310 -0.0974  0.3491 -0.8310
   47DOPE   H3X 6018   1.633   2.442   4.297 -0.9589  1.1110  1.5860
   47DOPE   H3Y 6019   1.675   2.279   4.342  0.4488  0.7881 -1.4173
   47DOPE   C34 6020   1.496   2.334   4.432  0.6408 -0.0839  0.1048
   47DOPE   H4X 6021   1.405   2.397   4.417 -0.9415 -2.1385  0.6376
   47DOPE   H4Y 6022   1.468   2.227   4.440  0.0500  0.1464  1.2770
   47DOPE   C35 6023   1.573   2.376   4.555 -0.1552 -0.2431 -0.0446
   47DOPE   H5X 6024   1.622   2.475   4.542 -1.2164  0.1507 -1.2777
   47DOPE   H5Y 6025   1.659   2.307   4.562  0.6261  0.8992  2.5906
   47DOPE   C36 6026   1.489   2.389   4.680  1.2316 -0.4705  0.2613
   47DOPE   H6X 6027   1.429   2.297   4.695  1.0508 -0.9639 -2.8962
   47DOPE   H6Y 6028   1.430   2.483   4.682  0.7516 -0.7565 -0.4496
   47DOPE   C37 6029   1.582   2.405   4.806 -0.2102 -0.2696 -0.3380
   47DOPE   H7X 6030   1.615   2.303   4.835 -2.4875 -1.6416 -2.1337
   47DOPE   H7Y 6031   1.665   2.466   4.765  0.6400 -2.1975 -1.6130
   47DOPE   C38 6032   1.517   2.464   4.938  0.2204 -0.0789  0.4812
   47DOPE   H8X 6033   1.453   2.387   4.987  1.6176 -0.8902  1.1015
   47DOPE   H8Y 6034   1.446   2.541   4.900  0.5841  0.4560  0.8829
   47DOPE   C39 6035   1.628   2.517   5.035 -0.4488 -0.1549 -0.4856
   47DOPE   H9X 6036   1.690   2.602   5.002 -0.6987  0.7047  1.1697
   47DOPE  C310 6037   1.676   2.468   5.153 -0.5011  0.2620  0.0923
   47DOPE  H10X 6038   1.751   2.524   5.212  0.8437 -0.8961 -0.4591
   47DOPE  C311 6039   1.639   2.329   5.200 -0.2747  0.3953 -0.0831
   47DOPE  H11X 6040   1.558   2.283   5.139  1.9608 -1.0567 -2.1377
   47DOPE  H11Y 6041   1.727   2.266   5.178 -0.6137 -0.6209  1.3176
   47DOPE  C312 6042   1.597   2.321   5.348  0.5460 -0.3864 -0.3538
   47DOPE  H12X 6043   1.544   2.224   5.362 -2.7982  1.6587  3.4424
   47DOPE  H12Y 6044   1.535   2.406   5.383 -0.8543 -1.6505  0.3857
   47DOPE  C313 6045   1.710   2.308   5.450  0.2472  0.2203 -0.0238
   47DOPE  H13X 6046   1.754   2.209   5.426  2.4350  1.1397 -0.0158
   47DOPE  H13Y 6047   1.789   2.384   5.436  0.4472 -0.2669 -1.9181
   47DOPE  C314 6048   1.659   2.300   5.592  0.5657 -0.4654  0.1409
   47DOPE  H14X 6049   1.605   2.203   5.603 -2.2144  0.6665 -2.2070
   47DOPE  H14Y 6050   1.576   2.374   5.587 -0.8973 -2.0783 -0.3812
   47DOPE  C315 6051   1.769   2.311   5.696 -0.4466 -0.2122  0.1003
   47DOPE  H15X 6052   1.836   2.396   5.670  0.4089 -0.4262  1.5205
   47DOPE  H15Y 6053   1.836   2.224   5.708 -0.4459 -0.1186  0.8389
   47DOPE  C316 6054   1.701   2.340   5.831 -0.0002 -1.0036  0.4970
   47DOPE  H16X 6055   1.626   2.261   5.855 -0.3701 -1.1702 -1.1116
   47DOPE  H16Y 6056   1.647   2.436   5.820  0.8823 -0.7178 -2.1397
   47DOPE  C317 6057   1.803   2.342   5.944  0.0407 -0.2945 -0.3366
   47DOPE  H17X 6058   1.862   2.249   5.934  1.1931  0.3636  0.1230
   47DOPE  H17Y 6059   1.874   2.427   5.935  0.6124 -0.6737  0.4930
   47DOPE  C318 6060   1.747   2.348   6.090  0.4789  0.5086 -0.2172
   47DOPE  H18X 6061   1.706   2.451   6.103 -1.3787 -0.2800  0.4043
   47DOPE  H18Y 6062   1.666   2.276   6.110  1.7823 -1.4711 -1.6944
   47DOPE  H18Z 6063   1.831   2.337   6.163 -0.2121  2.3867  0.9311
   48DOPE     N 6064   5.711   4.895   4.450  0.0148 -0.5680 -0.1730
   48DOPE   HN1 6065   5.777   4.826   4.492  0.0528  0.0690  0.8586
   48DOPE   HN2 6066   5.622   4.844   4.439  0.0334 -0.4613 -0.8594
   48DOPE   HN3 6067   5.737   4.929   4.355 -0.6779  0.7859  0.0899
   48DOPE   C12 6068   5.702   5.022   4.539  0.0732  0.4057  0.3790
   48DOPE  H12A 6069   5.788   5.090   4.518 -0.5764  0.5381 -2.1652
   48DOPE  H12B 6070   5.702   4.992   4.646 -0.1631  2.0200  0.8664
   48DOPE   C11 6071   5.573   5.098   4.503  0.4382  0.0858  0.7090
   48DOPE  H11A 6072   5.569   5.195   4.557  1.5904  1.5583 -1.6627
   48DOPE  H11B 6073   5.482   5.040   4.529 -1.2206  1.1103 -2.2041
   48DOPE     P 6074   5.485   5.206   4.277  0.5977  0.3581 -0.0317
   48DOPE   O13 6075   5.442   5.132   4.155 -0.0328 -0.9499  0.5390
   48DOPE   O14 6076   5.561   5.333   4.262 -0.9224  0.5096  0.3316
   48DOPE   O11 6077   5.357   5.218   4.365  0.2783  0.2285  0.1658
   48DOPE   O12 6078   5.579   5.117   4.360  0.2025 -0.2626  0.3451
   48DOPE    C1 6079   5.252   5.118   4.372  0.2143  0.2312  0.2037
   48DOPE    HA 6080   5.285   5.012   4.383 -1.0852 -0.0982  1.2446
   48DOPE    HB 6081   5.183   5.121   4.285 -1.3724  0.4088  1.4149
   48DOPE    C2 6082   5.157   5.142   4.495 -0.4431  0.4656  0.0657
   48DOPE    HS 6083   5.100   5.233   4.469 -0.9286 -0.4805 -2.4294
   48DOPE   O21 6084   5.239   5.162   4.612  0.2105  0.3253  0.3922
   48DOPE   C21 6085   5.278   5.283   4.645 -0.2737 -0.8933 -0.4137
   48DOPE   O22 6086   5.241   5.390   4.603  0.3539 -0.5265 -0.1495
   48DOPE   C22 6087   5.374   5.270   4.766  0.0221 -0.2317  0.2564
   48DOPE   H2R 6088   5.458   5.340   4.749 -1.5040  1.8147  0.8443
   48DOPE   H2S 6089   5.418   5.167   4.769  0.6200  0.0309  1.2717
   48DOPE    C3 6090   5.057   5.024   4.522 -0.3887 -0.6427  0.2616
   48DOPE    HX 6091   5.116   4.947   4.576  1.1752  0.6332  0.4893
   48DOPE    HY 6092   5.028   4.981   4.423  0.9728 -2.2669  0.5186
   48DOPE   O31 6093   4.947   5.079   4.599  0.6702 -0.3731 -0.5358
   48DOPE   C31 6094   4.866   4.981   4.636  0.2924 -0.2342  0.0163
   48DOPE   O32 6095   4.883   4.864   4.612  0.7317 -0.0877  0.1519
   48DOPE   C32 6096   4.761   5.042   4.731 -0.1274  0.5642  0.1834
   48DOPE   H2X 6097   4.714   5.130   4.684  0.3935 -0.9737 -3.5861
   48DOPE   H2Y 6098   4.683   4.962   4.739  1.5247 -1.1357  0.0936
   48DOPE   C23 6099   5.312   5.320   4.901  0.2148 -0.4433 -0.6688
   48DOPE   H3R 6100   5.315   5.431   4.904 -0.5570 -0.4215  2.0275
   48DOPE   H3S 6101   5.382   5.296   4.983  0.5543  0.3030 -0.7334
   48DOPE   C24 6102   5.172   5.258   4.938  0.0012  0.0241 -0.1277
   48DOPE   H4R 6103   5.174   5.149   4.921  0.5616  0.0223 -0.0571
   48DOPE   H4S 6104   5.105   5.317   4.872 -1.6228 -0.2474  1.2096
   48DOPE   C25 6105   5.128   5.289   5.079  0.3247  0.2864 -0.8559
   48DOPE   H5R 6106   5.031   5.236   5.096 -0.3843  2.0445  0.9046
   48DOPE   H5S 6107   5.106   5.397   5.085  0.3998  0.2861 -0.5441
   48DOPE   C26 6108   5.219   5.240   5.188  0.8431  0.5752  0.5591
   48DOPE   H6R 6109   5.316   5.295   5.190  0.4856  1.2409  0.0171
   48DOPE   H6S 6110   5.243   5.134   5.164 -0.3724  0.6684 -1.2467
   48DOPE   C27 6111   5.152   5.242   5.326  0.0365  0.2105  0.3733
   48DOPE   H7R 6112   5.068   5.171   5.309  0.4405  0.1248 -1.4824
   48DOPE   H7S 6113   5.119   5.348   5.337  1.4707  0.7865 -0.4988
   48DOPE   C28 6114   5.237   5.186   5.445  0.0398 -0.4704  0.5108
   48DOPE   H8R 6115   5.340   5.208   5.413  0.2305 -2.5610 -0.4844
   48DOPE   H8S 6116   5.224   5.076   5.437 -2.1935 -0.1171 -2.6745
   48DOPE   C29 6117   5.196   5.240   5.580  0.6297 -0.0807  0.5377
   48DOPE   H9R 6118   5.098   5.290   5.584 -0.2271 -1.4522 -1.3963
   48DOPE  C210 6119   5.270   5.241   5.694 -0.3428  0.0079 -0.2828
   48DOPE  H10R 6120   5.233   5.287   5.787  1.2816  0.9388 -0.0685
   48DOPE  C211 6121   5.410   5.181   5.690  0.5576 -0.1703 -0.2383
   48DOPE  H11R 6122   5.448   5.195   5.586 -1.3095  1.8771 -0.7201
   48DOPE  H11S 6123   5.409   5.070   5.698  4.8121 -0.3523 -0.2880
   48DOPE  C212 6124   5.509   5.236   5.794 -0.6339 -0.4539 -0.1770
   48DOPE  H12R 6125   5.524   5.344   5.773  0.6256 -0.0420  2.4609
   48DOPE  H12S 6126   5.606   5.182   5.786 -0.4085 -0.0471 -0.1975
   48DOPE  C213 6127   5.462   5.218   5.937 -0.4091 -0.3278 -0.3407
   48DOPE  H13R 6128   5.456   5.109   5.960  0.6932  0.0006  1.7370
   48DOPE  H13S 6129   5.362   5.266   5.950 -1.4219 -1.9754 -1.5716
   48DOPE  C214 6130   5.566   5.276   6.034 -0.2557  0.4604 -0.1035
   48DOPE  H14R 6131   5.582   5.383   6.011 -2.6077  0.7731 -0.6077
   48DOPE  H14S 6132   5.659   5.216   6.020 -1.0546 -0.4271 -2.0131
   48DOPE  C215 6133   5.520   5.271   6.180  0.9002  0.1340  0.2638
   48DOPE  H15R 6134   5.417   5.313   6.193  0.1826 -1.9021  1.6794
   48DOPE  H15S 6135   5.588   5.337   6.238 -0.3362 -0.2139  2.2162
   48DOPE  C216 6136   5.509   5.126   6.239 -0.6642 -0.0988  0.4382
   48DOPE  H16R 6137   5.598   5.073   6.199  0.4247  2.2768 -0.5057
   48DOPE  H16S 6138   5.417   5.072   6.208  0.7751 -3.4863  1.6503
   48DOPE  C217 6139   5.523   5.137   6.392  0.1278  0.4268 -0.0428
   48DOPE  H17R 6140   5.452   5.215   6.428 -0.2527 -1.0703  2.6592
   48DOPE  H17S 6141   5.621   5.175   6.428 -0.3376  2.0608 -0.4002
   48DOPE  C218 6142   5.485   5.004   6.460 -0.0888 -0.0976  0.0728
   48DOPE  H18R 6143   5.473   5.025   6.568 -2.0927 -1.3470  0.1308
   48DOPE  H18S 6144   5.567   4.933   6.436  0.2003  0.0667  0.5533
   48DOPE  H18T 6145   5.386   4.961   6.433 -0.2079  1.2496 -1.9130
   48DOPE   C33 6146   4.822   5.086   4.870 -0.0934  0.2179  0.2418
   48DOPE   H3X 6147   4.744   5.158   4.903  0.2685  0.8915 -0.3329
   48DOPE   H3Y 6148   4.915   5.146   4.871 -0.8458  1.4287  0.0313
   48DOPE   C34 6149   4.819   4.970   4.961  0.6439  0.4385 -0.2657
   48DOPE   H4X 6150   4.716   4.942   4.991  1.4649 -1.7446  0.7518
   48DOPE   H4Y 6151   4.853   4.884   4.899 -0.9031  0.0746 -0.6369
   48DOPE   C35 6152   4.900   4.987   5.089 -0.5220 -0.1088 -0.6075
   48DOPE   H5X 6153   4.874   5.089   5.123 -3.7275 -0.7619 -0.7791
   48DOPE   H5Y 6154   5.007   4.998   5.060 -0.1210 -0.6945  0.5972
   48DOPE   C36 6155   4.870   4.885   5.197  0.4110 -0.0516  0.2737
   48DOPE   H6X 6156   4.948   4.905   5.274  1.0326  1.1112 -0.6292
   48DOPE   H6Y 6157   4.878   4.781   5.158  1.1354  0.3948 -0.8172
   48DOPE   C37 6158   4.737   4.913   5.267 -0.1920 -0.0827 -0.3075
   48DOPE   H7X 6159   4.722   5.023   5.277 -0.6795  0.1015 -2.6098
   48DOPE   H7Y 6160   4.658   4.886   5.194  0.3143 -0.9328 -0.5403
   48DOPE   C38 6161   4.727   4.827   5.400 -0.5513 -0.3812  0.0859
   48DOPE   H8X 6162   4.690   4.890   5.484 -2.6216 -0.1608 -0.9238
   48DOPE   H8Y 6163   4.831   4.798   5.427 -0.9821 -3.2133 -1.0218
   48DOPE   C39 6164   4.657   4.695   5.380  0.4213 -0.0410 -0.0294
   48DOPE   H9X 6165   4.658   4.662   5.275  0.7854 -3.2363  0.8851
   48DOPE  C310 6166   4.598   4.613   5.472 -0.9404 -0.0049  0.4565
   48DOPE  H10X 6167   4.568   4.513   5.439  1.5858 -0.9745  0.8196
   48DOPE  C311 6168   4.601   4.646   5.620  0.4254 -0.6338 -0.0517
   48DOPE  H11X 6169   4.576   4.753   5.636  1.1921 -0.5395  0.6043
   48DOPE  H11Y 6170   4.527   4.585   5.676 -0.2058 -0.0787 -0.2706
   48DOPE  C312 6171   4.751   4.630   5.671 -0.2092 -0.2185 -0.4456
   48DOPE  H12X 6172   4.819   4.686   5.604  0.1711  0.9950  0.9185
   48DOPE  H12Y 6173   4.785   4.525   5.659 -0.3274  0.0737 -5.1586
   48DOPE  C313 6174   4.769   4.687   5.812  0.0383 -0.2336 -0.2887
   48DOPE  H13X 6175   4.873   4.675   5.850 -0.4942  0.0358  1.3578
   48DOPE  H13Y 6176   4.745   4.794   5.834 -0.6927 -0.5181  0.3242
   48DOPE  C314 6177   4.692   4.606   5.922 -0.0531 -1.0027 -0.4486
   48DOPE  H14X 6178   4.713   4.501   5.894 -1.0386 -1.5653  0.8472
   48DOPE  H14Y 6179   4.583   4.619   5.903 -0.2867  0.0350  1.3527
   48DOPE  C315 6180   4.724   4.645   6.064 -0.6218  0.1172 -0.2959
   48DOPE  H15X 6181   4.835   4.640   6.064 -0.5679  0.9273  0.8241
   48DOPE  H15Y 6182   4.688   4.556   6.121  2.4778 -2.2845 -1.7626
   48DOPE  C316 6183   4.681   4.780   6.125  0.2771  0.3563  0.1675
   48DOPE  H16X 6184   4.665   4.856   6.045 -0.4782 -0.4918 -0.5136
   48DOPE  H16Y 6185   4.753   4.815   6.202 -0.5803  0.6146  0.8720
   48DOPE  C317 6186   4.543   4.768   6.191  0.6174 -0.0447 -0.0886
   48DOPE  H17X 6187   4.474   4.754   6.105 -0.6699  0.1993  0.8829
   48DOPE  H17Y 6188   4.544   4.672   6.247  1.5893 -0.2039 -0.3548
   48DOPE  C318 6189   4.503   4.888   6.282 -0.3888  0.4354 -0.1342
   48DOPE  H18X 6190   4.553   4.976   6.235  1.9476 -1.3535 -1.2489
   48DOPE  H18Y 6191   4.394   4.909   6.281  0.0169  2.9771  0.4918
   48DOPE  H18Z 6192   4.540   4.882   6.386  1.0599  0.2125 -0.6253
   49DOPE     N 6193   0.895   2.827   3.386 -0.5280 -0.3750 -0.3061
   49DOPE   HN1 6194   0.934   2.734   3.361 -1.1170 -1.2910  1.9668
   49DOPE   HN2 6195   0.863   2.889   3.309  0.4662  3.5701  2.1886
   49DOPE   HN3 6196   0.970   2.872   3.443 -0.3033 -0.1020 -0.8024
   49DOPE   C12 6197   0.789   2.801   3.488  0.1456 -0.0538  0.4185
   49DOPE  H12A 6198   0.712   2.741   3.435  0.3752  0.4098 -0.4601
   49DOPE  H12B 6199   0.751   2.904   3.505 -1.0609 -0.3690 -0.2195
   49DOPE   C11 6200   0.838   2.743   3.622 -0.1900  0.5810 -0.4359
   49DOPE  H11A 6201   0.861   2.635   3.612 -3.5680 -0.1651 -1.0997
   49DOPE  H11B 6202   0.757   2.745   3.698 -0.4947 -3.3834 -0.4723
   49DOPE     P 6203   0.975   2.937   3.740 -0.2682  0.1258  0.3588
   49DOPE   O13 6204   0.915   3.038   3.655  0.2880 -0.5747 -0.4771
   49DOPE   O14 6205   1.119   2.956   3.773 -0.5893  0.0820 -0.4836
   49DOPE   O11 6206   0.893   2.914   3.877  0.4911  0.4859 -0.4111
   49DOPE   O12 6207   0.964   2.803   3.663 -0.9965 -0.4331 -0.2524
   49DOPE    C1 6208   0.931   2.809   3.969 -0.5158 -0.1238 -0.2845
   49DOPE    HA 6209   1.027   2.762   3.940 -0.0079  1.2461 -0.9555
   49DOPE    HB 6210   0.852   2.733   3.949 -1.3250  0.1076  1.8009
   49DOPE    C2 6211   0.932   2.832   4.126 -0.0005  0.1902  0.8044
   49DOPE    HS 6212   0.828   2.867   4.143  0.8802  2.6991  1.5443
   49DOPE   O21 6213   1.023   2.938   4.150  0.0696  0.3181 -0.1486
   49DOPE   C21 6214   0.988   3.017   4.256  0.0628  0.9189  0.4198
   49DOPE   O22 6215   0.906   2.996   4.339  0.3413 -0.1446 -0.7686
   49DOPE   C22 6216   1.089   3.125   4.260  0.4630 -0.2833  0.3260
   49DOPE   H2R 6217   1.106   3.171   4.161 -0.9407  3.1366  1.5233
   49DOPE   H2S 6218   1.191   3.085   4.278  0.6394 -0.0180 -0.0777
   49DOPE    C3 6219   0.971   2.702   4.210  0.3835 -0.3617  0.2820
   49DOPE    HX 6220   1.072   2.674   4.175 -0.2728 -0.3482 -1.7617
   49DOPE    HY 6221   0.902   2.622   4.174 -0.3296  0.0126  0.7970
   49DOPE   O31 6222   0.966   2.713   4.354 -0.4350 -0.4729  0.3640
   49DOPE   C31 6223   0.846   2.691   4.404  0.0746 -0.0672 -0.3606
   49DOPE   O32 6224   0.742   2.672   4.342  0.2087 -0.0282  0.6703
   49DOPE   C32 6225   0.850   2.671   4.556 -0.0406 -0.1297  0.4471
   49DOPE   H2X 6226   0.918   2.585   4.568  0.1875 -0.0733 -0.3639
   49DOPE   H2Y 6227   0.906   2.756   4.601  0.5855  0.6421 -1.6782
   49DOPE   C23 6228   1.058   3.244   4.352  0.1421  0.1704  0.8871
   49DOPE   H3R 6229   0.952   3.271   4.338  0.0372 -1.0036 -0.8275
   49DOPE   H3S 6230   1.131   3.320   4.317 -0.9371  1.1950  0.8345
   49DOPE   C24 6231   1.076   3.221   4.511  0.2120 -0.0957  0.0115
   49DOPE   H4R 6232   1.022   3.124   4.519  0.8145 -0.5435 -1.1566
   49DOPE   H4S 6233   1.011   3.289   4.571  0.3851 -0.3423  0.4892
   49DOPE   C25 6234   1.221   3.219   4.556 -0.0532  0.0784  0.9466
   49DOPE   H5R 6235   1.268   3.319   4.554  0.5076 -0.1838  0.8376
   49DOPE   H5S 6236   1.274   3.153   4.484 -0.0510  2.1755 -1.0841
   49DOPE   C26 6237   1.245   3.151   4.690  1.8677 -0.1551 -0.1313
   49DOPE   H6R 6238   1.239   3.040   4.691  0.3352 -0.1370  1.9494
   49DOPE   H6S 6239   1.167   3.184   4.763  1.2826  1.3315 -1.3838
   49DOPE   C27 6240   1.381   3.178   4.757  0.3784 -0.2008 -0.6262
   49DOPE   H7R 6241   1.461   3.196   4.683  0.5153  1.9419 -0.0255
   49DOPE   H7S 6242   1.407   3.086   4.815  1.4917  0.3216 -0.2777
   49DOPE   C28 6243   1.363   3.292   4.861 -0.6549 -0.2000  0.2188
   49DOPE   H8R 6244   1.258   3.299   4.896 -1.0357  2.7043 -1.2257
   49DOPE   H8S 6245   1.367   3.391   4.811  0.6638 -0.5454 -0.3935
   49DOPE   C29 6246   1.468   3.296   4.969  0.6116 -0.4646  0.7180
   49DOPE   H9R 6247   1.564   3.333   4.930 -0.2001  1.1136  0.1340
   49DOPE  C210 6248   1.468   3.250   5.092 -1.0406  0.3327 -0.8441
   49DOPE  H10R 6249   1.555   3.264   5.158 -1.1184  3.9331 -1.2657
   49DOPE  C211 6250   1.345   3.189   5.153 -0.4265 -0.2388 -0.0355
   49DOPE  H11R 6251   1.283   3.131   5.082  1.8622 -1.8843 -0.7849
   49DOPE  H11S 6252   1.291   3.274   5.200 -0.4437  0.4815 -1.3148
   49DOPE  C212 6253   1.361   3.113   5.284 -0.1048  0.3648 -0.7989
   49DOPE  H12R 6254   1.434   3.031   5.266 -0.2467  0.3122 -1.1195
   49DOPE  H12S 6255   1.264   3.071   5.317  1.8151 -3.0124  1.0544
   49DOPE  C213 6256   1.416   3.199   5.403 -0.8128  0.9542 -0.2888
   49DOPE  H13R 6257   1.358   3.293   5.404  0.5690  1.8350  0.6362
   49DOPE  H13S 6258   1.524   3.224   5.394 -0.7397  0.3269 -1.4371
   49DOPE  C214 6259   1.411   3.127   5.536 -0.5284  0.4563  0.1058
   49DOPE  H14R 6260   1.480   3.039   5.530  0.4499  1.2360 -0.3405
   49DOPE  H14S 6261   1.309   3.083   5.543  0.0609 -0.7675  1.6816
   49DOPE  C215 6262   1.440   3.209   5.657  0.3062 -0.3839 -0.3762
   49DOPE  H15R 6263   1.367   3.291   5.674 -0.3983 -0.8037 -1.2836
   49DOPE  H15S 6264   1.535   3.261   5.631 -1.5968  3.9946  0.6922
   49DOPE  C216 6265   1.442   3.114   5.775  0.8381  0.1927 -0.3531
   49DOPE  H16R 6266   1.539   3.059   5.780  0.5449 -0.2188  2.3104
   49DOPE  H16S 6267   1.356   3.045   5.760  2.3973 -1.3580 -2.8988
   49DOPE  C217 6268   1.421   3.194   5.902  0.0238 -0.1344  1.0279
   49DOPE  H17R 6269   1.340   3.263   5.871  1.5265  0.1195 -3.0660
   49DOPE  H17S 6270   1.510   3.260   5.911 -0.1011  0.3381 -0.7187
   49DOPE  C218 6271   1.401   3.114   6.028 -0.6469 -0.2877  0.0936
   49DOPE  H18R 6272   1.305   3.060   6.039  1.1144 -3.7459 -0.2192
   49DOPE  H18S 6273   1.423   3.191   6.106 -0.7552 -0.2669  0.1031
   49DOPE  H18T 6274   1.473   3.032   6.047 -1.7213 -0.6869  2.9628
   49DOPE   C33 6275   0.714   2.645   4.620 -0.3838  0.4954 -0.0264
   49DOPE   H3X 6276   0.648   2.579   4.559 -0.8428 -0.6976  1.6824
   49DOPE   H3Y 6277   0.657   2.740   4.632  1.0239  1.1965  1.5296
   49DOPE   C34 6278   0.722   2.576   4.757  0.3541 -0.1058  0.1100
   49DOPE   H4X 6279   0.621   2.534   4.774  0.2277 -0.0374 -0.4535
   49DOPE   H4Y 6280   0.792   2.490   4.749 -0.3872 -0.7670  0.5469
   49DOPE   C35 6281   0.757   2.672   4.873  0.2147 -0.4104  0.8536
   49DOPE   H5X 6282   0.703   2.769   4.868  0.2563 -0.4008  0.5963
   49DOPE   H5Y 6283   0.865   2.693   4.865  0.0114  0.5312  0.5497
   49DOPE   C36 6284   0.718   2.616   5.013 -0.1273 -0.4588  0.3208
   49DOPE   H6X 6285   0.755   2.512   5.022  2.3303  0.3699  0.5864
   49DOPE   H6Y 6286   0.607   2.615   5.016 -0.1701 -1.7489 -0.7776
   49DOPE   C37 6287   0.757   2.697   5.134  0.0150 -0.1140 -0.3750
   49DOPE   H7X 6288   0.868   2.705   5.136  0.1250 -0.9379 -1.8165
   49DOPE   H7Y 6289   0.729   2.805   5.131 -1.2048 -0.3103  1.6142
   49DOPE   C38 6290   0.693   2.647   5.260  0.4133  0.1444  0.0331
   49DOPE   H8X 6291   0.583   2.653   5.249  0.4535 -0.8003 -1.0105
   49DOPE   H8Y 6292   0.723   2.712   5.346  0.2673 -0.9198  0.9099
   49DOPE   C39 6293   0.707   2.504   5.295 -0.6836 -0.2557  0.1029
   49DOPE   H9X 6294   0.668   2.429   5.224  2.0027 -1.5572 -0.1396
   49DOPE  C310 6295   0.760   2.453   5.405  1.0546 -1.0682 -0.2631
   49DOPE  H10X 6296   0.786   2.349   5.430  3.4251 -0.8401 -1.4615
   49DOPE  C311 6297   0.800   2.545   5.519  0.3814  0.2698 -0.2230
   49DOPE  H11X 6298   0.905   2.575   5.498  0.5143  0.6424  0.9260
   49DOPE  H11Y 6299   0.749   2.643   5.528  1.5669  0.7753  1.5310
   49DOPE  C312 6300   0.783   2.474   5.656 -0.0931 -0.8881 -0.6048
   49DOPE  H12X 6301   0.832   2.529   5.739 -1.3658 -1.4806  0.5731
   49DOPE  H12Y 6302   0.841   2.379   5.659  1.1166 -0.1679  2.6643
   49DOPE  C313 6303   0.636   2.462   5.703  0.5267  0.1523  0.0808
   49DOPE  H13X 6304   0.583   2.560   5.695  2.2803  1.1318 -0.1832
   49DOPE  H13Y 6305   0.590   2.383   5.640  2.0763 -0.8539  0.1773
   49DOPE  C314 6306   0.625   2.394   5.845 -0.7170 -0.1749  0.1252
   49DOPE  H14X 6307   0.653   2.288   5.823  0.4083  0.5091 -1.9804
   49DOPE  H14Y 6308   0.518   2.386   5.871 -1.0548 -1.7496 -1.5455
   49DOPE  C315 6309   0.711   2.447   5.960 -0.8213 -0.4081 -0.0167
   49DOPE  H15X 6310   0.818   2.427   5.939 -0.7822 -0.2608  0.0383
   49DOPE  H15Y 6311   0.691   2.394   6.055 -3.8043  1.5674  0.6218
   49DOPE  C316 6312   0.688   2.592   5.993 -0.3248 -0.5986  0.3696
   49DOPE  H16X 6313   0.586   2.633   5.980  0.4862  1.0709 -1.1463
   49DOPE  H16Y 6314   0.751   2.665   5.938 -0.1670 -0.7602  0.3330
   49DOPE  C317 6315   0.726   2.616   6.139 -0.0516  0.3955 -0.4781
   49DOPE  H17X 6316   0.705   2.725   6.153  1.1449  0.8499 -1.8630
   49DOPE  H17Y 6317   0.660   2.547   6.195 -0.0343 -0.8435 -1.9087
   49DOPE  C318 6318   0.878   2.592   6.167 -0.8693  0.0596  0.3001
   49DOPE  H18X 6319   0.944   2.650   6.099 -0.9874  0.8927  0.8728
   49DOPE  H18Y 6320   0.900   2.606   6.275  2.2342 -0.1672 -0.2289
   49DOPE  H18Z 6321   0.907   2.488   6.140  1.4884  0.8300 -0.3612
   50DOPE     N 6322   6.604   1.009   3.450 -0.1317 -0.4707  0.9243
   50DOPE   HN1 6323   6.704   1.038   3.456 -0.0991 -0.6166  1.0799
   50DOPE   HN2 6324   6.590   0.977   3.352  0.0006 -2.8974  1.6500
   50DOPE   HN3 6325   6.540   1.091   3.451 -0.8606 -0.5783 -4.3497
   50DOPE   C12 6326   6.572   0.895   3.540 -0.4812  0.4424  0.4482
   50DOPE  H12A 6327   6.662   0.832   3.523 -0.5998  0.4253 -0.1427
   50DOPE  H12B 6328   6.483   0.846   3.495  0.1386 -0.3551  0.0772
   50DOPE   C11 6329   6.565   0.950   3.684 -0.2909 -0.0142 -0.3667
   50DOPE  H11A 6330   6.666   0.991   3.705  1.6748 -4.0182 -0.9259
   50DOPE  H11B 6331   6.559   0.866   3.757 -4.2808 -1.0049 -1.5717
   50DOPE     P 6332   6.321   1.004   3.749  0.0257  0.1984 -0.3271
   50DOPE   O13 6333   6.277   0.871   3.682  0.3508 -0.1528  0.6212
   50DOPE   O14 6334   6.241   1.123   3.702  0.5711  0.3705  0.0665
   50DOPE   O11 6335   6.326   0.983   3.903  0.0932  0.6975  0.1195
   50DOPE   O12 6336   6.464   1.052   3.707 -0.2176  0.0752  0.3325
   50DOPE    C1 6337   6.431   1.022   3.995 -0.2855  0.0934 -0.1935
   50DOPE    HA 6338   6.453   1.131   3.988  1.5705 -0.3118 -1.3924
   50DOPE    HB 6339   6.525   0.970   3.965  0.3105  0.8735  0.2826
   50DOPE    C2 6340   6.394   0.992   4.137 -0.8058  0.1591  0.0575
   50DOPE    HS 6341   6.348   0.891   4.140  0.6294 -0.5773 -1.2031
   50DOPE   O21 6342   6.316   1.095   4.178 -0.7736 -0.5451 -1.1960
   50DOPE   C21 6343   6.183   1.077   4.179  0.5485  0.4265 -0.4855
   50DOPE   O22 6344   6.134   0.978   4.124 -0.3534  0.3579 -0.0845
   50DOPE   C22 6345   6.110   1.193   4.235  0.4602 -0.4153  0.3793
   50DOPE   H2R 6346   6.041   1.236   4.160  1.1277 -0.3034 -0.1710
   50DOPE   H2S 6347   6.187   1.262   4.275  0.2947 -1.7454  3.2729
   50DOPE    C3 6348   6.528   0.993   4.221 -0.9563  0.5387 -0.6402
   50DOPE    HX 6349   6.574   1.093   4.203 -3.1886  1.7787  0.1123
   50DOPE    HY 6350   6.599   0.918   4.181 -1.0015 -0.6836  1.4536
   50DOPE   O31 6351   6.517   0.965   4.363  0.2863  0.2212 -0.4383
   50DOPE   C31 6352   6.514   0.844   4.406  0.4885 -0.5250 -0.5783
   50DOPE   O32 6353   6.519   0.740   4.340 -0.2684 -0.3032  0.2628
   50DOPE   C32 6354   6.501   0.846   4.565 -0.8192 -0.0773 -0.3060
   50DOPE   H2X 6355   6.397   0.818   4.593 -0.2928 -2.4847 -0.4921
   50DOPE   H2Y 6356   6.581   0.783   4.608  0.0309  1.7856  0.9634
   50DOPE   C23 6357   6.014   1.140   4.341 -0.1473 -0.0515  0.4014
   50DOPE   H3R 6358   5.954   1.057   4.298 -0.1746 -0.0146  0.3670
   50DOPE   H3S 6359   5.935   1.210   4.377 -0.1035 -0.2114  0.8148
   50DOPE   C24 6360   6.081   1.081   4.474 -0.8556 -0.2991 -0.4773
   50DOPE   H4R 6361   6.156   1.001   4.453  1.2013  1.5358 -0.4120
   50DOPE   H4S 6362   6.002   1.031   4.534  1.8007 -1.4522  2.3212
   50DOPE   C25 6363   6.152   1.185   4.561  0.5583 -0.2591 -0.3081
   50DOPE   H5R 6364   6.094   1.279   4.573 -1.3191 -1.5851  1.7949
   50DOPE   H5S 6365   6.254   1.207   4.523 -0.3162  0.0765 -2.6309
   50DOPE   C26 6366   6.146   1.127   4.708  0.1651 -0.0681  0.3709
   50DOPE   H6R 6367   6.188   1.025   4.702 -0.1913 -0.2126  0.2735
   50DOPE   H6S 6368   6.037   1.112   4.727  0.2565 -1.1888  0.0591
   50DOPE   C27 6369   6.226   1.213   4.811 -0.6021  0.4690  0.5897
   50DOPE   H7R 6370   6.179   1.314   4.811  3.2070  2.4404 -0.6853
   50DOPE   H7S 6371   6.330   1.230   4.775 -1.0522  0.9060 -0.5448
   50DOPE   C28 6372   6.225   1.136   4.942 -0.4570 -0.3347  0.9243
   50DOPE   H8R 6373   6.270   1.038   4.917  0.0014  0.2554 -0.6959
   50DOPE   H8S 6374   6.122   1.112   4.976 -0.4451  0.4774  1.5868
   50DOPE   C29 6375   6.320   1.194   5.045 -0.7775  0.4786  0.6861
   50DOPE   H9R 6376   6.403   1.248   4.997 -1.4572 -0.9494 -2.3780
   50DOPE  C210 6377   6.297   1.210   5.172 -0.6436  0.1662 -0.2417
   50DOPE  H10R 6378   6.362   1.274   5.234 -2.1993  1.4278  0.1406
   50DOPE  C211 6379   6.179   1.161   5.253 -0.0552  0.0099  0.5458
   50DOPE  H11R 6380   6.114   1.089   5.200 -0.3950 -0.1871  1.2164
   50DOPE  H11S 6381   6.114   1.246   5.281  0.6162  1.3099 -1.6394
   50DOPE  C212 6382   6.222   1.093   5.379 -0.1855 -0.3157 -0.3408
   50DOPE  H12R 6383   6.320   1.043   5.364  0.8107  1.1678  0.9207
   50DOPE  H12S 6384   6.143   1.024   5.415 -1.0212  0.4265 -0.7122
   50DOPE  C213 6385   6.237   1.193   5.503  0.3455 -0.2561  0.1246
   50DOPE  H13R 6386   6.135   1.227   5.531  0.3583 -0.7724  0.8374
   50DOPE  H13S 6387   6.296   1.280   5.468  0.6816 -1.2465 -1.8948
   50DOPE  C214 6388   6.309   1.132   5.626  0.3438  0.2889  0.3521
   50DOPE  H14R 6389   6.418   1.118   5.607  0.5510  0.5703  1.3012
   50DOPE  H14S 6390   6.259   1.033   5.636  0.7183 -0.0256 -0.7279
   50DOPE  C215 6391   6.295   1.224   5.754 -0.1054  0.1677  0.7988
   50DOPE  H15R 6392   6.191   1.263   5.749 -0.2073 -0.1939 -0.8620
   50DOPE  H15S 6393   6.373   1.303   5.755  2.4266 -2.0790 -1.4925
   50DOPE  C216 6394   6.300   1.146   5.882 -0.3732  0.7692  0.4822
   50DOPE  H16R 6395   6.396   1.093   5.899 -0.7670  0.8517  3.5427
   50DOPE  H16S 6396   6.223   1.068   5.895 -0.0199  0.5126  1.0531
   50DOPE  C217 6397   6.289   1.234   6.007  0.3251  0.2420  0.2361
   50DOPE  H17R 6398   6.193   1.291   6.012 -0.0078 -0.3976  1.9512
   50DOPE  H17S 6399   6.376   1.302   6.020  0.9986 -0.6546  0.4953
   50DOPE  C218 6400   6.292   1.154   6.138 -0.4344  0.6608  0.0530
   50DOPE  H18R 6401   6.333   1.209   6.225  1.6151 -1.5129  0.5750
   50DOPE  H18S 6402   6.352   1.062   6.124 -1.3981 -0.0391  0.4543
   50DOPE  H18T 6403   6.192   1.119   6.172  0.6771 -0.4900  2.3829
   50DOPE   C33 6404   6.537   0.981   4.640  0.4969 -0.4576  0.5304
   50DOPE   H3X 6405   6.455   1.051   4.614  0.0352 -0.8662  0.8741
   50DOPE   H3Y 6406   6.634   1.018   4.601 -0.3089  0.9249 -0.2732
   50DOPE   C34 6407   6.536   0.970   4.794 -0.4045  0.7992  0.0245
   50DOPE   H4X 6408   6.551   1.070   4.839  1.0936  0.5110  0.2102
   50DOPE   H4Y 6409   6.443   0.917   4.824  1.0587 -1.7363  0.3608
   50DOPE   C35 6410   6.643   0.879   4.854 -0.5913  0.6123 -0.4591
   50DOPE   H5X 6411   6.746   0.899   4.817 -0.6858 -0.4602 -1.3397
   50DOPE   H5Y 6412   6.615   0.774   4.835  0.3140  0.9726 -4.7475
   50DOPE   C36 6413   6.657   0.901   5.009 -0.2339  0.1990 -0.3307
   50DOPE   H6X 6414   6.669   1.012   5.011  0.1192  0.2305 -2.3425
   50DOPE   H6Y 6415   6.751   0.851   5.039 -0.0379  0.1830 -0.9558
   50DOPE   C37 6416   6.532   0.862   5.077  0.4532  0.0367 -0.1038
   50DOPE   H7X 6417   6.448   0.922   5.037  0.3837  0.6045  0.8556
   50DOPE   H7Y 6418   6.512   0.753   5.080 -3.8444  0.6716 -0.4521
   50DOPE   C38 6419   6.533   0.918   5.225 -0.0895  0.5003 -0.9588
   50DOPE   H8X 6420   6.431   0.897   5.266  0.2689  0.3638 -0.1116
   50DOPE   H8Y 6421   6.549   1.028   5.220  3.2829  0.1743  0.3721
   50DOPE   C39 6422   6.640   0.872   5.318  0.1163  0.5084 -0.0748
   50DOPE   H9X 6423   6.742   0.888   5.282  0.3168 -1.6205 -0.5329
   50DOPE  C310 6424   6.617   0.812   5.434  0.6720  0.4771  0.0899
   50DOPE  H10X 6425   6.707   0.802   5.497  0.9556  0.8057 -0.2598
   50DOPE  C311 6426   6.486   0.782   5.492  0.2507 -0.6243  0.6517
   50DOPE  H11X 6427   6.423   0.874   5.493 -1.2855 -1.5193 -2.2344
   50DOPE  H11Y 6428   6.435   0.706   5.431 -1.9033  0.5423  0.8937
   50DOPE  C312 6429   6.492   0.739   5.641 -0.3141 -0.3392 -0.6993
   50DOPE  H12X 6430   6.525   0.632   5.641 -2.7768 -1.1651  0.0211
   50DOPE  H12Y 6431   6.389   0.733   5.682 -0.3023  0.3987 -0.5472
   50DOPE  C313 6432   6.568   0.831   5.741  0.0486 -0.1550 -0.5080
   50DOPE  H13X 6433   6.678   0.817   5.737  0.2534  1.3893 -1.0693
   50DOPE  H13Y 6434   6.549   0.939   5.721  0.9270  0.0507 -0.2766
   50DOPE  C314 6435   6.518   0.794   5.887  0.1704 -0.3677 -0.1453
   50DOPE  H14X 6436   6.520   0.685   5.906  0.4009 -0.0743  1.7335
   50DOPE  H14Y 6437   6.413   0.829   5.882  0.2307 -0.2193 -0.4218
   50DOPE  C315 6438   6.597   0.869   5.999 -0.8941 -0.5916 -0.1681
   50DOPE  H15X 6439   6.530   0.865   6.087  0.3750  1.3611  0.9572
   50DOPE  H15Y 6440   6.612   0.977   5.975 -2.1727 -0.4971 -0.6328
   50DOPE  C316 6441   6.726   0.795   6.048  1.0026  0.0312 -0.5493
   50DOPE  H16X 6442   6.804   0.777   5.970  0.8496 -0.4629 -0.5949
   50DOPE  H16Y 6443   6.694   0.691   6.071 -1.5611  1.2353  1.9433
   50DOPE  C317 6444   6.778   0.859   6.178  0.5115 -0.4336  0.0718
   50DOPE  H17X 6445   6.826   0.955   6.148 -1.7902  0.9130  0.3667
   50DOPE  H17Y 6446   6.691   0.894   6.238  0.3387 -0.3546 -0.2222
   50DOPE  C318 6447   6.879   0.775   6.259  0.6881  0.1766  0.4155
   50DOPE  H18X 6448   6.919   0.824   6.351 -0.9814  0.1500  1.1942
   50DOPE  H18Y 6449   6.830   0.679   6.287  0.9144  0.5477  2.2113
   50DOPE  H18Z 6450   6.966   0.747   6.196  0.2379  1.9966 -1.1010
   51DOPE     N 6451   2.719   1.838   3.418  0.1296 -0.3647  0.4448
   51DOPE   HN1 6452   2.791   1.822   3.345  0.5580  2.0271  0.2895
   51DOPE   HN2 6453   2.624   1.839   3.375 -0.1203  0.4583  0.9884
   51DOPE   HN3 6454   2.739   1.932   3.458  2.6183 -1.6812  2.6417
   51DOPE   C12 6455   2.711   1.737   3.525 -0.4014  0.0177 -0.0043
   51DOPE  H12A 6456   2.812   1.692   3.536 -0.5568  0.2154  3.3675
   51DOPE  H12B 6457   2.650   1.650   3.493  0.3602  0.0236 -1.5603
   51DOPE   C11 6458   2.681   1.807   3.661 -0.8468 -0.3105 -0.1806
   51DOPE  H11A 6459   2.766   1.875   3.682 -1.9868  1.6126 -1.4638
   51DOPE  H11B 6460   2.687   1.728   3.738 -0.4003 -0.4464 -0.3536
   51DOPE     P 6461   2.423   1.835   3.720  0.1853  0.2028 -0.1069
   51DOPE   O13 6462   2.404   1.694   3.673  0.4006 -0.0798 -0.2143
   51DOPE   O14 6463   2.313   1.923   3.683  0.0027  0.0824 -0.5115
   51DOPE   O11 6464   2.436   1.840   3.879 -0.3900  0.3870  0.1136
   51DOPE   O12 6465   2.563   1.891   3.661 -0.2412  0.0678  0.2120
   51DOPE    C1 6466   2.486   1.964   3.932  0.1271  0.3018  0.1735
   51DOPE    HA 6467   2.431   2.050   3.889 -0.8366 -1.3498 -2.1352
   51DOPE    HB 6468   2.596   1.971   3.915 -0.0536 -0.3152 -1.4190
   51DOPE    C2 6469   2.447   1.968   4.083 -0.0744  0.7270 -0.1820
   51DOPE    HS 6470   2.506   2.049   4.131  1.9215 -1.5506  1.4580
   51DOPE   O21 6471   2.474   1.845   4.149  0.1892  0.0523 -0.1451
   51DOPE   C21 6472   2.599   1.794   4.143 -0.0609 -0.7187  0.2773
   51DOPE   O22 6473   2.697   1.837   4.082 -0.4455  0.0351 -0.0023
   51DOPE   C22 6474   2.610   1.675   4.240  0.3872 -0.7082  0.0717
   51DOPE   H2R 6475   2.672   1.590   4.204 -0.4242 -2.2467  2.0716
   51DOPE   H2S 6476   2.508   1.630   4.237  0.3563 -0.6690  0.4650
   51DOPE    C3 6477   2.295   2.010   4.114  0.1987 -0.2874  0.8232
   51DOPE    HX 6478   2.228   1.943   4.057 -1.5596  2.6577 -0.7968
   51DOPE    HY 6479   2.281   2.108   4.063  0.2144 -1.3330 -1.3075
   51DOPE   O31 6480   2.263   2.022   4.251 -0.6576  0.7327  0.7059
   51DOPE   C31 6481   2.236   1.909   4.317  0.6706 -0.0638  0.1026
   51DOPE   O32 6482   2.238   1.795   4.274 -0.7984 -0.0877 -0.8356
   51DOPE   C32 6483   2.211   1.953   4.462  0.1334 -0.1646 -0.2692
   51DOPE   H2X 6484   2.256   2.050   4.490  1.1844 -0.1688 -1.8449
   51DOPE   H2Y 6485   2.100   1.950   4.475  0.4386 -1.3632  3.3133
   51DOPE   C23 6486   2.643   1.719   4.385  0.3884  0.0778  0.3185
   51DOPE   H3R 6487   2.585   1.811   4.408  0.0036 -0.3297  1.0290
   51DOPE   H3S 6488   2.752   1.739   4.388  0.4858 -0.4126  2.8053
   51DOPE   C24 6489   2.591   1.622   4.497 -0.0769 -0.1120  0.5379
   51DOPE   H4R 6490   2.608   1.518   4.463 -0.9122 -0.2825  0.6243
   51DOPE   H4S 6491   2.481   1.622   4.507 -0.0351  0.4998  1.0562
   51DOPE   C25 6492   2.639   1.654   4.640  0.1900 -0.0413  0.2465
   51DOPE   H5R 6493   2.610   1.759   4.664  0.6415 -0.3871  2.5149
   51DOPE   H5S 6494   2.750   1.661   4.636  0.1840 -0.3398 -0.6499
   51DOPE   C26 6495   2.585   1.565   4.749 -0.3175 -0.4746 -0.3059
   51DOPE   H6R 6496   2.591   1.459   4.716  0.9748 -0.1187 -1.2791
   51DOPE   H6S 6497   2.477   1.578   4.773  0.1032 -1.3175  2.3723
   51DOPE   C27 6498   2.667   1.586   4.882  0.5201  0.2110  0.4962
   51DOPE   H7R 6499   2.777   1.584   4.869  0.9289  1.5565  2.9912
   51DOPE   H7S 6500   2.638   1.498   4.944  1.1881  0.0586  0.6023
   51DOPE   C28 6501   2.619   1.696   4.968  0.0323  0.3412  0.3783
   51DOPE   H8R 6502   2.516   1.669   5.001  0.1550  0.4460  0.8405
   51DOPE   H8S 6503   2.601   1.789   4.911 -1.2238 -0.4436 -0.5692
   51DOPE   C29 6504   2.704   1.725   5.075 -0.7160  0.3774 -0.8889
   51DOPE   H9R 6505   2.761   1.638   5.111  0.9336  0.9550 -1.9917
   51DOPE  C210 6506   2.695   1.835   5.151 -0.1854 -0.0870 -0.4931
   51DOPE  H10R 6507   2.762   1.845   5.238  1.2543  0.9825 -1.6616
   51DOPE  C211 6508   2.609   1.954   5.122 -0.2326 -0.1646  0.4806
   51DOPE  H11R 6509   2.564   1.998   5.214 -2.6365  0.0809 -0.7422
   51DOPE  H11S 6510   2.517   1.926   5.067 -0.0752 -1.9856  1.0916
   51DOPE  C212 6511   2.701   2.060   5.059 -0.5360 -0.0690 -0.2201
   51DOPE  H12R 6512   2.760   2.028   4.970 -0.7165 -0.5892 -0.1554
   51DOPE  H12S 6513   2.781   2.077   5.134 -1.7349 -1.1792  1.3768
   51DOPE  C213 6514   2.646   2.203   5.020 -0.3233  0.1983 -0.5531
   51DOPE  H13R 6515   2.719   2.287   5.014 -0.6779  0.4956 -0.7334
   51DOPE  H13S 6516   2.587   2.229   5.110 -0.3456 -0.1481 -0.4647
   51DOPE  C214 6517   2.557   2.204   4.893 -0.3243  0.5017  0.4401
   51DOPE  H14R 6518   2.521   2.310   4.896  2.2727  1.4254  1.6439
   51DOPE  H14S 6519   2.476   2.129   4.906  1.2569 -2.1623 -3.2529
   51DOPE  C215 6520   2.629   2.180   4.762 -0.2705  0.3673  0.7204
   51DOPE  H15R 6521   2.685   2.086   4.783 -1.9760 -0.8303  0.1565
   51DOPE  H15S 6522   2.694   2.265   4.733 -1.8674  1.0114 -1.2380
   51DOPE  C216 6523   2.542   2.129   4.639 -0.8593  0.5129 -0.0598
   51DOPE  H16R 6524   2.471   2.212   4.621 -2.3120 -0.8219 -0.6572
   51DOPE  H16S 6525   2.479   2.040   4.660 -0.5615  0.0834 -0.9474
   51DOPE  C217 6526   2.651   2.099   4.526 -0.1009  0.0816  0.0872
   51DOPE  H17R 6527   2.706   2.008   4.557 -0.7770 -0.0617  0.9418
   51DOPE  H17S 6528   2.724   2.182   4.530  3.8059 -3.0571 -0.6455
   51DOPE  C218 6529   2.571   2.084   4.397 -0.0604  0.5414  0.0320
   51DOPE  H18R 6530   2.636   2.099   4.308 -0.6769  0.6488 -0.4008
   51DOPE  H18S 6531   2.502   2.171   4.394  1.7861  2.2820  2.7207
   51DOPE  H18T 6532   2.509   1.992   4.391  0.1315  0.2717  1.5355
   51DOPE   C33 6533   2.255   1.842   4.561 -0.1350  0.1772  0.1181
   51DOPE   H3X 6534   2.362   1.864   4.580 -0.0587 -0.8371  0.9295
   51DOPE   H3Y 6535   2.236   1.740   4.521  0.7625  0.5914 -1.4824
   51DOPE   C34 6536   2.184   1.855   4.698  1.0153  0.0176  0.3477
   51DOPE   H4X 6537   2.218   1.954   4.734 -0.8275  0.8060  0.0531
   51DOPE   H4Y 6538   2.074   1.868   4.691  1.2312  1.5327 -0.5342
   51DOPE   C35 6539   2.218   1.738   4.789 -0.2755  0.5236  0.8071
   51DOPE   H5X 6540   2.328   1.729   4.803 -0.5876 -0.9569  2.7411
   51DOPE   H5Y 6541   2.192   1.635   4.756  1.5759  0.0132  0.8300
   51DOPE   C36 6542   2.160   1.758   4.931  0.1084  0.6076 -0.3896
   51DOPE   H6X 6543   2.049   1.762   4.935  0.1484  1.9710  3.4942
   51DOPE   H6Y 6544   2.198   1.857   4.962  1.0695  0.3247 -0.6308
   51DOPE   C37 6545   2.191   1.654   5.040  0.6107 -0.2545  0.2323
   51DOPE   H7X 6546   2.140   1.560   5.009  2.3782 -0.4884 -2.2416
   51DOPE   H7Y 6547   2.301   1.637   5.051  0.7445 -0.2334 -1.0069
   51DOPE   C38 6548   2.134   1.705   5.167 -0.4844  0.1395  0.2583
   51DOPE   H8X 6549   2.146   1.622   5.240  0.6288  0.3243  0.3111
   51DOPE   H8Y 6550   2.024   1.716   5.156 -0.6798 -0.1380  1.8058
   51DOPE   C39 6551   2.204   1.827   5.221  0.8912 -0.1803 -0.8585
   51DOPE   H9X 6552   2.171   1.921   5.174 -1.9898  0.2040  1.6174
   51DOPE  C310 6553   2.297   1.826   5.319 -0.2564 -0.0721  0.4474
   51DOPE  H10X 6554   2.340   1.923   5.349 -0.3661 -0.4843  2.0214
   51DOPE  C311 6555   2.347   1.697   5.383 -0.1490 -0.4544  0.2423
   51DOPE  H11X 6556   2.268   1.626   5.414 -0.8048  1.0333  2.1785
   51DOPE  H11Y 6557   2.401   1.634   5.309 -0.2340 -0.8150  0.4890
   51DOPE  C312 6558   2.421   1.727   5.518  0.0837 -0.5917  0.2461
   51DOPE  H12X 6559   2.513   1.783   5.489  0.4645 -0.9381  0.7751
   51DOPE  H12Y 6560   2.448   1.629   5.563 -1.7272 -0.4647  1.7071
   51DOPE  C313 6561   2.331   1.786   5.620 -0.2894  0.1166 -0.4779
   51DOPE  H13X 6562   2.397   1.814   5.704 -0.7218  2.8075 -0.9472
   51DOPE  H13Y 6563   2.290   1.881   5.579  1.8675  1.2482 -0.1790
   51DOPE  C314 6564   2.215   1.702   5.675 -0.3932  0.0054 -0.8899
   51DOPE  H14X 6565   2.261   1.615   5.728 -0.7315  0.7682  0.7152
   51DOPE  H14Y 6566   2.159   1.655   5.591 -1.2450  1.9299 -1.4620
   51DOPE  C315 6567   2.130   1.787   5.776  0.2695  0.1564 -0.3392
   51DOPE  H15X 6568   2.101   1.882   5.725  0.2206  0.6478  0.5915
   51DOPE  H15Y 6569   2.199   1.825   5.854 -2.0216  2.3675  0.7492
   51DOPE  C316 6570   2.008   1.719   5.818 -0.4335 -0.3199  0.2029
   51DOPE  H16X 6571   2.028   1.613   5.845  0.2029  0.0699  1.3494
   51DOPE  H16Y 6572   1.941   1.705   5.731  2.1676 -2.0656 -1.6608
   51DOPE  C317 6573   1.932   1.792   5.938 -0.7301 -0.1278 -0.4894
   51DOPE  H17X 6574   1.889   1.891   5.913  0.3218  0.7831  1.0909
   51DOPE  H17Y 6575   1.853   1.720   5.968 -0.4630  0.4323  1.7076
   51DOPE  C318 6576   2.014   1.814   6.067 -0.0275 -0.3767  0.1111
   51DOPE  H18X 6577   2.029   1.728   6.135  1.7101 -0.8258 -0.7625
   51DOPE  H18Y 6578   2.116   1.851   6.042 -0.0045 -1.7895 -2.1660
   51DOPE  H18Z 6579   1.958   1.887   6.128 -0.8182 -2.2481  1.7047
   52DOPE     N 6580   0.407   0.561   3.307 -0.2717  0.9573 -0.3393
   52DOPE   HN1 6581   0.416   0.650   3.358  1.7357  0.8606 -0.4541
   52DOPE   HN2 6582   0.495   0.544   3.253 -0.6638  0.7560 -0.9298
   52DOPE   HN3 6583   0.334   0.548   3.233  1.0842 -1.4023 -1.3744
   52DOPE   C12 6584   0.382   0.454   3.420  0.4046 -0.4504  0.3536
   52DOPE  H12A 6585   0.450   0.474   3.506 -1.1643  1.6983  1.2024
   52DOPE  H12B 6586   0.387   0.353   3.375  1.3538  0.2558 -1.1820
   52DOPE   C11 6587   0.234   0.481   3.479 -1.0920  0.5373  1.0251
   52DOPE  H11A 6588   0.212   0.395   3.546 -1.8654 -0.4266 -0.3918
   52DOPE  H11B 6589   0.163   0.476   3.393 -0.1009 -2.2368  0.2401
   52DOPE     P 6590   0.227   0.628   3.700 -0.1558 -0.5078  0.1033
   52DOPE   O13 6591   0.114   0.565   3.767  0.2501 -0.5158  0.5489
   52DOPE   O14 6592   0.254   0.771   3.722  0.1327 -0.4969  0.3470
   52DOPE   O11 6593   0.351   0.541   3.726  0.3830  0.1588  0.3659
   52DOPE   O12 6594   0.216   0.607   3.538  0.0217  0.6360  0.1292
   52DOPE    C1 6595   0.477   0.587   3.779 -0.2881  0.3994  0.4055
   52DOPE    HA 6596   0.485   0.697   3.765 -0.3157  0.3690  0.1473
   52DOPE    HB 6597   0.555   0.529   3.725 -0.2801 -0.8288  1.6864
   52DOPE    C2 6598   0.505   0.547   3.923  0.7988  0.5734 -0.6257
   52DOPE    HS 6599   0.490   0.437   3.916 -0.3409  0.6839 -0.1754
   52DOPE   O21 6600   0.393   0.615   3.995 -0.1713 -0.8223 -0.5566
   52DOPE   C21 6601   0.348   0.529   4.091  0.3619  0.9926 -0.1074
   52DOPE   O22 6602   0.410   0.431   4.118 -0.0698 -0.4697 -0.1001
   52DOPE   C22 6603   0.215   0.580   4.136 -0.4558  0.1865 -0.5122
   52DOPE   H2R 6604   0.138   0.552   4.062  0.2870 -1.0404 -0.8607
   52DOPE   H2S 6605   0.218   0.691   4.139  1.5397  0.1621  1.0540
   52DOPE    C3 6606   0.638   0.605   3.987 -0.6698  0.1337 -0.0107
   52DOPE    HX 6607   0.626   0.715   3.989  1.1889  0.3671  0.0467
   52DOPE    HY 6608   0.724   0.583   3.920  0.1199  2.1354  0.2958
   52DOPE   O31 6609   0.663   0.545   4.121  0.3090 -0.1338  0.5570
   52DOPE   C31 6610   0.678   0.638   4.216  0.4221  0.0173  0.0642
   52DOPE   O32 6611   0.649   0.758   4.208  0.2756  0.4810  0.6605
   52DOPE   C32 6612   0.711   0.563   4.342  0.1879  0.0313  0.3967
   52DOPE   H2X 6613   0.664   0.463   4.336 -0.9770  0.6094 -0.7198
   52DOPE   H2Y 6614   0.821   0.563   4.359  0.2390 -0.1195  0.0683
   52DOPE   C23 6615   0.182   0.519   4.273 -0.0935 -0.1034  0.2847
   52DOPE   H3R 6616   0.204   0.411   4.268 -1.4073 -0.3362 -3.0585
   52DOPE   H3S 6617   0.072   0.522   4.284 -0.0188  3.0238  1.2096
   52DOPE   C24 6618   0.252   0.590   4.388 -0.0689 -0.6753  0.3080
   52DOPE   H4R 6619   0.247   0.699   4.367 -0.1858 -0.8709 -0.7548
   52DOPE   H4S 6620   0.361   0.566   4.394  0.5233  1.3345 -1.2257
   52DOPE   C25 6621   0.167   0.561   4.507  0.0377  0.1499 -0.5155
   52DOPE   H5R 6622   0.166   0.450   4.513 -1.5147  0.0926 -1.2267
   52DOPE   H5S 6623   0.059   0.582   4.492  0.0765  0.7411 -0.0405
   52DOPE   C26 6624   0.214   0.618   4.635 -0.4152 -0.4773  0.2930
   52DOPE   H6R 6625   0.136   0.599   4.711 -1.0208  0.3780 -0.1060
   52DOPE   H6S 6626   0.238   0.726   4.635 -1.6354 -0.1870  1.2851
   52DOPE   C27 6627   0.339   0.539   4.696 -0.3701  0.4943  0.2042
   52DOPE   H7R 6628   0.422   0.547   4.622 -1.2417 -0.9353 -0.9752
   52DOPE   H7S 6629   0.312   0.432   4.706 -1.8289  0.8402  0.1607
   52DOPE   C28 6630   0.372   0.603   4.834 -0.1154 -0.2415 -0.0966
   52DOPE   H8R 6631   0.399   0.710   4.821  2.1027 -1.0045 -2.7798
   52DOPE   H8S 6632   0.472   0.568   4.870 -1.0336 -1.4858  1.3596
   52DOPE   C29 6633   0.274   0.603   4.940  0.4708 -0.6605  0.4052
   52DOPE   H9R 6634   0.181   0.660   4.925  1.1785  0.6402  0.7903
   52DOPE  C210 6635   0.285   0.558   5.059 -0.1115  0.6042  0.7048
   52DOPE  H10R 6636   0.194   0.544   5.119  0.6104 -1.5510  1.3804
   52DOPE  C211 6637   0.402   0.479   5.100 -0.3441  0.7042  0.2268
   52DOPE  H11R 6638   0.457   0.433   5.015 -1.1246  0.3064 -0.0674
   52DOPE  H11S 6639   0.354   0.393   5.150  0.2026  0.4256  0.2822
   52DOPE  C212 6640   0.483   0.554   5.205 -0.2328 -0.4257 -0.2916
   52DOPE  H12R 6641   0.515   0.651   5.161  0.5931 -1.1131 -1.2459
   52DOPE  H12S 6642   0.569   0.491   5.234  0.0220  0.1308  0.1792
   52DOPE  C213 6643   0.412   0.581   5.341  0.6245 -0.5312 -0.3388
   52DOPE  H13R 6644   0.328   0.655   5.338  0.9190 -0.0893  1.1978
   52DOPE  H13S 6645   0.485   0.633   5.406 -0.7535  0.8548  0.1866
   52DOPE  C214 6646   0.359   0.450   5.413  0.1912  0.1508 -0.5265
   52DOPE  H14R 6647   0.432   0.369   5.390 -1.2536 -1.0216 -1.1713
   52DOPE  H14S 6648   0.265   0.402   5.379  1.7362 -1.7427 -2.4313
   52DOPE  C215 6649   0.360   0.461   5.561  0.3041 -0.1719 -0.7474
   52DOPE  H15R 6650   0.455   0.499   5.605 -0.6781  0.6812  0.7103
   52DOPE  H15S 6651   0.341   0.361   5.606  0.3043 -0.3130 -1.0545
   52DOPE  C216 6652   0.247   0.547   5.619 -0.3696 -0.5382  0.1406
   52DOPE  H16R 6653   0.155   0.543   5.557 -1.3664 -1.4713  1.6147
   52DOPE  H16S 6654   0.285   0.651   5.618 -1.7783  0.0115  0.8542
   52DOPE  C217 6655   0.204   0.511   5.759 -0.5396  0.1438 -0.6155
   52DOPE  H17R 6656   0.150   0.414   5.753 -0.7230  0.1698  0.3299
   52DOPE  H17S 6657   0.131   0.588   5.793 -1.9046 -0.0314 -2.9761
   52DOPE  C218 6658   0.323   0.501   5.867 -0.2576 -0.2089  0.2145
   52DOPE  H18R 6659   0.276   0.452   5.956 -0.5056  0.1548  0.2836
   52DOPE  H18S 6660   0.398   0.445   5.807 -1.2314 -0.6138 -0.6471
   52DOPE  H18T 6661   0.363   0.601   5.891  0.4216 -0.1389 -1.1351
   52DOPE   C33 6662   0.649   0.631   4.469 -0.3904 -0.0130  0.5908
   52DOPE   H3X 6663   0.655   0.555   4.550 -0.1245 -1.1904 -0.4938
   52DOPE   H3Y 6664   0.542   0.661   4.467 -0.7679 -1.0904  2.2444
   52DOPE   C34 6665   0.733   0.736   4.523 -0.0469 -0.9166  0.4328
   52DOPE   H4X 6666   0.841   0.709   4.523  0.0072 -0.6981  0.2907
   52DOPE   H4Y 6667   0.728   0.823   4.454  0.1668  0.7752  2.4515
   52DOPE   C35 6668   0.701   0.780   4.667 -0.4472 -0.0921  0.6273
   52DOPE   H5X 6669   0.708   0.684   4.722 -0.5746 -0.6415 -0.2938
   52DOPE   H5Y 6670   0.601   0.829   4.677 -0.4976 -0.5034  2.2967
   52DOPE   C36 6671   0.799   0.887   4.723 -0.0090  0.3376  0.1466
   52DOPE   H6X 6672   0.806   0.961   4.641  0.3189 -2.1080 -2.1767
   52DOPE   H6Y 6673   0.901   0.848   4.743  0.0556  0.2447 -0.3424
   52DOPE   C37 6674   0.753   0.954   4.847 -0.3080 -0.5334  0.4164
   52DOPE   H7X 6675   0.770   1.063   4.835  3.3627 -1.0884 -0.4965
   52DOPE   H7Y 6676   0.643   0.939   4.848 -0.2899 -0.6762  1.2288
   52DOPE   C38 6677   0.800   0.906   4.976 -0.2339  0.2430 -0.4538
   52DOPE   H8X 6678   0.751   0.967   5.055  1.8591  0.8701  0.4267
   52DOPE   H8Y 6679   0.900   0.956   4.975 -0.6951  1.2966  1.2964
   52DOPE   C39 6680   0.805   0.765   5.011 -0.2743  1.1217 -0.4045
   52DOPE   H9X 6681   0.827   0.708   4.920 -0.2881  3.6861 -2.1266
   52DOPE  C310 6682   0.786   0.710   5.132 -0.0965  0.4589  0.6512
   52DOPE  H10X 6683   0.780   0.600   5.136 -1.2076  0.4902  0.1600
   52DOPE  C311 6684   0.778   0.767   5.273  0.0360  0.3724  0.3353
   52DOPE  H11X 6685   0.802   0.874   5.294  1.3548  0.2182 -0.2871
   52DOPE  H11Y 6686   0.675   0.752   5.312  0.4652 -1.0680  0.9880
   52DOPE  C312 6687   0.849   0.673   5.368 -0.2059  0.0053 -0.1705
   52DOPE  H12X 6688   0.957   0.664   5.341 -0.0305  0.4106  0.3639
   52DOPE  H12Y 6689   0.812   0.570   5.351 -2.9918  1.0732 -1.2028
   52DOPE  C313 6690   0.829   0.718   5.514 -0.0468 -0.8061  0.0677
   52DOPE  H13X 6691   0.888   0.811   5.527 -2.8404  1.2334 -0.7602
   52DOPE  H13Y 6692   0.722   0.732   5.539  0.5952  0.3468  2.4126
   52DOPE  C314 6693   0.882   0.613   5.614  0.1260  0.4279 -0.5660
   52DOPE  H14X 6694   0.983   0.583   5.580 -0.5036 -3.6441  0.5945
   52DOPE  H14Y 6695   0.825   0.518   5.617  1.1573 -0.3153 -2.5613
   52DOPE  C315 6696   0.892   0.657   5.762  0.2466  0.5959 -0.2840
   52DOPE  H15X 6697   0.953   0.750   5.771 -0.7951  1.1187  2.0595
   52DOPE  H15Y 6698   0.941   0.568   5.807 -3.7361 -1.6287  0.0710
   52DOPE  C316 6699   0.758   0.683   5.832  0.6939  0.9525 -0.3618
   52DOPE  H16X 6700   0.687   0.607   5.793  0.5788  0.2907  1.0536
   52DOPE  H16Y 6701   0.727   0.787   5.811 -2.0581  0.2845  0.0739
   52DOPE  C317 6702   0.770   0.669   5.979  0.2836  0.4675  0.0079
   52DOPE  H17X 6703   0.799   0.565   6.004 -1.0999  0.4908  1.9388
   52DOPE  H17Y 6704   0.848   0.738   6.020 -0.1877  0.9630  0.0854
   52DOPE  C318 6705   0.646   0.697   6.059  0.1572  0.2945  0.2333
   52DOPE  H18X 6706   0.569   0.746   5.996 -0.3929 -0.8815 -0.0294
   52DOPE  H18Y 6707   0.604   0.597   6.080  1.8582 -0.6871 -0.7775
   52DOPE  H18Z 6708   0.649   0.758   6.153  1.6329  0.5612  0.0316
   53DOPE     N 6709   5.279   2.069   4.211  0.1279  0.2364  0.7325
   53DOPE   HN1 6710   5.233   1.992   4.263 -1.2040  0.5402  0.0383
   53DOPE   HN2 6711   5.352   2.032   4.147  0.8992  2.0812  0.4772
   53DOPE   HN3 6712   5.330   2.139   4.269  1.9173 -0.0350 -0.4123
   53DOPE   C12 6713   5.169   2.142   4.133  0.3963  0.1421  0.4300
   53DOPE  H12A 6714   5.218   2.223   4.075  0.0421 -0.7522 -1.1767
   53DOPE  H12B 6715   5.105   2.186   4.212  0.2534 -0.6491  0.7655
   53DOPE   C11 6716   5.088   2.055   4.020  0.1765  0.1562  0.7458
   53DOPE  H11A 6717   5.152   2.055   3.930 -0.1799  1.3349  0.4784
   53DOPE  H11B 6718   5.004   2.127   4.007  1.6384  1.8581  0.4116
   53DOPE     P 6719   4.901   1.871   4.039  0.2498 -0.1226  0.0053
   53DOPE   O13 6720   4.879   1.748   4.121 -0.2720  0.1919 -1.1390
   53DOPE   O14 6721   4.901   1.850   3.895  0.4217 -0.1065 -0.1053
   53DOPE   O11 6722   4.799   1.979   4.087  0.1039 -0.0176  0.9273
   53DOPE   O12 6723   5.048   1.928   4.065  0.1431 -0.4778  0.7888
   53DOPE    C1 6724   4.811   2.020   4.222  0.0123 -0.2789  0.8294
   53DOPE    HA 6725   4.761   2.118   4.230  1.2267  0.3668  0.8341
   53DOPE    HB 6726   4.914   2.031   4.265  0.4620  0.7159 -0.4541
   53DOPE    C2 6727   4.737   1.937   4.336  0.4141 -0.6234 -0.2472
   53DOPE    HS 6728   4.771   1.831   4.336  4.5359  0.5083 -0.3175
   53DOPE   O21 6729   4.601   1.943   4.295 -0.0296  0.1837 -0.1826
   53DOPE   C21 6730   4.523   1.873   4.375  0.1928 -0.3523 -0.6482
   53DOPE   O22 6731   4.557   1.798   4.465  0.3248  0.4010 -0.7388
   53DOPE   C22 6732   4.382   1.909   4.340 -0.3574  0.5213  0.2625
   53DOPE   H2R 6733   4.319   1.818   4.338  0.1881  0.0982  1.3304
   53DOPE   H2S 6734   4.378   1.947   4.236 -0.1827  0.5608  0.2697
   53DOPE    C3 6735   4.784   1.994   4.478  0.2598 -0.7577  0.3898
   53DOPE    HX 6736   4.893   1.979   4.487  0.1204 -1.1995  1.4388
   53DOPE    HY 6737   4.734   1.938   4.560  0.6749 -0.4289  0.8679
   53DOPE   O31 6738   4.749   2.131   4.492 -0.3381 -0.4390 -0.3712
   53DOPE   C31 6739   4.806   2.182   4.606 -0.0920  0.1670  0.4638
   53DOPE   O32 6740   4.873   2.122   4.685  0.0785  0.1072  0.0995
   53DOPE   C32 6741   4.757   2.325   4.631 -0.4415  0.1380  0.1520
   53DOPE   H2X 6742   4.815   2.374   4.713 -2.0475 -1.4492  2.3676
   53DOPE   H2Y 6743   4.768   2.369   4.530  0.1523  0.7769  0.4892
   53DOPE   C23 6744   4.330   2.008   4.451 -0.7832 -0.6753 -0.0161
   53DOPE   H3R 6745   4.233   2.036   4.406 -1.6348 -0.6971  1.7409
   53DOPE   H3S 6746   4.388   2.102   4.468 -0.1935 -1.1672  0.7445
   53DOPE   C24 6747   4.296   1.937   4.582  0.4356 -0.3152 -0.8866
   53DOPE   H4R 6748   4.284   1.827   4.579 -0.5430 -0.2682  0.4130
   53DOPE   H4S 6749   4.210   1.978   4.639  1.8120 -1.2988  2.0616
   53DOPE   C25 6750   4.412   1.970   4.680 -0.3012  0.4652 -1.0175
   53DOPE   H5R 6751   4.417   2.075   4.716 -0.9760  0.3951 -0.6995
   53DOPE   H5S 6752   4.510   1.947   4.634  0.4209 -1.6126  1.3554
   53DOPE   C26 6753   4.403   1.884   4.802 -0.4891  0.1122  0.2272
   53DOPE   H6R 6754   4.424   1.783   4.759 -0.3786  0.6589 -1.0420
   53DOPE   H6S 6755   4.301   1.885   4.847 -1.4381 -2.1941 -1.6226
   53DOPE   C27 6756   4.511   1.910   4.908 -0.0563 -0.1198 -0.6819
   53DOPE   H7R 6757   4.489   2.012   4.944  0.7801 -0.1705 -0.0032
   53DOPE   H7S 6758   4.604   1.903   4.848 -0.4631 -1.9381 -1.1651
   53DOPE   C28 6759   4.527   1.812   5.029 -0.0041 -0.6597  0.2709
   53DOPE   H8R 6760   4.556   1.719   4.976  2.4085  0.3368 -0.2859
   53DOPE   H8S 6761   4.430   1.789   5.078 -0.6179  2.3978  0.7056
   53DOPE   C29 6762   4.637   1.840   5.126 -0.2784  0.1994  0.1402
   53DOPE   H9R 6763   4.735   1.850   5.079 -0.8281 -0.5293 -1.2302
   53DOPE  C210 6764   4.628   1.873   5.259 -0.6751  0.4363  0.4014
   53DOPE  H10R 6765   4.716   1.906   5.315 -0.4852  0.3246  0.1674
   53DOPE  C211 6766   4.501   1.879   5.344  0.0920 -0.4488  0.5337
   53DOPE  H11R 6767   4.426   1.817   5.290  2.2943 -3.3283  0.5151
   53DOPE  H11S 6768   4.465   1.983   5.352 -2.0952 -0.9908 -1.2534
   53DOPE  C212 6769   4.510   1.822   5.487 -0.3500 -0.6009 -0.6755
   53DOPE  H12R 6770   4.532   1.713   5.488  0.0489 -0.5224 -0.1981
   53DOPE  H12S 6771   4.421   1.849   5.548 -0.0756  0.3341 -0.6763
   53DOPE  C213 6772   4.607   1.902   5.568  0.1422  0.0131 -0.2289
   53DOPE  H13R 6773   4.561   2.003   5.577  0.1902 -0.0449  0.7787
   53DOPE  H13S 6774   4.705   1.913   5.518  2.1827 -1.7663  3.0364
   53DOPE  C214 6775   4.642   1.842   5.713 -0.2561 -0.4772 -0.2881
   53DOPE  H14R 6776   4.699   1.747   5.716  1.4160  0.5062  0.0307
   53DOPE  H14S 6777   4.550   1.829   5.773  0.4993 -2.1459  0.5623
   53DOPE  C215 6778   4.732   1.938   5.806  0.0253 -0.7110  0.2712
   53DOPE  H15R 6779   4.698   2.044   5.808 -0.0969 -0.6886  3.7638
   53DOPE  H15S 6780   4.831   1.935   5.756 -0.4668  1.2647 -0.9268
   53DOPE  C216 6781   4.740   1.878   5.949  0.3134 -0.2501  0.8145
   53DOPE  H16R 6782   4.775   1.773   5.940 -1.1047 -0.6301 -0.7326
   53DOPE  H16S 6783   4.637   1.872   5.992 -0.9551 -0.9561 -2.0883
   53DOPE  C217 6784   4.827   1.957   6.049  0.2791  0.4129  0.2081
   53DOPE  H17R 6785   4.783   2.059   6.049  0.7315  0.6320 -1.5896
   53DOPE  H17S 6786   4.935   1.968   6.024  0.0577  0.1686 -0.8697
   53DOPE  C218 6787   4.822   1.900   6.190  0.6857  0.0528  0.0799
   53DOPE  H18R 6788   4.889   1.961   6.254  0.7660  1.3433 -1.1637
   53DOPE  H18S 6789   4.853   1.794   6.184 -2.8967 -1.0415 -2.6329
   53DOPE  H18T 6790   4.721   1.885   6.233  0.5709 -2.1859 -0.8615
   53DOPE   C33 6791   4.606   2.338   4.674 -0.1385  0.0967 -0.0888
   53DOPE   H3X 6792   4.553   2.275   4.599 -1.3307  1.1552 -0.1658
   53DOPE   H3Y 6793   4.565   2.441   4.677  1.3887  0.7026  1.6873
   53DOPE   C34 6794   4.584   2.271   4.816 -0.6974  0.6274  0.5933
   53DOPE   H4X 6795   4.609   2.163   4.814 -2.2249  0.2535 -0.9280
   53DOPE   H4Y 6796   4.654   2.320   4.887  3.0520  1.4508 -3.2369
   53DOPE   C35 6797   4.442   2.292   4.876  0.5264  0.2269  0.1160
   53DOPE   H5X 6798   4.439   2.245   4.977 -1.5466 -1.2690 -0.5629
   53DOPE   H5Y 6799   4.368   2.247   4.806 -1.2017 -0.0162  2.0029
   53DOPE   C36 6800   4.411   2.443   4.903 -0.4937  0.0721  0.1663
   53DOPE   H6X 6801   4.309   2.449   4.945 -1.0627  0.9346 -1.2762
   53DOPE   H6Y 6802   4.391   2.493   4.806  2.1902 -1.9774 -1.5809
   53DOPE   C37 6803   4.504   2.530   4.994  0.3057  0.1132 -0.1643
   53DOPE   H7X 6804   4.605   2.512   4.951  0.3836 -0.6790  0.3280
   53DOPE   H7Y 6805   4.474   2.636   4.979 -0.0399  0.5284  2.8327
   53DOPE   C38 6806   4.496   2.497   5.149 -0.4056  0.0486  0.3091
   53DOPE   H8X 6807   4.571   2.564   5.194  0.5755 -1.6487  1.3146
   53DOPE   H8Y 6808   4.535   2.394   5.163 -1.2427 -0.7405 -2.4604
   53DOPE   C39 6809   4.351   2.516   5.199  0.1520  0.3012  0.6168
   53DOPE   H9X 6810   4.278   2.453   5.144  0.9362 -1.4113  1.4545
   53DOPE  C310 6811   4.300   2.597   5.297 -0.0076  0.0793 -0.0125
   53DOPE  H10X 6812   4.191   2.592   5.311  0.2788 -1.2063  2.0751
   53DOPE  C311 6813   4.366   2.696   5.388 -0.4961 -0.0554  0.6133
   53DOPE  H11X 6814   4.460   2.655   5.430  1.1318  2.4575 -0.3571
   53DOPE  H11Y 6815   4.380   2.797   5.344  0.7182 -0.8437 -0.8973
   53DOPE  C312 6816   4.278   2.738   5.511  0.0005 -1.0573 -0.1642
   53DOPE  H12X 6817   4.172   2.747   5.476 -0.3222 -0.2262  0.9920
   53DOPE  H12Y 6818   4.312   2.840   5.536  1.0241 -1.1159 -1.2565
   53DOPE  C313 6819   4.278   2.647   5.633 -0.0745  0.1405  0.5408
   53DOPE  H13X 6820   4.230   2.551   5.602  3.1929 -1.2074 -0.7410
   53DOPE  H13Y 6821   4.381   2.613   5.654 -0.2911 -1.4185 -0.7076
   53DOPE  C314 6822   4.223   2.713   5.758  0.5428 -0.1710 -0.3708
   53DOPE  H14X 6823   4.113   2.711   5.742  0.3252  0.4491  0.8802
   53DOPE  H14Y 6824   4.258   2.818   5.747 -0.7959  0.2727 -0.6546
   53DOPE  C315 6825   4.271   2.640   5.891 -0.7463 -0.1468  0.2621
   53DOPE  H15X 6826   4.382   2.631   5.884 -0.8746 -4.1128  1.0761
   53DOPE  H15Y 6827   4.220   2.542   5.897 -1.5992  0.3514  1.7083
   53DOPE  C316 6828   4.232   2.717   6.013 -0.1098  0.5171  0.0929
   53DOPE  H16X 6829   4.121   2.715   6.011 -0.1372 -2.4830  0.3850
   53DOPE  H16Y 6830   4.271   2.820   6.024 -1.4312  0.9944  0.5202
   53DOPE  C317 6831   4.275   2.654   6.147  0.5750  0.9850 -0.5456
   53DOPE  H17X 6832   4.385   2.655   6.167  0.4142  0.9052  0.3988
   53DOPE  H17Y 6833   4.229   2.707   6.234 -1.0588 -2.6219  0.9994
   53DOPE  C318 6834   4.226   2.504   6.163 -0.4025 -0.1448 -0.1730
   53DOPE  H18X 6835   4.273   2.440   6.085  0.7186  1.6397 -1.0437
   53DOPE  H18Y 6836   4.265   2.472   6.262 -0.1749  0.9418  0.1061
   53DOPE  H18Z 6837   4.116   2.494   6.167 -0.6672  1.3936 -2.0629
   54DOPE     N 6838   5.890   0.190   4.038 -0.0284 -0.2544 -0.0714
   54DOPE   HN1 6839   5.954   0.271   4.047  0.8985 -0.8503 -1.0400
   54DOPE   HN2 6840   5.917   0.142   3.950 -0.7989 -2.4374  0.8139
   54DOPE   HN3 6841   5.794   0.228   4.022 -0.0690  0.0765  0.8679
   54DOPE   C12 6842   5.907   0.101   4.156 -0.0666  0.0477  0.3102
   54DOPE  H12A 6843   6.017   0.083   4.163 -0.1036 -0.1530  0.3572
   54DOPE  H12B 6844   5.851   0.007   4.140  1.3710 -0.6086 -1.2134
   54DOPE   C11 6845   5.867   0.176   4.282  0.5266 -1.0191  0.4659
   54DOPE  H11A 6846   5.905   0.280   4.288  0.9501 -1.0418 -1.2153
   54DOPE  H11B 6847   5.903   0.129   4.376  1.6914 -0.1801  0.4602
   54DOPE     P 6848   5.626   0.117   4.387 -0.4622  0.0930  0.1105
   54DOPE   O13 6849   5.670  -0.025   4.400  0.5330 -0.5885  0.2928
   54DOPE   O14 6850   5.492   0.139   4.327 -0.0882  0.4458 -0.0184
   54DOPE   O11 6851   5.636   0.187   4.531  0.2049  0.1259 -0.2869
   54DOPE   O12 6852   5.727   0.190   4.285 -0.4066 -0.1922  0.2238
   54DOPE    C1 6853   5.583   0.313   4.558  0.0409 -0.2409 -0.0195
   54DOPE    HA 6854   5.480   0.324   4.517 -0.6830  0.5620  1.8801
   54DOPE    HB 6855   5.656   0.389   4.523  0.7118 -0.3244  1.1374
   54DOPE    C2 6856   5.578   0.343   4.712 -0.2462  0.1292 -0.1135
   54DOPE    HS 6857   5.538   0.445   4.734 -0.7457 -0.3892  1.4820
   54DOPE   O21 6858   5.702   0.325   4.790 -0.7007  0.1236  0.0373
   54DOPE   C21 6859   5.791   0.416   4.775  0.2343  0.3852  0.3581
   54DOPE   O22 6860   5.789   0.514   4.703 -0.0021  0.1604 -0.7300
   54DOPE   C22 6861   5.919   0.379   4.846 -0.5118 -0.4381 -0.2486
   54DOPE   H2R 6862   5.971   0.473   4.875  3.3198 -1.9765 -1.5865
   54DOPE   H2S 6863   5.982   0.332   4.768 -0.3197 -0.1557 -0.2653
   54DOPE    C3 6864   5.468   0.243   4.780 -0.2677  0.2797 -0.4961
   54DOPE    HX 6865   5.491   0.138   4.751 -2.5802 -1.0714  2.1062
   54DOPE    HY 6866   5.369   0.271   4.737  0.8383  0.1557 -3.3844
   54DOPE   O31 6867   5.460   0.253   4.926 -0.8939 -0.0425 -0.2508
   54DOPE   C31 6868   5.535   0.183   5.011 -0.3737  0.2991  0.2141
   54DOPE   O32 6869   5.628   0.109   4.980  0.0332  0.3581  0.0743
   54DOPE   C32 6870   5.465   0.208   5.142  0.1078 -0.7554 -0.6911
   54DOPE   H2X 6871   5.481   0.318   5.143  1.7855 -0.9613  1.3935
   54DOPE   H2Y 6872   5.355   0.192   5.138  0.0884 -0.8234  0.0487
   54DOPE   C23 6873   5.901   0.297   4.979  0.3083 -0.3487 -0.3921
   54DOPE   H3R 6874   5.861   0.196   4.954  2.6211 -1.9885  1.9769
   54DOPE   H3S 6875   5.840   0.358   5.048  1.5070  2.4652 -1.6540
   54DOPE   C24 6876   6.031   0.257   5.045  0.4043 -0.3355  0.2090
   54DOPE   H4R 6877   6.088   0.349   5.072  1.2139 -0.3009 -1.5235
   54DOPE   H4S 6878   6.083   0.191   4.973 -2.2707 -3.6364  1.0503
   54DOPE   C25 6879   6.014   0.185   5.180  0.1411  0.8383  1.1936
   54DOPE   H5R 6880   6.116   0.146   5.202  1.1414  2.6647 -0.0522
   54DOPE   H5S 6881   5.940   0.102   5.181 -0.0558  0.7337 -3.4343
   54DOPE   C26 6882   5.994   0.279   5.297  0.0386 -0.1219 -0.5001
   54DOPE   H6R 6883   5.910   0.343   5.263 -0.5885 -1.3761 -1.3775
   54DOPE   H6S 6884   6.077   0.354   5.301  0.1322 -0.2396 -0.1943
   54DOPE   C27 6885   5.954   0.217   5.429  0.3096  0.7266 -0.4109
   54DOPE   H7R 6886   6.047   0.170   5.468 -0.7464 -1.1427  0.0114
   54DOPE   H7S 6887   5.891   0.135   5.387  0.6813 -0.2476  0.8471
   54DOPE   C28 6888   5.904   0.297   5.550 -0.6040  0.2368 -0.1901
   54DOPE   H8R 6889   5.836   0.377   5.515 -4.0094 -1.6358  1.5573
   54DOPE   H8S 6890   5.985   0.355   5.599 -1.8131  2.9585 -1.2035
   54DOPE   C29 6891   5.828   0.204   5.640  0.1336  0.7845 -0.0908
   54DOPE   H9R 6892   5.773   0.122   5.591  0.0164 -0.5121  2.0937
   54DOPE  C210 6893   5.839   0.206   5.775 -0.1934 -0.5838 -0.4132
   54DOPE  H10R 6894   5.778   0.129   5.825 -1.3744  1.0537  0.7582
   54DOPE  C211 6895   5.949   0.276   5.853 -0.0804 -0.1394  0.3356
   54DOPE  H11R 6896   5.968   0.379   5.817 -0.1565  0.8152  2.8530
   54DOPE  H11S 6897   6.035   0.207   5.844 -0.7512 -0.9808  0.2080
   54DOPE  C212 6898   5.924   0.277   6.008  0.0571 -0.4085  0.0051
   54DOPE  H12R 6899   5.828   0.330   6.026  1.0421  1.6652 -0.5203
   54DOPE  H12S 6900   6.002   0.336   6.061  0.4817 -0.0153 -1.0216
   54DOPE  C213 6901   5.907   0.144   6.072  0.0226 -0.2630 -0.0443
   54DOPE  H13R 6902   5.986   0.088   6.016  1.9814  2.1961  0.0609
   54DOPE  H13S 6903   5.807   0.097   6.060 -0.0547 -0.6671  1.8772
   54DOPE  C214 6904   5.941   0.140   6.227  0.3535 -0.0191 -0.1349
   54DOPE  H14R 6905   6.046   0.171   6.247  0.3005 -1.4371  2.9784
   54DOPE  H14S 6906   5.929   0.037   6.268 -1.3986  0.6972  1.2879
   54DOPE  C215 6907   5.869   0.238   6.329 -0.0831  0.0644  0.3977
   54DOPE  H15R 6908   5.760   0.216   6.332 -0.2962  1.1586  1.2381
   54DOPE  H15S 6909   5.863   0.338   6.280 -0.6339  0.2432  0.8176
   54DOPE  C216 6910   5.926   0.248   6.474  0.6091 -0.0554 -0.3372
   54DOPE  H16R 6911   6.032   0.280   6.479  0.9550 -1.2453  0.3273
   54DOPE  H16S 6912   5.912   0.148   6.521 -0.1569  1.5177  3.0445
   54DOPE  C217 6913   5.843   0.346   6.567  0.0901  0.1903  0.8462
   54DOPE  H17R 6914   5.877   0.337   6.672 -0.9454  0.2146  1.1919
   54DOPE  H17S 6915   5.742   0.301   6.559  0.1093 -0.1291  2.2081
   54DOPE  C218 6916   5.838   0.485   6.515  0.7454  0.0728 -0.3168
   54DOPE  H18R 6917   5.798   0.549   6.596  2.6693 -0.8023  1.3920
   54DOPE  H18S 6918   5.782   0.496   6.419  0.2526  0.0171 -0.0376
   54DOPE  H18T 6919   5.942   0.521   6.497  0.9026 -0.6936 -1.0069
   54DOPE   C33 6920   5.519   0.154   5.270  0.4002  0.0929 -0.7693
   54DOPE   H3X 6921   5.627   0.175   5.286  0.4445  0.4998 -1.5448
   54DOPE   H3Y 6922   5.519   0.043   5.267  0.7102 -0.0193  1.6175
   54DOPE   C34 6923   5.437   0.203   5.392 -0.7546 -0.6577  0.8121
   54DOPE   H4X 6924   5.447   0.314   5.385 -0.3745 -0.7735 -1.6755
   54DOPE   H4Y 6925   5.334   0.173   5.364  0.1367 -1.0172 -2.5079
   54DOPE   C35 6926   5.478   0.139   5.524  0.5037 -0.2233 -0.5846
   54DOPE   H5X 6927   5.587   0.137   5.545  0.5572  2.6394 -0.0863
   54DOPE   H5Y 6928   5.433   0.038   5.527  1.3178 -0.5603  1.1826
   54DOPE   C36 6929   5.414   0.221   5.634 -0.4968 -0.3505 -0.2114
   54DOPE   H6X 6930   5.317   0.267   5.602 -1.3796 -0.9120  1.5113
   54DOPE   H6Y 6931   5.485   0.300   5.667 -0.1233 -1.2912  1.3107
   54DOPE   C37 6932   5.369   0.127   5.753 -0.1088 -0.0071 -0.7202
   54DOPE   H7X 6933   5.278   0.071   5.722 -0.8217  0.8576 -0.2676
   54DOPE   H7Y 6934   5.443   0.056   5.795  1.8270  2.0612 -0.4161
   54DOPE   C38 6935   5.323   0.207   5.878 -0.1222 -0.1187 -0.4764
   54DOPE   H8X 6936   5.307   0.132   5.958 -0.4472  2.8588  2.4542
   54DOPE   H8Y 6937   5.224   0.253   5.861 -0.2362 -0.0219  0.4079
   54DOPE   C39 6938   5.427   0.303   5.921 -0.1010  0.7324 -0.1170
   54DOPE   H9X 6939   5.438   0.401   5.873  1.7385  0.3574 -0.5393
   54DOPE  C310 6940   5.515   0.279   6.029 -0.5785 -0.5089  0.2761
   54DOPE  H10X 6941   5.577   0.366   6.056  1.5136 -1.5774 -0.8764
   54DOPE  C311 6942   5.524   0.161   6.123  0.0784  0.1822  1.1438
   54DOPE  H11X 6943   5.462   0.076   6.087  1.1020  0.8921 -2.6843
   54DOPE  H11Y 6944   5.631   0.134   6.137 -0.0064 -1.4858 -0.9033
   54DOPE  C312 6945   5.456   0.200   6.258 -0.4467  0.1986 -0.0033
   54DOPE  H12X 6946   5.346   0.216   6.252 -0.8642 -1.4937  1.9731
   54DOPE  H12Y 6947   5.491   0.295   6.303  0.4826 -0.5259  0.8444
   54DOPE  C313 6948   5.473   0.093   6.366  0.4288  0.8901  0.1149
   54DOPE  H13X 6949   5.458  -0.007   6.318  3.9517  0.5001 -0.4191
   54DOPE  H13Y 6950   5.578   0.101   6.403  1.6610  1.3267 -3.1668
   54DOPE  C314 6951   5.378   0.117   6.487 -0.2876 -0.3992 -0.3488
   54DOPE  H14X 6952   5.274   0.110   6.449 -0.5393 -0.2358  0.2968
   54DOPE  H14Y 6953   5.397   0.219   6.527  0.5769 -1.1717  1.3145
   54DOPE  C315 6954   5.403   0.018   6.605 -0.1233 -0.4680  0.5701
   54DOPE  H15X 6955   5.513   0.013   6.623  0.6188 -4.1967 -3.1280
   54DOPE  H15Y 6956   5.384  -0.085   6.565 -2.2182 -0.5480  1.6410
   54DOPE  C316 6957   5.322   0.042   6.732  0.4996 -0.5021  0.2632
   54DOPE  H16X 6958   5.216   0.034   6.701 -0.1422  2.6746  1.3888
   54DOPE  H16Y 6959   5.340   0.141   6.778 -2.3155  0.5462 -0.7209
   54DOPE  C317 6960   5.336  -0.071   6.840 -0.0635  0.4559  0.2191
   54DOPE  H17X 6961   5.301  -0.164   6.789  1.5258  0.1345 -0.3579
   54DOPE  H17Y 6962   5.441  -0.085   6.874 -0.0312 -0.7542 -0.3186
   54DOPE  C318 6963   5.249  -0.051   6.964 -0.6555 -0.2690  0.4475
   54DOPE  H18X 6964   5.292   0.022   7.035  0.9504 -0.1524 -0.5983
   54DOPE  H18Y 6965   5.144  -0.022   6.942  0.6844  3.5660 -1.8442
   54DOPE  H18Z 6966   5.249  -0.150   7.014 -0.6813 -0.7941 -0.5516
   55DOPE     N 6967   1.763   3.327   3.497 -0.8181 -0.3076  0.1102
   55DOPE   HN1 6968   1.769   3.358   3.398 -2.1623  2.7230  0.8619
   55DOPE   HN2 6969   1.794   3.409   3.553 -0.3627  0.7247 -1.5904
   55DOPE   HN3 6970   1.842   3.260   3.502  3.5565  4.1111 -1.6671
   55DOPE   C12 6971   1.633   3.280   3.540  0.3538  0.4051 -0.1995
   55DOPE  H12A 6972   1.607   3.193   3.476  0.7226 -0.1849  0.4422
   55DOPE  H12B 6973   1.556   3.358   3.521  2.7802  3.2110  0.7693
   55DOPE   C11 6974   1.637   3.230   3.681 -0.7264 -0.4029  0.4463
   55DOPE  H11A 6975   1.537   3.195   3.714  0.1988 -0.9980  2.7842
   55DOPE  H11B 6976   1.669   3.304   3.758  4.3769 -2.7492  1.0107
   55DOPE     P 6977   1.701   2.970   3.686  0.0436 -0.2767 -0.2407
   55DOPE   O13 6978   1.806   2.894   3.618  0.0286 -0.2586 -0.4552
   55DOPE   O14 6979   1.567   2.957   3.632  0.1055  0.0483  0.3843
   55DOPE   O11 6980   1.699   2.932   3.841  0.6278 -0.2125  0.4005
   55DOPE   O12 6981   1.739   3.128   3.695 -0.1585 -0.1012  0.2188
   55DOPE    C1 6982   1.584   2.878   3.906 -0.8061 -0.2364 -0.4240
   55DOPE    HA 6983   1.616   2.832   4.002  2.1017  0.4834 -0.9385
   55DOPE    HB 6984   1.544   2.796   3.843  1.7884 -0.8195 -1.4254
   55DOPE    C2 6985   1.484   2.993   3.936  0.4187  0.3949  0.0400
   55DOPE    HS 6986   1.449   3.042   3.842  0.1882  1.1499  0.5060
   55DOPE   O21 6987   1.539   3.095   4.026 -0.1919  0.0073  0.2058
   55DOPE   C21 6988   1.483   3.211   4.029  0.2055  0.4317 -0.0360
   55DOPE   O22 6989   1.381   3.238   3.972  0.4157 -0.5383 -0.6977
   55DOPE   C22 6990   1.582   3.304   4.100  0.0383 -0.0215  0.0238
   55DOPE   H2R 6991   1.587   3.384   4.022  0.9389 -1.1305 -1.1027
   55DOPE   H2S 6992   1.682   3.256   4.109 -0.4595 -1.0922 -0.0442
   55DOPE    C3 6993   1.348   2.942   4.005  0.7013 -0.6070 -0.6403
   55DOPE    HX 6994   1.300   2.874   3.932 -1.0466  0.8040 -0.8634
   55DOPE    HY 6995   1.281   3.028   4.024  0.0788 -1.0020 -1.0152
   55DOPE   O31 6996   1.382   2.867   4.130  0.2439 -0.1291 -0.6006
   55DOPE   C31 6997   1.381   2.729   4.124  0.2967  0.2824 -0.5503
   55DOPE   O32 6998   1.364   2.664   4.028  0.1905  1.0201  0.1237
   55DOPE   C32 6999   1.420   2.681   4.257 -0.1290  0.3471  0.2831
   55DOPE   H2X 7000   1.454   2.575   4.259 -0.5400  0.2089  2.4254
   55DOPE   H2Y 7001   1.496   2.754   4.294 -0.3207  0.2571  0.8482
   55DOPE   C23 7002   1.520   3.362   4.218  0.3507 -0.2482 -0.3930
   55DOPE   H3R 7003   1.412   3.383   4.204  0.4532  0.0789 -0.6990
   55DOPE   H3S 7004   1.576   3.454   4.244  1.8260 -1.6621  1.9115
   55DOPE   C24 7005   1.531   3.275   4.343 -0.2063 -0.3119 -0.5188
   55DOPE   H4R 7006   1.470   3.183   4.333 -0.0011 -0.5969  0.7218
   55DOPE   H4S 7007   1.497   3.334   4.430  3.9424 -0.2538  1.3185
   55DOPE   C25 7008   1.671   3.231   4.373 -0.6604 -0.2864  0.4741
   55DOPE   H5R 7009   1.703   3.161   4.293 -2.6428 -1.6102  0.7918
   55DOPE   H5S 7010   1.690   3.169   4.462 -0.2001 -0.0487  0.5470
   55DOPE   C26 7011   1.769   3.344   4.379  0.5174 -1.1380 -0.6980
   55DOPE   H6R 7012   1.763   3.397   4.282 -0.3788 -1.8923 -1.0767
   55DOPE   H6S 7013   1.873   3.304   4.378  0.0145 -2.4966 -1.0958
   55DOPE   C27 7014   1.760   3.450   4.495  0.2273 -0.1123  0.5202
   55DOPE   H7R 7015   1.659   3.496   4.495  0.1457 -0.2826 -0.1632
   55DOPE   H7S 7016   1.837   3.528   4.483 -1.2692  1.4219  0.4740
   55DOPE   C28 7017   1.779   3.386   4.635  0.3103 -0.7205  0.0291
   55DOPE   H8R 7018   1.883   3.347   4.630  0.3135 -0.9244  1.4065
   55DOPE   H8S 7019   1.716   3.296   4.649  0.2639 -0.8347 -0.8345
   55DOPE   C29 7020   1.763   3.480   4.752 -0.7061 -0.2181 -0.1072
   55DOPE   H9R 7021   1.706   3.570   4.728 -1.8117 -1.1461 -1.0957
   55DOPE  C210 7022   1.820   3.467   4.869  0.4032 -0.0080 -0.1770
   55DOPE  H10R 7023   1.810   3.547   4.943 -0.2669 -0.7105  0.4931
   55DOPE  C211 7024   1.900   3.347   4.913  0.0827  0.2229 -0.2330
   55DOPE  H11R 7025   2.008   3.371   4.923  0.7446 -2.8635  1.2343
   55DOPE  H11S 7026   1.883   3.272   4.833  2.4554 -1.8637  1.0830
   55DOPE  C212 7027   1.854   3.292   5.050 -0.0679 -0.2952 -0.1920
   55DOPE  H12R 7028   1.914   3.199   5.062  1.6854  0.7892 -0.2038
   55DOPE  H12S 7029   1.746   3.264   5.048 -0.3153  0.2066  2.2981
   55DOPE  C213 7030   1.880   3.373   5.176 -0.5271 -0.1914  0.2009
   55DOPE  H13R 7031   1.830   3.471   5.185  1.4642  0.8458  0.6081
   55DOPE  H13S 7032   1.990   3.393   5.179  0.8987 -6.0265  3.6917
   55DOPE  C214 7033   1.843   3.296   5.294  0.1344 -0.1896 -0.1891
   55DOPE  H14R 7034   1.876   3.190   5.304  1.4198  0.3478  1.5846
   55DOPE  H14S 7035   1.732   3.292   5.304  0.2099 -1.0829  0.4280
   55DOPE  C215 7036   1.883   3.371   5.417 -0.1211 -0.6609  0.4349
   55DOPE  H15R 7037   1.863   3.479   5.400  0.9773 -0.6770 -1.1403
   55DOPE  H15S 7038   1.993   3.362   5.427 -0.0257 -0.8630 -0.7123
   55DOPE  C216 7039   1.812   3.318   5.546 -0.1705 -0.4615  0.4118
   55DOPE  H16R 7040   1.815   3.207   5.556  2.5389 -0.4953  0.0509
   55DOPE  H16S 7041   1.704   3.345   5.542  0.0555  0.3555 -1.6038
   55DOPE  C217 7042   1.883   3.382   5.664 -0.0532 -0.4617  0.0203
   55DOPE  H17R 7043   1.867   3.492   5.666 -2.2521 -0.7307  1.6983
   55DOPE  H17S 7044   1.993   3.367   5.663  0.1069  0.6230 -1.4268
   55DOPE  C218 7045   1.824   3.322   5.786  0.3383  0.0002  0.2153
   55DOPE  H18R 7046   1.881   3.365   5.871  1.6568 -0.8275 -0.2302
   55DOPE  H18S 7047   1.823   3.211   5.789  0.3838 -0.0503 -1.1786
   55DOPE  H18T 7048   1.720   3.359   5.802  0.0170  1.0029 -3.3241
   55DOPE   C33 7049   1.299   2.711   4.359  0.1672 -0.4407 -0.3602
   55DOPE   H3X 7050   1.225   2.628   4.364 -0.7134  0.3352 -0.0962
   55DOPE   H3Y 7051   1.243   2.804   4.335  2.0035  0.5131 -1.1905
   55DOPE   C34 7052   1.346   2.703   4.505 -0.1627 -0.0045  0.6671
   55DOPE   H4X 7053   1.378   2.599   4.528  0.5408  0.3509  1.3285
   55DOPE   H4Y 7054   1.427   2.777   4.517 -0.4787  0.6963 -1.2290
   55DOPE   C35 7055   1.231   2.741   4.607  0.1928  0.1975 -0.1152
   55DOPE   H5X 7056   1.147   2.672   4.586  0.1658  0.3912 -0.6623
   55DOPE   H5Y 7057   1.198   2.847   4.595  2.1226  1.1181  1.8682
   55DOPE   C36 7058   1.272   2.738   4.753 -0.1872 -0.5914  0.2015
   55DOPE   H6X 7059   1.342   2.825   4.753 -0.8228 -0.0501 -1.1012
   55DOPE   H6Y 7060   1.317   2.640   4.779  0.0986 -0.3691  0.5641
   55DOPE   C37 7061   1.161   2.775   4.856  0.4997 -0.4605  0.0276
   55DOPE   H7X 7062   1.082   2.839   4.811  1.1672 -0.1676 -0.7251
   55DOPE   H7Y 7063   1.107   2.691   4.905 -0.1715 -0.1550 -0.1743
   55DOPE   C38 7064   1.224   2.847   4.973 -0.4041 -0.1841 -0.1666
   55DOPE   H8X 7065   1.143   2.893   5.033  0.9875  0.7426  1.0661
   55DOPE   H8Y 7066   1.279   2.932   4.927 -1.7370  0.5319 -0.4818
   55DOPE   C39 7067   1.327   2.772   5.053  0.2224 -0.1570  0.2539
   55DOPE   H9X 7068   1.430   2.786   5.016  0.0160 -0.5371 -0.4727
   55DOPE  C310 7069   1.314   2.707   5.173  0.4607 -0.2727  0.1358
   55DOPE  H10X 7070   1.399   2.657   5.222 -0.5825 -1.1386  1.1409
   55DOPE  C311 7071   1.182   2.676   5.255  0.2633  0.1305  0.5320
   55DOPE  H11X 7072   1.091   2.659   5.193  0.6274 -1.5171  0.4072
   55DOPE  H11Y 7073   1.206   2.585   5.313  0.8947  1.8244  3.0737
   55DOPE  C312 7074   1.155   2.780   5.367 -0.9130 -0.2180  0.4184
   55DOPE  H12X 7075   1.057   2.752   5.411 -0.2989 -2.5553  0.4099
   55DOPE  H12Y 7076   1.122   2.878   5.324 -2.5337 -0.7834  0.2863
   55DOPE  C313 7077   1.260   2.801   5.475 -0.3913  0.0048 -0.6284
   55DOPE  H13X 7078   1.352   2.843   5.429 -0.3192  1.0779  0.4463
   55DOPE  H13Y 7079   1.225   2.867   5.558  1.6565  0.0466  0.2861
   55DOPE  C314 7080   1.318   2.671   5.542  0.1967 -0.3281  0.5565
   55DOPE  H14X 7081   1.380   2.615   5.470  0.2684 -2.7345  2.3495
   55DOPE  H14Y 7082   1.232   2.609   5.579  0.5674 -0.5741  1.0208
   55DOPE  C315 7083   1.389   2.706   5.680 -0.3556 -0.4360  0.3392
   55DOPE  H15X 7084   1.457   2.793   5.672  1.0452 -1.4576  0.7705
   55DOPE  H15Y 7085   1.452   2.616   5.698 -0.0269 -0.0533  1.1222
   55DOPE  C316 7086   1.295   2.721   5.799 -0.1446 -0.7136  0.3714
   55DOPE  H16X 7087   1.217   2.642   5.803 -0.9771  0.1003  0.5486
   55DOPE  H16Y 7088   1.238   2.814   5.781 -0.3404 -0.3856  2.4780
   55DOPE  C317 7089   1.356   2.740   5.938  0.2113  0.2832  0.1209
   55DOPE  H17X 7090   1.415   2.648   5.959 -0.8087 -0.5395 -0.4959
   55DOPE  H17Y 7091   1.424   2.828   5.932  2.4287 -1.2685  0.9785
   55DOPE  C318 7092   1.245   2.758   6.039 -0.0407  0.1467 -0.8298
   55DOPE  H18X 7093   1.293   2.766   6.139 -0.4093 -0.6492 -0.5808
   55DOPE  H18Y 7094   1.198   2.857   6.020  1.3531  0.4416 -3.1126
   55DOPE  H18Z 7095   1.166   2.680   6.041 -0.2477  0.3269  1.5615
   56DOPE     N 7096   1.850   4.026   3.327  0.2504 -0.3040  0.8155
   56DOPE   HN1 7097   1.871   4.094   3.403  0.4037  1.6494 -0.9095
   56DOPE   HN2 7098   1.943   3.988   3.302  1.1847  1.0835  2.0269
   56DOPE   HN3 7099   1.806   4.086   3.255  0.8930 -0.9514 -0.1467
   56DOPE   C12 7100   1.763   3.914   3.378 -0.5282  0.0041 -0.4540
   56DOPE  H12A 7101   1.739   3.844   3.295 -4.7482  0.2351  0.3159
   56DOPE  H12B 7102   1.662   3.959   3.391 -0.5059 -0.0360 -0.1466
   56DOPE   C11 7103   1.817   3.839   3.496 -0.4415 -0.2940 -0.0249
   56DOPE  H11A 7104   1.862   3.910   3.568  1.2756 -0.4724 -0.8706
   56DOPE  H11B 7105   1.900   3.783   3.450  2.3155  2.5551  1.0800
   56DOPE     P 7106   1.748   3.651   3.663 -0.4246 -0.0069  0.0322
   56DOPE   O13 7107   1.867   3.573   3.626 -0.9352 -0.2156  0.8102
   56DOPE   O14 7108   1.617   3.582   3.683  0.4458 -0.0988  0.2144
   56DOPE   O11 7109   1.780   3.743   3.785 -0.5309  0.1099 -0.7399
   56DOPE   O12 7110   1.719   3.757   3.554 -0.3671  0.1556 -0.8932
   56DOPE    C1 7111   1.700   3.857   3.819 -0.6003  0.2381 -0.0173
   56DOPE    HA 7112   1.603   3.865   3.766 -0.6972  1.2523  0.2865
   56DOPE    HB 7113   1.754   3.949   3.785  0.3331 -0.4306 -0.3858
   56DOPE    C2 7114   1.686   3.858   3.978  0.3711  0.5182  0.0372
   56DOPE    HS 7115   1.635   3.955   4.001  1.6770  0.7866  2.0402
   56DOPE   O21 7116   1.803   3.843   4.052 -0.3575 -0.3249 -0.3604
   56DOPE   C21 7117   1.886   3.948   4.056  0.7130 -0.0714  0.1650
   56DOPE   O22 7118   1.865   4.052   3.994  0.0101  0.1121  1.0525
   56DOPE   C22 7119   2.006   3.916   4.144 -0.3908  0.1698 -0.5464
   56DOPE   H2R 7120   2.093   3.942   4.079  0.3141  1.5060  0.8850
   56DOPE   H2S 7121   2.000   3.807   4.165 -1.5012  0.3525  0.1454
   56DOPE    C3 7122   1.578   3.747   4.015  0.3232 -0.1990 -0.2834
   56DOPE    HX 7123   1.605   3.658   3.955  2.1915  0.5812 -0.6797
   56DOPE    HY 7124   1.480   3.766   3.966 -0.2453 -2.6558 -0.2031
   56DOPE   O31 7125   1.572   3.718   4.153 -0.0658  0.0305 -0.6367
   56DOPE   C31 7126   1.482   3.772   4.226  0.3615  0.5341  0.3485
   56DOPE   O32 7127   1.400   3.856   4.195 -0.2185  0.1055 -0.5014
   56DOPE   C32 7128   1.499   3.727   4.375 -0.6467 -0.5492  0.4781
   56DOPE   H2X 7129   1.459   3.625   4.394 -0.3736 -0.3916  2.0377
   56DOPE   H2Y 7130   1.608   3.722   4.393 -0.5797 -0.7914  0.0207
   56DOPE   C23 7131   2.010   3.989   4.280 -0.0954 -0.7646  0.2955
   56DOPE   H3R 7132   1.986   4.094   4.254 -0.8400 -1.2948 -1.2879
   56DOPE   H3S 7133   2.111   3.979   4.323 -0.3099 -1.2566  0.6976
   56DOPE   C24 7134   1.918   3.922   4.389 -0.2400 -0.1798  0.0160
   56DOPE   H4R 7135   1.960   3.820   4.405  0.4582  0.2844  1.2268
   56DOPE   H4S 7136   1.815   3.913   4.349  0.6365 -1.2953 -2.2149
   56DOPE   C25 7137   1.922   4.000   4.520 -0.2786 -0.3831  0.4397
   56DOPE   H5R 7138   1.909   4.110   4.515 -1.1380 -0.5297 -2.7228
   56DOPE   H5S 7139   2.023   3.978   4.561 -0.2740 -2.0143 -0.3519
   56DOPE   C26 7140   1.817   3.952   4.625 -0.7541  0.3406 -0.5666
   56DOPE   H6R 7141   1.797   3.843   4.616  2.2614 -0.7778  3.1988
   56DOPE   H6S 7142   1.719   4.003   4.618 -0.3273  0.9008 -3.4513
   56DOPE   C27 7143   1.865   3.973   4.772 -0.1614  0.6946  0.2397
   56DOPE   H7R 7144   1.785   4.011   4.838 -0.6854 -0.0113  0.0247
   56DOPE   H7S 7145   1.940   4.053   4.754  0.6940 -0.1733 -0.1833
   56DOPE   C28 7146   1.941   3.854   4.835 -0.1653  0.2746  0.1243
   56DOPE   H8R 7147   2.008   3.807   4.760  0.5900  1.8242 -0.2008
   56DOPE   H8S 7148   1.859   3.782   4.860 -0.9764  1.5649  1.2939
   56DOPE   C29 7149   2.018   3.904   4.958  0.0070 -0.3400 -0.8829
   56DOPE   H9R 7150   2.084   3.990   4.941 -1.3503  0.7511 -0.7603
   56DOPE  C210 7151   2.017   3.847   5.085 -0.3075 -0.1318 -0.1196
   56DOPE  H10R 7152   2.092   3.882   5.158 -1.1619  0.6736  0.3977
   56DOPE  C211 7153   1.937   3.738   5.138 -0.0817  0.0658  0.4831
   56DOPE  H11R 7154   2.010   3.656   5.150 -0.9219 -0.9164 -0.8150
   56DOPE  H11S 7155   1.852   3.718   5.069 -1.4698  1.8459  1.5678
   56DOPE  C212 7156   1.866   3.762   5.271  0.5794 -0.1321 -0.6327
   56DOPE  H12R 7157   1.808   3.671   5.297 -0.3798  0.7412  0.3593
   56DOPE  H12S 7158   1.802   3.852   5.276  0.2265 -0.4018 -0.2387
   56DOPE  C213 7159   1.975   3.781   5.379  0.7132  0.5701 -0.6004
   56DOPE  H13R 7160   2.038   3.867   5.350  3.0044 -1.1869 -1.0919
   56DOPE  H13S 7161   2.045   3.695   5.373 -0.6153 -0.5503 -0.5237
   56DOPE  C214 7162   1.911   3.800   5.522  0.6450 -0.5100 -0.0136
   56DOPE  H14R 7163   1.836   3.720   5.537 -0.0137  0.6042  3.5684
   56DOPE  H14S 7164   1.852   3.893   5.536  2.4077  0.7674 -0.6631
   56DOPE  C215 7165   2.023   3.789   5.634  0.0324  0.0271 -0.3195
   56DOPE  H15R 7166   2.091   3.875   5.652 -0.2896 -0.1996  2.3103
   56DOPE  H15S 7167   2.094   3.714   5.592  0.4916  0.6269 -0.6268
   56DOPE  C216 7168   1.971   3.741   5.768  0.0172 -0.8100  0.3400
   56DOPE  H16R 7169   2.040   3.675   5.824 -0.3554 -0.3898  1.3026
   56DOPE  H16S 7170   1.866   3.703   5.760  0.5642 -2.1900 -0.9165
   56DOPE  C217 7171   1.969   3.853   5.875 -0.1988 -0.1744 -0.3907
   56DOPE  H17R 7172   1.897   3.931   5.841 -1.0309  0.1823  1.9669
   56DOPE  H17S 7173   2.069   3.900   5.866  0.0903 -1.0033 -1.8826
   56DOPE  C218 7174   1.924   3.814   6.015  0.8653 -0.2095  0.1438
   56DOPE  H18R 7175   2.002   3.787   6.089 -0.6307  1.0819  2.3103
   56DOPE  H18S 7176   1.869   3.718   6.003 -0.8638  1.0518 -3.5022
   56DOPE  H18T 7177   1.858   3.887   6.067  0.2629 -1.2798  0.9181
   56DOPE   C33 7178   1.441   3.833   4.468 -0.1944 -0.1402 -0.6287
   56DOPE   H3X 7179   1.340   3.867   4.436 -0.5081 -0.1568  0.3137
   56DOPE   H3Y 7180   1.512   3.918   4.477  0.3233 -0.5085 -1.1651
   56DOPE   C34 7181   1.412   3.778   4.611 -0.0447  0.2215  0.1967
   56DOPE   H4X 7182   1.357   3.681   4.615  0.8729 -0.3110  0.1039
   56DOPE   H4Y 7183   1.515   3.749   4.639 -0.1281  0.7350  1.0752
   56DOPE   C35 7184   1.363   3.883   4.716  0.4923  0.0890  0.2962
   56DOPE   H5X 7185   1.259   3.856   4.744  1.3810 -1.3950  2.4228
   56DOPE   H5Y 7186   1.363   3.990   4.687 -0.1690 -0.2893 -1.2007
   56DOPE   C36 7187   1.443   3.879   4.846  0.4032 -0.5186  0.3089
   56DOPE   H6X 7188   1.425   3.970   4.907  0.2178  1.6239 -2.7233
   56DOPE   H6Y 7189   1.547   3.898   4.813 -0.0504 -0.6374 -1.2669
   56DOPE   C37 7190   1.450   3.751   4.929 -0.2889  0.7768  0.5762
   56DOPE   H7X 7191   1.348   3.741   4.972 -0.2149  0.2211  0.6247
   56DOPE   H7Y 7192   1.474   3.661   4.868  1.4097  1.8143 -0.3688
   56DOPE   C38 7193   1.542   3.756   5.045  0.4348 -0.1964  0.0937
   56DOPE   H8X 7194   1.528   3.849   5.105  0.1568  1.2888 -2.1737
   56DOPE   H8Y 7195   1.648   3.771   5.014 -0.3374  0.3629 -2.5007
   56DOPE   C39 7196   1.515   3.624   5.120 -0.2305  0.1472  0.2021
   56DOPE   H9X 7197   1.531   3.529   5.068  1.4760 -0.4974  1.7960
   56DOPE  C310 7198   1.456   3.617   5.244 -0.2583 -0.3148  0.5939
   56DOPE  H10X 7199   1.452   3.520   5.296  0.1656 -0.1522  0.9419
   56DOPE  C311 7200   1.393   3.724   5.330 -0.3025  0.1217  0.5115
   56DOPE  H11X 7201   1.369   3.806   5.259  0.9352 -0.5585 -0.7615
   56DOPE  H11Y 7202   1.305   3.687   5.386  1.1740 -2.5320  1.2808
   56DOPE  C312 7203   1.494   3.760   5.434  0.1660  0.5319 -0.7558
   56DOPE  H12X 7204   1.458   3.858   5.471  1.1738 -0.1281  2.2943
   56DOPE  H12Y 7205   1.597   3.759   5.390 -0.3160  0.3827 -1.9201
   56DOPE  C313 7206   1.484   3.660   5.555  1.0875 -0.9903  0.1986
   56DOPE  H13X 7207   1.377   3.656   5.583  0.1269  1.9226 -2.4818
   56DOPE  H13Y 7208   1.520   3.556   5.539 -0.1315 -1.2528 -0.9558
   56DOPE  C314 7209   1.544   3.714   5.692  0.2329  0.0390  0.1364
   56DOPE  H14X 7210   1.483   3.800   5.729 -1.3193 -0.9824  0.0738
   56DOPE  H14Y 7211   1.648   3.751   5.685 -0.4068  2.1227  0.7764
   56DOPE  C315 7212   1.541   3.597   5.789 -0.2644  0.4506 -0.0022
   56DOPE  H15X 7213   1.619   3.524   5.758  0.4184  1.8901 -1.8676
   56DOPE  H15Y 7214   1.440   3.555   5.771 -0.2892  0.9655 -1.2130
   56DOPE  C316 7215   1.555   3.637   5.935 -0.2724 -0.4238  0.0189
   56DOPE  H16X 7216   1.473   3.710   5.952  0.5510  0.1260  1.8540
   56DOPE  H16Y 7217   1.650   3.693   5.941  0.0931 -0.9680 -0.4964
   56DOPE  C317 7218   1.550   3.526   6.030 -0.3323  0.1463 -0.3437
   56DOPE  H17X 7219   1.446   3.485   6.035 -0.5656  0.7881  0.1530
   56DOPE  H17Y 7220   1.630   3.456   5.999  0.4998  0.8843  0.1078
   56DOPE  C318 7221   1.585   3.567   6.170 -0.7920 -0.2667  0.2505
   56DOPE  H18X 7222   1.593   3.480   6.239  3.6804 -0.1719  0.1180
   56DOPE  H18Y 7223   1.690   3.601   6.170 -1.0635  0.6069  1.2488
   56DOPE  H18Z 7224   1.520   3.648   6.209  0.3591  0.7684  0.0819
   57DOPE     N 7225   5.053   3.931   4.118  0.5303 -0.1312  0.2798
   57DOPE   HN1 7226   4.962   3.910   4.072  0.2109 -0.5403  1.0733
   57DOPE   HN2 7227   5.061   4.034   4.112  1.5700 -0.2686 -1.0024
   57DOPE   HN3 7228   5.134   3.888   4.069  0.2721 -0.6992  0.3381
   57DOPE   C12 7229   5.050   3.859   4.255  0.4052 -0.1599 -0.8745
   57DOPE  H12A 7230   5.134   3.787   4.265 -1.5792 -2.6625 -1.3011
   57DOPE  H12B 7231   4.964   3.792   4.277  1.9005 -1.0726  3.1937
   57DOPE   C11 7232   5.070   3.966   4.365  0.0881  0.2713 -0.0652
   57DOPE  H11A 7233   5.056   3.909   4.459  0.8231  1.3501  0.7293
   57DOPE  H11B 7234   4.990   4.044   4.362 -0.0363  0.1226 -2.6768
   57DOPE     P 7235   5.259   4.144   4.286  0.0819 -0.3378  0.2812
   57DOPE   O13 7236   5.180   4.155   4.161  0.0122 -0.2562  0.4124
   57DOPE   O14 7237   5.408   4.122   4.265  0.3657 -0.6225  0.2397
   57DOPE   O11 7238   5.215   4.271   4.371 -0.1228 -0.1369 -0.2207
   57DOPE   O12 7239   5.197   4.019   4.364 -0.1678 -0.0734 -0.2510
   57DOPE    C1 7240   5.217   4.277   4.517 -0.2033 -0.2391 -1.0999
   57DOPE    HA 7241   5.244   4.376   4.558 -0.3667 -0.6360  0.0194
   57DOPE    HB 7242   5.304   4.215   4.548  0.9330  0.8525 -2.0292
   57DOPE    C2 7243   5.090   4.236   4.584  0.1992 -0.4541  0.1895
   57DOPE    HS 7244   5.061   4.133   4.557  0.4808 -0.5553  0.2745
   57DOPE   O21 7245   4.993   4.328   4.554  0.2279 -0.5337  0.0135
   57DOPE   C21 7246   4.862   4.300   4.569  0.9681 -0.4107  0.1417
   57DOPE   O22 7247   4.811   4.194   4.588 -0.0866 -0.2901  0.0938
   57DOPE   C22 7248   4.786   4.429   4.549  0.3253  0.2604  0.0593
   57DOPE   H2R 7249   4.681   4.397   4.565 -0.1401  1.9898  0.6469
   57DOPE   H2S 7250   4.785   4.460   4.442  1.9783  0.4931  0.0871
   57DOPE    C3 7251   5.105   4.230   4.736 -0.9241  0.1496 -0.1532
   57DOPE    HX 7252   5.004   4.212   4.778 -1.8748  0.3242 -2.2449
   57DOPE    HY 7253   5.143   4.330   4.766  2.2103 -0.6193 -1.2071
   57DOPE   O31 7254   5.195   4.122   4.771  0.1526 -0.0716 -0.4142
   57DOPE   C31 7255   5.247   4.141   4.895 -1.0870  0.3445 -0.6297
   57DOPE   O32 7256   5.211   4.225   4.978  0.6279  0.2998 -0.3730
   57DOPE   C32 7257   5.370   4.048   4.910 -0.8358 -1.2044  0.0836
   57DOPE   H2X 7258   5.348   3.957   4.849 -0.2697 -1.1301 -0.2368
   57DOPE   H2Y 7259   5.460   4.099   4.869 -1.5462 -0.0103 -0.0324
   57DOPE   C23 7260   4.843   4.545   4.634  0.1371 -0.7261 -0.3592
   57DOPE   H3R 7261   4.773   4.630   4.615  2.1545  1.2980  0.8388
   57DOPE   H3S 7262   4.941   4.576   4.593  0.9978 -1.7314  0.8949
   57DOPE   C24 7263   4.851   4.511   4.781 -0.2353  0.3162 -0.6139
   57DOPE   H4R 7264   4.876   4.602   4.840 -2.1551  0.3062  0.2877
   57DOPE   H4S 7265   4.944   4.451   4.791 -1.4692 -1.3793  1.6153
   57DOPE   C25 7266   4.738   4.439   4.855  0.5719  0.0229  1.1759
   57DOPE   H5R 7267   4.741   4.331   4.825  0.1276  0.3955 -0.3022
   57DOPE   H5S 7268   4.644   4.482   4.816  2.0872  1.9426 -0.5611
   57DOPE   C26 7269   4.737   4.450   5.010  0.6096  0.1718  0.1602
   57DOPE   H6R 7270   4.720   4.557   5.036  0.7399  0.1256  0.4371
   57DOPE   H6S 7271   4.839   4.422   5.046 -0.0107 -0.5084  1.4712
   57DOPE   C27 7272   4.626   4.357   5.070 -0.1083 -0.7939  0.0850
   57DOPE   H7R 7273   4.535   4.382   5.012  0.4223  0.0366 -0.4099
   57DOPE   H7S 7274   4.598   4.390   5.172 -0.2362  1.0194 -0.5130
   57DOPE   C28 7275   4.649   4.204   5.078  0.8822  0.3123 -0.2091
   57DOPE   H8R 7276   4.643   4.156   4.978 -0.2261 -0.5667  0.2441
   57DOPE   H8S 7277   4.557   4.169   5.130  1.4444 -1.0857 -0.1019
   57DOPE   C29 7278   4.769   4.166   5.158 -0.1782  0.1706 -0.4712
   57DOPE   H9R 7279   4.853   4.133   5.096  0.7459 -1.5955  1.5830
   57DOPE  C210 7280   4.781   4.170   5.287 -0.5791  0.5725 -0.8520
   57DOPE  H10R 7281   4.870   4.130   5.338 -1.2204  2.2551  1.7866
   57DOPE  C211 7282   4.676   4.205   5.382 -0.5452  0.3935  0.0326
   57DOPE  H11R 7283   4.585   4.253   5.339 -1.3903 -1.2899 -0.1753
   57DOPE  H11S 7284   4.709   4.288   5.448  0.1398 -0.7905  1.2388
   57DOPE  C212 7285   4.622   4.098   5.473  0.4551  0.5496 -0.0047
   57DOPE  H12R 7286   4.710   4.060   5.530 -0.4398  0.6847  1.5117
   57DOPE  H12S 7287   4.566   4.024   5.412 -0.4324 -0.6684  2.1846
   57DOPE  C213 7288   4.512   4.156   5.570  0.0665 -0.2206  0.1007
   57DOPE  H13R 7289   4.451   4.069   5.602  0.0277 -0.6436 -1.0860
   57DOPE  H13S 7290   4.448   4.232   5.519  0.5397  1.7582  2.2482
   57DOPE  C214 7291   4.562   4.225   5.704  0.1036 -0.7980  0.3521
   57DOPE  H14R 7292   4.603   4.323   5.670 -0.4532 -2.0135 -4.5663
   57DOPE  H14S 7293   4.656   4.174   5.736 -0.3599 -2.9038 -1.4000
   57DOPE  C215 7294   4.459   4.239   5.819  0.0531  0.1724  0.3275
   57DOPE  H15R 7295   4.421   4.135   5.829  0.5500 -0.0200  0.2315
   57DOPE  H15S 7296   4.370   4.299   5.791 -1.0823 -1.4941  0.2499
   57DOPE  C216 7297   4.509   4.281   5.959  0.2875 -0.6112 -0.0373
   57DOPE  H16R 7298   4.533   4.390   5.962 -0.5939 -0.3667 -1.1310
   57DOPE  H16S 7299   4.605   4.231   5.983  0.5993 -0.3189 -0.6673
   57DOPE  C217 7300   4.411   4.256   6.069 -0.1977  0.3951 -0.0255
   57DOPE  H17R 7301   4.402   4.146   6.071  0.6646  0.3019 -0.6147
   57DOPE  H17S 7302   4.316   4.304   6.037  0.4903  1.4881 -0.5008
   57DOPE  C218 7303   4.445   4.319   6.200 -0.1930 -0.5464 -0.4726
   57DOPE  H18R 7304   4.357   4.287   6.260 -0.0260 -0.8155 -0.3652
   57DOPE  H18S 7305   4.454   4.429   6.196  0.8950 -0.5455  1.2750
   57DOPE  H18T 7306   4.538   4.270   6.236 -1.2219 -1.2737  1.2946
   57DOPE   C33 7307   5.411   3.999   5.049  0.0899 -0.7344  0.0664
   57DOPE   H3X 7308   5.503   3.938   5.035  1.3212  1.1739 -0.5945
   57DOPE   H3Y 7309   5.320   3.950   5.089 -0.6884  0.5607 -0.0476
   57DOPE   C34 7310   5.454   4.105   5.148 -0.6813 -0.5361 -0.3167
   57DOPE   H4X 7311   5.560   4.131   5.129 -0.6656 -0.7700 -0.5484
   57DOPE   H4Y 7312   5.392   4.196   5.133 -1.1269 -0.2216  2.7673
   57DOPE   C35 7313   5.432   4.066   5.296  0.6006  0.4305 -0.1698
   57DOPE   H5X 7314   5.508   4.119   5.358  0.1780  1.3440 -0.4155
   57DOPE   H5Y 7315   5.459   3.961   5.319  2.0412  0.8581  0.2140
   57DOPE   C36 7316   5.291   4.098   5.347  0.7868  0.2552  0.0766
   57DOPE   H6X 7317   5.224   4.037   5.283  0.5159  1.4584 -0.8271
   57DOPE   H6Y 7318   5.266   4.203   5.323 -1.2018  0.2024  1.6559
   57DOPE   C37 7319   5.256   4.068   5.495 -0.1487 -0.1827  0.3161
   57DOPE   H7X 7320   5.286   3.961   5.500  0.7638  0.0631  0.2555
   57DOPE   H7Y 7321   5.316   4.134   5.561 -0.8974  0.7873  0.0568
   57DOPE   C38 7322   5.114   4.084   5.542 -0.1419 -0.1734 -0.0928
   57DOPE   H8X 7323   5.103   4.054   5.648 -1.2612  1.6733  0.3529
   57DOPE   H8Y 7324   5.058   4.008   5.484 -0.2307 -0.6007  0.5510
   57DOPE   C39 7325   5.056   4.224   5.531  0.6117 -0.1230  0.0830
   57DOPE   H9X 7326   5.080   4.284   5.442  1.4910 -0.0834  0.3385
   57DOPE  C310 7327   5.005   4.298   5.629  0.1029 -0.4430  0.5926
   57DOPE  H10X 7328   4.982   4.399   5.590 -0.9186 -0.6613  0.6044
   57DOPE  C311 7329   4.978   4.264   5.771 -0.4865 -1.0054 -0.1754
   57DOPE  H11X 7330   4.872   4.232   5.781 -0.7233  0.0870  1.2409
   57DOPE  H11Y 7331   5.039   4.181   5.811 -1.2089 -0.9303  1.1421
   57DOPE  C312 7332   4.987   4.381   5.876 -0.3760  0.1710 -0.3697
   57DOPE  H12X 7333   4.924   4.466   5.843 -0.3306  0.8404  1.1812
   57DOPE  H12Y 7334   5.090   4.421   5.892  0.1508 -1.3137  0.1220
   57DOPE  C313 7335   4.936   4.349   6.015 -0.1013 -0.0078 -0.4264
   57DOPE  H13X 7336   4.942   4.439   6.080  2.3045 -1.0448  0.9104
   57DOPE  H13Y 7337   4.832   4.310   6.009  0.7983 -2.2908 -2.6869
   57DOPE  C314 7338   5.035   4.258   6.091  0.8124  0.0287  0.0334
   57DOPE  H14X 7339   5.138   4.299   6.099 -0.2416  3.3796 -1.7102
   57DOPE  H14Y 7340   5.049   4.161   6.038 -1.9101 -0.4858  0.1088
   57DOPE  C315 7341   4.978   4.213   6.228 -0.2701 -0.3465 -0.0419
   57DOPE  H15X 7342   5.042   4.130   6.266 -1.2545 -1.6334 -1.1018
   57DOPE  H15Y 7343   4.874   4.177   6.213 -0.1225 -0.2321 -1.4526
   57DOPE  C316 7344   4.976   4.310   6.345 -0.0798 -0.2124 -0.1884
   57DOPE  H16X 7345   4.919   4.402   6.322  1.3671  0.9558  0.7453
   57DOPE  H16Y 7346   5.080   4.340   6.372  0.4845  1.1994 -3.4489
   57DOPE  C317 7347   4.897   4.252   6.466 -0.1413 -0.4667  0.1309
   57DOPE  H17X 7348   4.967   4.180   6.513  0.1179 -1.5259 -1.7725
   57DOPE  H17Y 7349   4.877   4.327   6.545 -2.1283 -0.9062  0.0948
   57DOPE  C318 7350   4.760   4.189   6.454 -0.4027  0.2150 -0.2758
   57DOPE  H18X 7351   4.725   4.162   6.556  1.1091 -5.5804 -0.8914
   57DOPE  H18Y 7352   4.700   4.267   6.403 -0.4445  1.4582  1.5545
   57DOPE  H18Z 7353   4.757   4.088   6.407 -0.8089 -1.0044  2.1540
   58DOPE     N 7354   6.074   2.291   3.873 -0.0271 -0.1017  0.1075
   58DOPE   HN1 7355   6.072   2.330   3.777 -2.7570  0.8939  0.4745
   58DOPE   HN2 7356   6.058   2.367   3.943  3.7640  0.7448  0.2881
   58DOPE   HN3 7357   6.170   2.252   3.887 -0.2576 -0.2256  1.5144
   58DOPE   C12 7358   5.965   2.189   3.885  0.0381  0.0203 -1.7504
   58DOPE  H12A 7359   5.958   2.159   3.991 -0.2820 -2.4658 -2.4144
   58DOPE  H12B 7360   5.990   2.101   3.822 -0.6366 -1.5764  0.1145
   58DOPE   C11 7361   5.824   2.242   3.851  0.0531 -0.5320  0.4407
   58DOPE  H11A 7362   5.749   2.160   3.852 -0.5608 -0.0405 -1.3491
   58DOPE  H11B 7363   5.820   2.280   3.747 -0.6316 -2.0440 -0.1190
   58DOPE     P 7364   5.663   2.427   3.938  0.4053 -0.0630 -0.1825
   58DOPE   O13 7365   5.554   2.362   3.860 -0.1381  0.0704 -0.7470
   58DOPE   O14 7366   5.686   2.565   3.902 -0.4159  0.2770  0.0357
   58DOPE   O11 7367   5.608   2.425   4.089  0.0358  0.2500 -0.1026
   58DOPE   O12 7368   5.795   2.349   3.943 -0.2414  0.0951 -0.9383
   58DOPE    C1 7369   5.618   2.303   4.167  0.2283 -0.7988 -0.1206
   58DOPE    HA 7370   5.704   2.239   4.135  0.8816 -1.5298  2.7894
   58DOPE    HB 7371   5.523   2.246   4.157 -0.0769 -0.3852  0.3958
   58DOPE    C2 7372   5.657   2.333   4.315 -0.7190 -1.3675 -0.3803
   58DOPE    HS 7373   5.678   2.242   4.375 -1.9670 -0.1469  2.0387
   58DOPE   O21 7374   5.557   2.408   4.388  0.0066  0.3194  0.1625
   58DOPE   C21 7375   5.448   2.339   4.414 -0.4425 -0.1831 -0.4242
   58DOPE   O22 7376   5.420   2.221   4.387  0.2473  0.0972  0.6142
   58DOPE   C22 7377   5.375   2.413   4.523  0.0140  0.2230 -0.3811
   58DOPE   H2R 7378   5.309   2.490   4.477 -0.4119  0.2477  0.2615
   58DOPE   H2S 7379   5.454   2.470   4.577  1.4118 -2.7496  0.9398
   58DOPE    C3 7380   5.789   2.421   4.320  0.1950 -0.0583  0.1265
   58DOPE    HX 7381   5.761   2.527   4.299  1.3018  0.3202  0.4843
   58DOPE    HY 7382   5.854   2.392   4.234 -0.9869  1.7853 -1.4768
   58DOPE   O31 7383   5.858   2.405   4.446  0.2891  0.4132 -0.7786
   58DOPE   C31 7384   5.986   2.452   4.461  0.0780 -0.2399 -0.0158
   58DOPE   O32 7385   6.048   2.501   4.371 -0.0566 -0.0693  0.4175
   58DOPE   C32 7386   6.028   2.436   4.605  0.3105 -0.1519  0.3499
   58DOPE   H2X 7387   5.932   2.440   4.661 -0.9973  0.1596 -1.8345
   58DOPE   H2Y 7388   6.063   2.330   4.613 -0.2559 -0.3198  0.6295
   58DOPE   C23 7389   5.288   2.319   4.616 -0.3103 -0.1512  0.3967
   58DOPE   H3R 7390   5.353   2.260   4.683 -0.3012  2.8151  3.2192
   58DOPE   H3S 7391   5.224   2.246   4.561 -0.6556 -0.8038  1.6453
   58DOPE   C24 7392   5.200   2.397   4.708  0.2242  0.0266 -0.0930
   58DOPE   H4R 7393   5.102   2.417   4.660 -0.4112  0.2800  1.2646
   58DOPE   H4S 7394   5.249   2.492   4.738 -0.3199  0.2461  0.1187
   58DOPE   C25 7395   5.186   2.307   4.836 -0.3393  0.4331  0.2096
   58DOPE   H5R 7396   5.287   2.287   4.880  0.3414  2.1450 -0.5065
   58DOPE   H5S 7397   5.129   2.212   4.826 -0.5923  0.7363 -1.5230
   58DOPE   C26 7398   5.105   2.373   4.944  0.0989  0.1067  0.0516
   58DOPE   H6R 7399   4.999   2.388   4.915 -0.3746 -1.8860  0.5915
   58DOPE   H6S 7400   5.143   2.475   4.965 -0.4032  0.4199 -0.5190
   58DOPE   C27 7401   5.114   2.306   5.083 -0.2971  0.3424 -0.4298
   58DOPE   H7R 7402   5.206   2.340   5.137 -1.2779  0.8360  0.9776
   58DOPE   H7S 7403   5.113   2.195   5.075  2.3003  0.3696 -3.6319
   58DOPE   C28 7404   5.000   2.349   5.174  0.5762 -0.0084 -0.6033
   58DOPE   H8R 7405   5.003   2.460   5.173  0.1398  0.0006 -1.2679
   58DOPE   H8S 7406   5.032   2.331   5.279 -0.7442 -2.5530 -0.5571
   58DOPE   C29 7407   4.860   2.289   5.160  0.6341 -0.0009  0.4506
   58DOPE   H9R 7408   4.824   2.278   5.057  1.1776  0.2470  0.2303
   58DOPE  C210 7409   4.778   2.235   5.254  0.3928  0.0634 -0.4281
   58DOPE  H10R 7410   4.684   2.188   5.221 -0.3588  2.1588 -1.4234
   58DOPE  C211 7411   4.808   2.246   5.406  0.3960 -0.3741  0.3851
   58DOPE  H11R 7412   4.718   2.275   5.464 -0.4826 -1.1039 -0.5765
   58DOPE  H11S 7413   4.872   2.336   5.421 -0.8679  1.1070 -2.3153
   58DOPE  C212 7414   4.881   2.128   5.470  0.2730 -0.7748 -0.4182
   58DOPE  H12R 7415   4.860   2.039   5.406 -0.2119  1.0357 -2.9436
   58DOPE  H12S 7416   4.837   2.119   5.572  0.7783  0.4652 -0.0728
   58DOPE  C213 7417   5.028   2.150   5.496  0.2344 -0.1692 -0.5641
   58DOPE  H13R 7418   5.044   2.255   5.529 -1.3406 -0.3197  0.8108
   58DOPE  H13S 7419   5.077   2.132   5.398  1.8162  0.3267  0.1061
   58DOPE  C214 7420   5.089   2.056   5.601 -0.1512  0.2370 -0.0728
   58DOPE  H14R 7421   5.176   2.009   5.552 -0.3948 -0.5466  0.2206
   58DOPE  H14S 7422   5.015   1.980   5.634  1.9188 -1.7821  0.1447
   58DOPE  C215 7423   5.138   2.126   5.733  0.2293  0.3776 -0.2280
   58DOPE  H15R 7424   5.065   2.205   5.760  1.5065  1.4747  0.1609
   58DOPE  H15S 7425   5.237   2.170   5.707  0.9261 -1.1313 -0.2370
   58DOPE  C216 7426   5.159   2.015   5.839  0.4220 -0.1176  0.2191
   58DOPE  H16R 7427   5.225   1.937   5.795  0.2168 -0.6482  0.8478
   58DOPE  H16S 7428   5.061   1.971   5.868  0.3100  0.3104  0.4937
   58DOPE  C217 7429   5.219   2.075   5.964  0.4408  0.2050 -0.7316
   58DOPE  H17R 7430   5.304   2.134   5.924 -1.9028  3.1992 -1.7013
   58DOPE  H17S 7431   5.254   1.996   6.034  0.5940  0.3683 -0.6232
   58DOPE  C218 7432   5.139   2.180   6.041 -0.1802 -0.1565  0.1517
   58DOPE  H18R 7433   5.199   2.224   6.124  0.8320 -0.0902 -0.5944
   58DOPE  H18S 7434   5.042   2.142   6.079  0.1495 -4.1931 -2.4327
   58DOPE  H18T 7435   5.104   2.262   5.974  0.5881 -1.5757 -2.0860
   58DOPE   C33 7436   6.140   2.534   4.652  0.5168  0.4912 -0.3147
   58DOPE   H3X 7437   6.120   2.641   4.630  1.0830  0.2148 -2.4871
   58DOPE   H3Y 7438   6.224   2.511   4.583 -0.3105  0.6969 -1.4182
   58DOPE   C34 7439   6.187   2.505   4.794 -0.8567 -0.7120  1.0890
   58DOPE   H4X 7440   6.235   2.405   4.790 -0.5842 -0.6366  2.1532
   58DOPE   H4Y 7441   6.274   2.570   4.815 -0.7827 -0.9715  1.6112
   58DOPE   C35 7442   6.082   2.523   4.897  0.6229 -0.1699 -0.1838
   58DOPE   H5X 7443   5.991   2.465   4.871  1.1760 -0.1323 -2.3467
   58DOPE   H5Y 7444   6.047   2.629   4.894  2.8852  0.6237 -1.0553
   58DOPE   C36 7445   6.123   2.474   5.035 -0.6007  0.1335  0.4106
   58DOPE   H6X 7446   6.226   2.510   5.057  0.1405 -0.8979 -1.1253
   58DOPE   H6Y 7447   6.138   2.363   5.033 -0.2886  0.1809 -0.3828
   58DOPE   C37 7448   6.039   2.523   5.157  0.1521  0.1905  0.5954
   58DOPE   H7X 7449   6.036   2.634   5.155 -0.6824  0.1671  0.2510
   58DOPE   H7Y 7450   5.937   2.483   5.139  0.7784 -1.9341  1.3866
   58DOPE   C38 7451   6.086   2.469   5.291  0.0905  0.1672  0.2566
   58DOPE   H8X 7452   6.124   2.364   5.281 -0.2478  0.0962 -0.3066
   58DOPE   H8Y 7453   5.997   2.482   5.356 -1.9717 -0.5109 -2.2585
   58DOPE   C39 7454   6.201   2.549   5.343  0.6597 -0.7834 -0.0558
   58DOPE   H9X 7455   6.264   2.589   5.262  1.0261 -0.6644  0.2805
   58DOPE  C310 7456   6.221   2.603   5.466 -0.3465 -0.1693 -0.0780
   58DOPE  H10X 7457   6.317   2.654   5.484 -1.0108  0.2622  2.5768
   58DOPE  C311 7458   6.139   2.577   5.592 -0.4092 -0.4719 -0.0847
   58DOPE  H11X 7459   6.084   2.670   5.620  0.3958  0.5339 -1.7089
   58DOPE  H11Y 7460   6.058   2.502   5.581  0.4971 -1.4786  0.0106
   58DOPE  C312 7461   6.219   2.528   5.715  0.6928 -0.6092 -0.2270
   58DOPE  H12X 7462   6.308   2.594   5.718  1.3391 -1.4284 -0.7630
   58DOPE  H12Y 7463   6.248   2.421   5.712  0.0351 -0.7915 -0.2844
   58DOPE  C313 7464   6.156   2.549   5.850  0.2253  0.0459 -0.1178
   58DOPE  H13X 7465   6.157   2.659   5.868 -2.8090  0.6456 -2.5142
   58DOPE  H13Y 7466   6.049   2.518   5.851  0.9505 -2.8380  2.6981
   58DOPE  C314 7467   6.224   2.466   5.967 -0.4323  0.0709 -0.8241
   58DOPE  H14X 7468   6.325   2.511   5.978 -0.7671  0.7817 -0.5357
   58DOPE  H14Y 7469   6.214   2.365   5.922 -0.2441 -0.5359  0.4616
   58DOPE  C315 7470   6.158   2.477   6.109  0.1902  0.2232  0.0589
   58DOPE  H15X 7471   6.054   2.439   6.105  0.5266 -0.6549 -1.3875
   58DOPE  H15Y 7472   6.157   2.585   6.134  0.9016 -0.0002  1.1301
   58DOPE  C316 7473   6.235   2.404   6.220  0.0665  0.2878  0.9370
   58DOPE  H16X 7474   6.345   2.415   6.206  0.5164 -0.1543  3.5206
   58DOPE  H16Y 7475   6.221   2.294   6.215  1.3314  0.0410  2.1700
   58DOPE  C317 7476   6.200   2.452   6.360  0.1500 -0.3506  0.0251
   58DOPE  H17X 7477   6.255   2.375   6.418  1.1219  0.8373  0.7019
   58DOPE  H17Y 7478   6.248   2.552   6.366  2.3339 -1.1532 -2.4178
   58DOPE  C318 7479   6.050   2.455   6.395  0.0557 -0.8963  0.6138
   58DOPE  H18X 7480   5.988   2.533   6.347 -0.2143 -0.9390  0.8868
   58DOPE  H18Y 7481   6.010   2.356   6.364 -0.2717  0.6642 -5.1314
   58DOPE  H18Z 7482   6.052   2.472   6.505 -2.9466 -0.4503  0.6820
   59DOPE     N 7483   5.063   4.472   4.255 -0.2719  0.1355  0.0322
   59DOPE   HN1 7484   4.971   4.440   4.290 -0.5640  0.0397 -0.7937
   59DOPE   HN2 7485   5.060   4.465   4.151 -0.8718  1.0521 -0.0261
   59DOPE   HN3 7486   5.139   4.411   4.292  1.2153  1.7550 -0.2343
   59DOPE   C12 7487   5.098   4.609   4.300  0.4902 -0.1713  0.4051
   59DOPE  H12A 7488   5.083   4.612   4.410 -2.7913 -4.0459  0.2796
   59DOPE  H12B 7489   5.026   4.680   4.254  3.0250  0.6075 -2.6498
   59DOPE   C11 7490   5.242   4.653   4.264  0.3620  0.7072  0.5896
   59DOPE  H11A 7491   5.246   4.764   4.262 -1.4455  0.8390 -2.5468
   59DOPE  H11B 7492   5.247   4.619   4.158  1.7278 -2.9305  1.6936
   59DOPE     P 7493   5.403   4.646   4.474  0.0560 -0.3331 -0.1627
   59DOPE   O13 7494   5.480   4.758   4.415  0.1692  0.4050 -0.4374
   59DOPE   O14 7495   5.465   4.547   4.557 -0.0150 -0.0834 -0.3148
   59DOPE   O11 7496   5.279   4.707   4.552 -0.1725  0.6086 -0.1841
   59DOPE   O12 7497   5.339   4.571   4.346 -0.0375 -0.1726 -0.2799
   59DOPE    C1 7498   5.223   4.657   4.673 -0.3444 -0.6608  0.2772
   59DOPE    HA 7499   5.234   4.547   4.670  0.4972 -0.5653 -1.0247
   59DOPE    HB 7500   5.113   4.669   4.680 -0.0739  1.3220  2.0296
   59DOPE    C2 7501   5.288   4.720   4.800 -0.0698  0.1557 -0.3836
   59DOPE    HS 7502   5.395   4.691   4.808 -0.0724  0.1139 -0.5059
   59DOPE   O21 7503   5.210   4.679   4.909 -0.1592  0.1819  0.3392
   59DOPE   C21 7504   5.238   4.555   4.951  0.2297  0.0795 -0.4091
   59DOPE   O22 7505   5.315   4.474   4.894  0.3453 -0.0513 -0.2793
   59DOPE   C22 7506   5.171   4.538   5.081  0.1986 -0.4873 -0.3319
   59DOPE   H2R 7507   5.192   4.442   5.132  1.4922 -0.0614 -0.0255
   59DOPE   H2S 7508   5.063   4.547   5.060  0.2383 -2.0152 -1.2932
   59DOPE    C3 7509   5.277   4.872   4.796 -0.2924  0.5214  0.2826
   59DOPE    HX 7510   5.167   4.893   4.801 -0.4066  0.4647 -1.4606
   59DOPE    HY 7511   5.317   4.903   4.697  0.2044  1.5697  0.7905
   59DOPE   O31 7512   5.348   4.941   4.909  0.3454  0.3478  0.6977
   59DOPE   C31 7513   5.472   4.949   4.896 -0.1817  0.1988  0.2653
   59DOPE   O32 7514   5.539   4.906   4.805 -0.0402  0.7823 -0.2589
   59DOPE   C32 7515   5.539   5.018   5.011 -0.5760  0.4972 -0.0640
   59DOPE   H2X 7516   5.625   5.080   4.978 -0.8561 -0.1162 -2.0694
   59DOPE   H2Y 7517   5.467   5.086   5.062  0.5910  0.9337  1.0519
   59DOPE   C23 7518   5.214   4.649   5.184 -0.3502  0.0490  0.4100
   59DOPE   H3R 7519   5.186   4.753   5.157  0.2542  0.4822  1.3865
   59DOPE   H3S 7520   5.324   4.655   5.199 -0.5960  0.8442  2.2066
   59DOPE   C24 7521   5.154   4.625   5.325 -0.0583 -0.1918 -0.4309
   59DOPE   H4R 7522   5.179   4.524   5.364 -1.1078 -0.5412 -0.6260
   59DOPE   H4S 7523   5.044   4.634   5.323 -0.1408 -1.1705 -1.8630
   59DOPE   C25 7524   5.203   4.729   5.428 -0.1917 -0.6937 -0.3117
   59DOPE   H5R 7525   5.167   4.827   5.390  0.1029  0.1860  1.5984
   59DOPE   H5S 7526   5.312   4.749   5.437 -0.6853  1.2320  2.5763
   59DOPE   C26 7527   5.160   4.708   5.575  0.1130 -0.4618 -0.0891
   59DOPE   H6R 7528   5.207   4.615   5.614  0.6437 -0.1046  0.1249
   59DOPE   H6S 7529   5.049   4.699   5.571  0.2878 -3.5370 -0.8289
   59DOPE   C27 7530   5.199   4.830   5.652 -0.2445  0.8059  0.3922
   59DOPE   H7R 7531   5.154   4.917   5.600  0.4493  0.1416 -1.3891
   59DOPE   H7S 7532   5.310   4.840   5.652 -0.3120  2.1930  2.4370
   59DOPE   C28 7533   5.147   4.818   5.793  0.5861 -0.2706  0.0576
   59DOPE   H8R 7534   5.190   4.722   5.829 -0.7603 -1.0962 -0.4671
   59DOPE   H8S 7535   5.040   4.790   5.787  0.6010 -0.0438 -1.6991
   59DOPE   C29 7536   5.157   4.938   5.888  0.3535 -0.2781 -0.1177
   59DOPE   H9R 7537   5.176   5.032   5.833  0.1192 -1.2925 -1.9912
   59DOPE  C210 7538   5.152   4.943   6.020 -0.7237 -0.0891  0.3025
   59DOPE  H10R 7539   5.174   5.038   6.072 -1.6190 -0.7457  1.9533
   59DOPE  C211 7540   5.119   4.828   6.110  0.0132 -0.1087 -0.3082
   59DOPE  H11R 7541   5.142   4.728   6.066  0.1965  0.0964 -0.6815
   59DOPE  H11S 7542   5.009   4.843   6.122  0.0975  0.5554 -0.3744
   59DOPE  C212 7543   5.180   4.843   6.254  0.5249 -0.2762 -0.2424
   59DOPE  H12R 7544   5.180   4.948   6.293  2.6626 -0.5269  0.5494
   59DOPE  H12S 7545   5.284   4.803   6.253  0.6670  0.0470  0.4016
   59DOPE  C213 7546   5.103   4.757   6.345  1.1212  0.5724 -0.8743
   59DOPE  H13R 7547   5.095   4.654   6.303 -2.8675  0.2738  0.2702
   59DOPE  H13S 7548   4.996   4.783   6.351  0.8051 -0.9588  2.1652
   59DOPE  C214 7549   5.162   4.747   6.486 -0.6130 -0.2324 -0.0397
   59DOPE  H14R 7550   5.159   4.850   6.528 -0.7051  0.1002 -0.8431
   59DOPE  H14S 7551   5.269   4.719   6.472  0.5292  3.0837  1.2069
   59DOPE  C215 7552   5.098   4.650   6.584  0.1580  0.0400  0.4444
   59DOPE  H15R 7553   5.161   4.637   6.674  0.0395 -1.4535  0.3390
   59DOPE  H15S 7554   5.100   4.548   6.539  0.3279 -0.8027  2.2933
   59DOPE  C216 7555   4.945   4.671   6.617  0.5157  0.0360  0.1669
   59DOPE  H16R 7556   4.896   4.591   6.676 -2.4604  2.3148  1.0303
   59DOPE  H16S 7557   4.916   4.665   6.510  3.4013 -0.8517 -0.6640
   59DOPE  C217 7558   4.910   4.806   6.677 -0.2989 -0.0627  0.5433
   59DOPE  H17R 7559   4.961   4.892   6.629 -0.0191 -1.2284 -1.3763
   59DOPE  H17S 7560   4.938   4.809   6.785 -0.5031  0.6617  0.5779
   59DOPE  C218 7561   4.762   4.830   6.667  0.5191  0.5203  0.2456
   59DOPE  H18R 7562   4.731   4.935   6.683 -1.1950  0.1644 -0.4104
   59DOPE  H18S 7563   4.715   4.759   6.739  0.9847 -0.5582 -0.4765
   59DOPE  H18T 7564   4.721   4.796   6.569 -2.6321  0.8020  1.3333
   59DOPE   C33 7565   5.591   4.916   5.115 -0.3053 -0.2144  0.2791
   59DOPE   H3X 7566   5.661   4.847   5.064 -1.5067 -0.5293 -1.0171
   59DOPE   H3Y 7567   5.507   4.861   5.164  0.1901  0.7622  2.3338
   59DOPE   C34 7568   5.673   4.978   5.229  0.3196 -0.8344 -0.0843
   59DOPE   H4X 7569   5.742   5.054   5.187 -1.8042  1.4484  0.2769
   59DOPE   H4Y 7570   5.588   5.027   5.281 -0.2039 -0.3130 -1.3849
   59DOPE   C35 7571   5.740   4.881   5.326  0.0186  0.7416  0.3108
   59DOPE   H5X 7572   5.830   4.850   5.269 -0.9202  1.1615 -1.4508
   59DOPE   H5Y 7573   5.679   4.792   5.351  2.7566 -1.0194  1.3062
   59DOPE   C36 7574   5.789   4.938   5.459 -0.0995 -0.7646  0.2313
   59DOPE   H6X 7575   5.715   5.015   5.490  3.0910  1.0339  4.3569
   59DOPE   H6Y 7576   5.875   5.005   5.435 -0.6931  0.3113  1.0185
   59DOPE   C37 7577   5.820   4.838   5.570 -0.1996 -0.3354 -0.3026
   59DOPE   H7X 7578   5.729   4.774   5.571  0.1293 -0.7965 -0.0260
   59DOPE   H7Y 7579   5.908   4.780   5.537  1.0273  1.8195 -1.0313
   59DOPE   C38 7580   5.850   4.904   5.704 -0.1787  0.0566  0.3355
   59DOPE   H8X 7581   5.774   4.981   5.726  0.6236  0.7165  0.8554
   59DOPE   H8Y 7582   5.949   4.950   5.723  0.1808  0.0792 -1.4461
   59DOPE   C39 7583   5.838   4.795   5.807 -0.2136 -0.8634 -0.2006
   59DOPE   H9X 7584   5.935   4.747   5.830 -0.5182 -1.4643 -0.1642
   59DOPE  C310 7585   5.732   4.764   5.886 -0.4056 -0.3948  0.9277
   59DOPE  H10X 7586   5.742   4.690   5.967  2.2085  0.7322  1.7421
   59DOPE  C311 7587   5.593   4.830   5.870 -0.4136 -0.2719 -0.3596
   59DOPE  H11X 7588   5.593   4.916   5.939 -0.2662  0.7480 -1.5955
   59DOPE  H11Y 7589   5.575   4.863   5.765  0.6109 -1.6239 -0.9834
   59DOPE  C312 7590   5.490   4.736   5.928  0.0486  0.0017 -0.1743
   59DOPE  H12X 7591   5.484   4.635   5.881 -0.0412 -1.4084  2.6939
   59DOPE  H12Y 7592   5.390   4.782   5.913  0.3601  1.4342  1.8503
   59DOPE  C313 7593   5.495   4.722   6.082  0.5087 -0.6184  0.0357
   59DOPE  H13X 7594   5.600   4.708   6.112  1.2718  0.0412 -2.1259
   59DOPE  H13Y 7595   5.456   4.812   6.133  1.4682  1.2503 -2.3623
   59DOPE  C314 7596   5.423   4.596   6.136  0.4460 -0.0895  0.1244
   59DOPE  H14X 7597   5.448   4.508   6.072 -2.0988 -1.5972  1.0517
   59DOPE  H14Y 7598   5.314   4.614   6.128  0.5399 -0.3563 -3.5604
   59DOPE  C315 7599   5.471   4.561   6.276  0.7975 -0.1212  0.4316
   59DOPE  H15X 7600   5.477   4.651   6.341  0.3931  0.3123 -0.1214
   59DOPE  H15Y 7601   5.573   4.520   6.262  0.6174 -0.9951  1.5128
   59DOPE  C316 7602   5.385   4.456   6.356 -0.1056  0.4629 -0.1432
   59DOPE  H16X 7603   5.284   4.445   6.310  0.8703 -0.6801 -2.1453
   59DOPE  H16Y 7604   5.380   4.484   6.463 -0.3409 -2.7483  0.8021
   59DOPE  C317 7605   5.447   4.313   6.342  0.7288 -0.3032 -0.0325
   59DOPE  H17X 7606   5.463   4.281   6.237 -1.4496  1.0693 -0.8731
   59DOPE  H17Y 7607   5.544   4.302   6.395  0.8789 -1.3154 -0.4847
   59DOPE  C318 7608   5.363   4.199   6.409  0.5168  0.5469  0.4655
   59DOPE  H18X 7609   5.433   4.113   6.402 -1.0203 -0.6643 -0.7283
   59DOPE  H18Y 7610   5.336   4.224   6.514  2.3707  0.2643  1.0477
   59DOPE  H18Z 7611   5.275   4.179   6.344  1.3879  1.1832 -0.9400
   60DOPE     N 7612   6.230   3.456   4.228  0.1414 -0.4461 -0.1571
   60DOPE   HN1 7613   6.175   3.462   4.140  1.7443 -1.5622 -1.3157
   60DOPE   HN2 7614   6.240   3.556   4.252 -0.1768 -0.4836  0.1350
   60DOPE   HN3 7615   6.328   3.425   4.211  0.3966 -0.4272  1.1953
   60DOPE   C12 7616   6.149   3.381   4.332 -0.2154 -0.3828 -0.1367
   60DOPE  H12A 7617   6.167   3.411   4.437 -0.8896 -1.1934  0.2226
   60DOPE  H12B 7618   6.179   3.276   4.312 -2.3127 -0.6507 -2.4829
   60DOPE   C11 7619   6.006   3.385   4.292  0.8000 -0.3818  0.3402
   60DOPE  H11A 7620   5.971   3.488   4.312 -2.6127 -1.3172 -0.1183
   60DOPE  H11B 7621   5.946   3.319   4.358  1.0397 -0.5633  0.3782
   60DOPE     P 7622   5.958   3.207   4.100 -0.1604 -0.3377  0.4318
   60DOPE   O13 7623   6.078   3.128   4.092  0.3566  0.8618 -0.0192
   60DOPE   O14 7624   5.886   3.229   3.975 -0.5076 -0.3217  0.2288
   60DOPE   O11 7625   5.866   3.151   4.210  0.3299  0.4657  0.3776
   60DOPE   O12 7626   5.990   3.350   4.155 -0.0479  0.3006 -0.1723
   60DOPE    C1 7627   5.736   3.198   4.239 -0.5463  0.2249  0.3952
   60DOPE    HA 7628   5.682   3.145   4.158 -0.0338  0.2880  0.0013
   60DOPE    HB 7629   5.721   3.306   4.217  0.1504  0.1474 -0.5334
   60DOPE    C2 7630   5.694   3.153   4.378  0.2790 -0.6194  0.6565
   60DOPE    HS 7631   5.594   3.199   4.389 -0.2173 -1.6016  0.3761
   60DOPE   O21 7632   5.799   3.185   4.468  0.2769  0.1067 -0.3238
   60DOPE   C21 7633   5.758   3.264   4.568 -0.2519 -0.7391 -0.1102
   60DOPE   O22 7634   5.650   3.312   4.579  0.4184 -0.0203  0.6823
   60DOPE   C22 7635   5.874   3.284   4.660 -0.1589 -0.2916 -0.7432
   60DOPE   H2R 7636   5.852   3.382   4.709 -0.0624  0.4472 -2.1316
   60DOPE   H2S 7637   5.965   3.311   4.602  1.3261 -1.3185  1.0027
   60DOPE    C3 7638   5.662   3.005   4.394 -0.0275 -0.2423  0.4722
   60DOPE    HX 7639   5.741   2.944   4.345 -0.8517  1.0589 -2.6727
   60DOPE    HY 7640   5.570   2.982   4.337  0.2037 -2.0471  0.7430
   60DOPE   O31 7641   5.648   2.970   4.533 -0.0857  0.0332 -0.2536
   60DOPE   C31 7642   5.640   2.840   4.543 -0.6324  0.1203  0.2384
   60DOPE   O32 7643   5.607   2.765   4.455 -0.2786 -0.2721 -0.2115
   60DOPE   C32 7644   5.689   2.801   4.685 -0.0407  0.0366  0.4549
   60DOPE   H2X 7645   5.795   2.832   4.695 -0.4064  0.9462  1.7329
   60DOPE   H2Y 7646   5.618   2.854   4.752 -0.8360  0.0241 -0.3559
   60DOPE   C23 7647   5.897   3.176   4.772  0.0506 -0.2336 -0.0094
   60DOPE   H3R 7648   5.976   3.210   4.842 -0.1990  0.3961 -0.0297
   60DOPE   H3S 7649   5.941   3.087   4.721 -0.3864 -0.4877  0.0463
   60DOPE   C24 7650   5.776   3.143   4.862  0.0214  0.0777 -0.2715
   60DOPE   H4R 7651   5.693   3.123   4.791 -0.1375 -2.2571  0.5047
   60DOPE   H4S 7652   5.743   3.233   4.919  0.7510 -0.0185  0.3173
   60DOPE   C25 7653   5.804   3.019   4.959 -0.1509 -0.3231 -0.0035
   60DOPE   H5R 7654   5.850   2.930   4.911  1.5837  0.9250 -0.7312
   60DOPE   H5S 7655   5.709   2.990   5.010 -0.4521  0.2132 -0.2494
   60DOPE   C26 7656   5.898   3.066   5.077  0.6253  0.2488  0.5210
   60DOPE   H6R 7657   5.850   3.140   5.144  2.8370  1.4302  0.8770
   60DOPE   H6S 7658   5.996   3.100   5.039  0.0970 -0.3691 -1.5317
   60DOPE   C27 7659   5.932   2.945   5.169 -0.4517  1.0492 -0.4551
   60DOPE   H7R 7660   5.968   2.990   5.264 -1.8614  0.5836  0.3256
   60DOPE   H7S 7661   6.007   2.878   5.121 -1.2507  0.8770 -1.5232
   60DOPE   C28 7662   5.813   2.863   5.217  0.2455 -0.5048  0.4975
   60DOPE   H8R 7663   5.758   2.813   5.134  1.5399  0.2672 -0.8673
   60DOPE   H8S 7664   5.734   2.934   5.251  0.2666  0.7306 -1.8318
   60DOPE   C29 7665   5.837   2.763   5.334  0.5786  0.4378  1.4548
   60DOPE   H9R 7666   5.858   2.660   5.304  1.0206  0.9626 -0.1445
   60DOPE  C210 7667   5.832   2.790   5.465  0.7075 -0.2583 -0.6176
   60DOPE  H10R 7668   5.854   2.712   5.539 -3.3813 -0.9339  0.1749
   60DOPE  C211 7669   5.815   2.917   5.540 -0.3107 -0.7830 -0.2961
   60DOPE  H11R 7670   5.743   2.896   5.622  0.5531  0.0432  0.6909
   60DOPE  H11S 7671   5.779   3.006   5.485 -1.2420 -0.4431  0.8240
   60DOPE  C212 7672   5.950   2.955   5.611 -0.2071 -0.4776  0.1254
   60DOPE  H12R 7673   6.002   3.026   5.543 -0.1156 -1.7733 -1.2111
   60DOPE  H12S 7674   6.019   2.869   5.625  1.7884  1.0342  0.0086
   60DOPE  C213 7675   5.926   3.016   5.750  0.3227 -0.2585 -0.8287
   60DOPE  H13R 7676   5.835   3.080   5.738  1.0601  0.4380 -3.0931
   60DOPE  H13S 7677   6.018   3.073   5.773  0.1544 -0.7293  1.2769
   60DOPE  C214 7678   5.905   2.914   5.859 -0.2027  0.1308  0.2225
   60DOPE  H14R 7679   6.000   2.858   5.848  0.0528  1.0730 -4.7002
   60DOPE  H14S 7680   5.817   2.848   5.843 -0.6963  0.2016  2.3993
   60DOPE  C215 7681   5.892   2.980   5.998  0.0474 -0.8576  0.1262
   60DOPE  H15R 7682   5.817   3.063   5.999 -0.3552 -1.2179  0.3127
   60DOPE  H15S 7683   5.989   3.033   6.005  0.1315 -0.7762 -1.4438
   60DOPE  C216 7684   5.887   2.882   6.115 -0.2523 -0.0039  1.1675
   60DOPE  H16R 7685   5.881   2.937   6.211 -0.4335  2.8853 -0.3956
   60DOPE  H16S 7686   5.973   2.811   6.113 -1.2116 -1.2063 -0.4824
   60DOPE  C217 7687   5.764   2.797   6.102  0.0020  0.7308  0.3112
   60DOPE  H17R 7688   5.772   2.749   6.001  3.1693 -1.0817  1.2882
   60DOPE  H17S 7689   5.673   2.859   6.088  0.3527  1.4127  0.9874
   60DOPE  C218 7690   5.754   2.678   6.205  0.3974  0.2547  0.3523
   60DOPE  H18R 7691   5.692   2.710   6.292 -1.3137  0.0776 -0.7592
   60DOPE  H18S 7692   5.853   2.636   6.231 -0.6174 -2.1928  0.4640
   60DOPE  H18T 7693   5.690   2.604   6.153 -1.0248  2.7079 -1.6499
   60DOPE   C33 7694   5.682   2.648   4.692  0.4711  0.5093 -0.5775
   60DOPE   H3X 7695   5.773   2.600   4.650 -1.0647 -0.5861 -2.8675
   60DOPE   H3Y 7696   5.592   2.596   4.650  0.4337 -1.3089  1.5335
   60DOPE   C34 7697   5.676   2.620   4.839  0.3670  0.6653  0.5753
   60DOPE   H4X 7698   5.782   2.633   4.871  0.2487  4.5780 -0.1246
   60DOPE   H4Y 7699   5.630   2.711   4.883  1.1912  1.6244 -0.4569
   60DOPE   C35 7700   5.612   2.488   4.880  0.2154  0.2345  0.8165
   60DOPE   H5X 7701   5.632   2.415   4.799 -1.8697  0.7169 -0.1958
   60DOPE   H5Y 7702   5.504   2.512   4.866 -0.0406 -1.5594 -0.8133
   60DOPE   C36 7703   5.647   2.448   5.021 -0.0327 -0.2002  0.2968
   60DOPE   H6X 7704   5.636   2.540   5.083 -0.1704  0.1201 -0.1977
   60DOPE   H6Y 7705   5.752   2.426   5.048 -0.2431  0.0087  1.3115
   60DOPE   C37 7706   5.563   2.338   5.069 -0.1173 -0.0790 -0.5097
   60DOPE   H7X 7707   5.458   2.354   5.035  0.6861 -0.9520 -3.8627
   60DOPE   H7Y 7708   5.593   2.250   5.009 -0.4380 -0.6519  0.1578
   60DOPE   C38 7709   5.570   2.321   5.228 -0.0882 -0.7871  0.1203
   60DOPE   H8X 7710   5.678   2.304   5.246 -0.0697  0.7158  1.7513
   60DOPE   H8Y 7711   5.514   2.226   5.243  1.7894 -2.4430 -2.5041
   60DOPE   C39 7712   5.530   2.429   5.321  0.1940 -0.5907  0.1250
   60DOPE   H9X 7713   5.573   2.526   5.293  1.0458 -0.7487  0.8414
   60DOPE  C310 7714   5.475   2.413   5.444  0.2142 -0.0722  0.7190
   60DOPE  H10X 7715   5.457   2.501   5.507  0.4406  1.6766 -1.5261
   60DOPE  C311 7716   5.436   2.280   5.504  0.1740 -0.4470 -0.2692
   60DOPE  H11X 7717   5.342   2.289   5.563  0.3377 -0.2218 -0.0402
   60DOPE  H11Y 7718   5.421   2.206   5.423 -1.1137 -0.1758 -0.3098
   60DOPE  C312 7719   5.539   2.210   5.605 -0.3578  0.6782 -0.1168
   60DOPE  H12X 7720   5.627   2.202   5.538 -1.0790  1.5807 -1.2118
   60DOPE  H12Y 7721   5.496   2.109   5.620 -0.7926  0.8925  0.1150
   60DOPE  C313 7722   5.574   2.294   5.735 -0.9894  0.5908  0.2267
   60DOPE  H13X 7723   5.673   2.339   5.711 -0.9932 -0.4535 -1.9968
   60DOPE  H13Y 7724   5.487   2.362   5.732  0.3448  2.3567 -1.5925
   60DOPE  C314 7725   5.583   2.201   5.863 -0.2825  0.7262 -0.4761
   60DOPE  H14X 7726   5.683   2.152   5.873  0.3578  2.3210  1.6442
   60DOPE  H14Y 7727   5.502   2.127   5.845  0.1476  0.3925 -1.1042
   60DOPE  C315 7728   5.567   2.274   6.001  0.8168  0.1650 -0.0665
   60DOPE  H15X 7729   5.472   2.331   5.993  0.3726 -0.2739  1.7359
   60DOPE  H15Y 7730   5.654   2.343   5.997  1.1456 -0.3014 -1.8935
   60DOPE  C316 7731   5.562   2.182   6.123  0.7480 -0.1826  0.2531
   60DOPE  H16X 7732   5.502   2.092   6.095  2.3784 -1.0340 -0.6127
   60DOPE  H16Y 7733   5.509   2.248   6.195  0.0858 -0.7080  0.2686
   60DOPE  C317 7734   5.697   2.133   6.175 -0.5942  0.7348  0.2669
   60DOPE  H17X 7735   5.696   2.031   6.220  1.2721  0.1710 -0.8401
   60DOPE  H17Y 7736   5.768   2.110   6.092 -0.0798 -1.5411  1.2645
   60DOPE  C318 7737   5.775   2.224   6.272 -0.1263 -0.1605  0.3657
   60DOPE  H18X 7738   5.805   2.308   6.207  0.2490 -1.3373 -1.0433
   60DOPE  H18Y 7739   5.715   2.253   6.361  0.3749 -0.9918  0.9950
   60DOPE  H18Z 7740   5.872   2.182   6.307  0.0002  1.2684  1.8240
   6123SM     N 7741   3.267   5.918   9.372  1.1946  0.4004 -0.1420
   6123SM   C15 7742   3.196   5.993   9.260 -0.8238  0.8799  0.2511
   6123SM  H15A 7743   3.271   6.061   9.221  1.0261 -1.4601 -0.4581
   6123SM  H15B 7744   3.110   6.046   9.300 -0.1840  0.8835  1.6973
   6123SM  H15C 7745   3.155   5.931   9.182  1.3710  1.8055 -1.7531
   6123SM   C14 7746   3.301   6.016   9.474 -0.6458 -0.7956 -0.4540
   6123SM  H14A 7747   3.222   6.086   9.494  0.7865  0.5287  0.7772
   6123SM  H14B 7748   3.373   6.085   9.433  0.7646 -0.1951  2.7490
   6123SM  H14C 7749   3.340   5.972   9.564  2.5685 -0.2751 -1.4563
   6123SM   C13 7750   3.166   5.822   9.424 -1.1615 -0.6032  0.5221
   6123SM  H13A 7751   3.213   5.751   9.491  2.2353 -0.1925 -1.2299
   6123SM  H13B 7752   3.128   5.770   9.338 -0.9377  0.0596  0.0171
   6123SM  H13C 7753   3.093   5.878   9.481 -0.0131 -0.5264  1.9872
   6123SM   C12 7754   3.380   5.848   9.313  0.0817  0.6372 -0.5130
   6123SM  H12A 7755   3.347   5.786   9.231 -0.8329  0.9650 -0.4021
   6123SM  H12B 7756   3.428   5.779   9.383  2.6794  1.7844 -1.0305
   6123SM   C11 7757   3.502   5.931   9.259  0.8087  0.0867 -0.1284
   6123SM  H11A 7758   3.572   5.849   9.230 -0.8731 -1.2112 -0.6759
   6123SM  H11B 7759   3.557   5.990   9.335  2.0393 -1.4111  0.2135
   6123SM     P 7760   3.559   6.121   9.088 -0.3036  0.3243 -0.1838
   6123SM   O13 7761   3.498   6.190   8.974  0.3178 -0.0902 -0.2875
   6123SM   O14 7762   3.606   6.208   9.198  0.1021 -0.1891  0.0820
   6123SM   O11 7763   3.689   6.049   9.038 -0.3938  0.4334 -0.3322
   6123SM   O12 7764   3.464   6.016   9.148  0.0029 -0.2622  0.7405
   6123SM   C1S 7765   3.704   5.961   8.928  0.2350 -0.5721  0.3967
   6123SM   H1S 7766   3.621   5.888   8.921  0.5601 -0.8674 -0.5192
   6123SM   H1T 7767   3.792   5.893   8.925  0.4361 -0.2962 -0.3323
   6123SM    NF 7768   3.723   5.944   8.682 -0.5331  0.1276  0.1387
   6123SM   HNF 7769   3.814   5.945   8.643 -1.4480  0.2181 -2.1673
   6123SM   C2S 7770   3.710   6.039   8.794  0.5280 -0.7321 -0.5514
   6123SM   H2S 7771   3.610   6.087   8.789 -0.3131 -2.1880  0.9340
   6123SM   C3S 7772   3.827   6.144   8.790 -0.0154  0.7913 -0.2334
   6123SM   H3S 7773   3.926   6.107   8.825  0.0155  1.0772 -0.0112
   6123SM    O3 7774   3.811   6.256   8.882  0.0703 -0.5694 -0.3861
   6123SM   HO3 7775   3.725   6.236   8.920  1.4607 -2.4387  2.1245
   6123SM   C4S 7776   3.846   6.203   8.655  0.3890  0.2464  0.2184
   6123SM   H4S 7777   3.760   6.263   8.621  2.0111  1.6032 -1.7151
   6123SM   C5S 7778   3.953   6.190   8.572  0.7318 -0.0069 -0.4805
   6123SM   H5S 7779   4.032   6.121   8.606  0.3449  0.0255  0.5148
   6123SM   C6S 7780   3.969   6.244   8.435 -0.0557  0.1650  0.1095
   6123SM   H6S 7781   4.077   6.231   8.411 -0.0851 -0.7752  0.4504
   6123SM   H6T 7782   3.952   6.354   8.443  1.6380  0.3351  2.5341
   6123SM   C7S 7783   3.871   6.189   8.329  0.1662  0.1150 -0.0313
   6123SM   H7S 7784   3.766   6.192   8.365  0.3895  2.4860  0.5830
   6123SM   H7T 7785   3.883   6.082   8.302 -0.3249  0.1752 -0.4972
   6123SM   C8S 7786   3.867   6.282   8.200  0.6591  0.6814  0.0950
   6123SM   H8S 7787   3.852   6.389   8.228 -0.0205  0.4942  0.4586
   6123SM   H8T 7788   3.780   6.250   8.140  1.6464  0.8024 -1.4514
   6123SM   C9S 7789   3.988   6.261   8.105 -0.1415  0.1724 -0.4165
   6123SM   H9S 7790   3.988   6.162   8.053 -2.4374 -0.7156  1.0955
   6123SM   H9T 7791   4.080   6.266   8.166 -0.4716 -0.0361  0.1093
   6123SM  C10S 7792   4.011   6.372   8.001 -0.0400 -0.0530  0.5479
   6123SM  H10S 7793   4.104   6.351   7.945 -1.6587  0.0169 -2.3573
   6123SM  H10T 7794   4.030   6.471   8.048  1.1819 -0.1843  0.3541
   6123SM  C11S 7795   3.900   6.388   7.899  0.4217 -0.3936 -0.4097
   6123SM  H11S 7796   3.936   6.462   7.824  0.0543  0.9021  0.6495
   6123SM  H11T 7797   3.810   6.438   7.942  0.5962 -1.9067  1.8872
   6123SM  C12S 7798   3.863   6.260   7.821 -0.3160  0.1065 -0.3452
   6123SM  H12S 7799   3.812   6.191   7.891 -0.8902  0.4619 -0.4055
   6123SM  H12T 7800   3.950   6.205   7.777 -1.5191 -1.6243 -0.6570
   6123SM  C13S 7801   3.769   6.285   7.703 -0.0596  0.2131 -0.3714
   6123SM  H13S 7802   3.797   6.374   7.643 -2.1312  0.6022 -0.8336
   6123SM  H13T 7803   3.674   6.315   7.752 -0.3887  0.7174 -1.2873
   6123SM  C14S 7804   3.752   6.163   7.619  0.3650 -0.0174 -0.0335
   6123SM  H14S 7805   3.715   6.087   7.692  1.6333  1.2538  2.0326
   6123SM  H14T 7806   3.855   6.128   7.597  0.1121 -1.1954  0.5485
   6123SM  C15S 7807   3.662   6.180   7.490 -0.7798  0.1336  0.2592
   6123SM  H15S 7808   3.575   6.243   7.519 -0.6823  1.7427 -2.6107
   6123SM  H15T 7809   3.627   6.079   7.459 -1.1890 -0.0806  1.3777
   6123SM  C16S 7810   3.735   6.238   7.374  0.7322 -0.7230  0.5781
   6123SM  H16S 7811   3.826   6.179   7.352  1.0095  0.0325 -0.3802
   6123SM  H16T 7812   3.762   6.337   7.417 -3.2192  0.8426 -0.1146
   6123SM  C17S 7813   3.656   6.246   7.241  0.2106 -0.2205  0.5620
   6123SM  H17S 7814   3.561   6.300   7.259  1.2064  2.0071 -0.4534
   6123SM  H17T 7815   3.633   6.144   7.206  2.4788 -0.0958 -1.5488
   6123SM  C18S 7816   3.732   6.321   7.129  0.8592 -0.5103 -0.7158
   6123SM  H18S 7817   3.773   6.416   7.169  1.8359 -1.4351  0.5780
   6123SM  H18T 7818   3.658   6.344   7.049  1.7187 -0.2355 -1.4441
   6123SM  H18U 7819   3.817   6.253   7.106  2.7081  1.1087  0.9266
   6123SM   C1F 7820   3.629   5.858   8.636  0.1811 -0.1338  0.0983
   6123SM    OF 7821   3.545   5.821   8.715  0.2124  0.1579  0.6092
   6123SM   C2F 7822   3.647   5.806   8.502  0.6885 -0.9598 -0.6613
   6123SM   H2F 7823   3.648   5.696   8.520  0.4551 -0.7921  0.4557
   6123SM   H2G 7824   3.748   5.842   8.472  0.7936  0.1601  0.9290
   6123SM   C3F 7825   3.524   5.852   8.416 -1.3955  0.0471  0.3837
   6123SM   H3F 7826   3.517   5.963   8.408  2.4966  0.4075 -0.4013
   6123SM   H3G 7827   3.441   5.813   8.478 -1.3422 -0.8353 -0.0832
   6123SM   C4F 7828   3.516   5.789   8.277 -0.1023  0.6285 -0.0706
   6123SM   H4F 7829   3.408   5.783   8.254  0.2006 -0.1341 -1.3578
   6123SM   H4G 7830   3.553   5.685   8.282  0.5298  0.8605  0.2208
   6123SM   C5F 7831   3.595   5.867   8.167  0.6517  1.1839 -0.3047
   6123SM   H5F 7832   3.704   5.863   8.191  0.5094  0.4702  0.2547
   6123SM   H5G 7833   3.560   5.970   8.145 -2.3326  0.3111 -0.0734
   6123SM   C6F 7834   3.599   5.782   8.043  0.6957 -0.2766  0.4256
   6123SM   H6F 7835   3.498   5.789   7.997  0.3341  1.0592  1.3613
   6123SM   H6G 7836   3.618   5.674   8.058  0.5621 -0.2172  1.0238
   6123SM   C7F 7837   3.702   5.832   7.940  0.3540 -0.4742 -0.4256
   6123SM   H7F 7838   3.802   5.854   7.981  0.8232 -1.4556 -1.0075
   6123SM   H7G 7839   3.665   5.925   7.891  0.1349 -0.8870 -1.0604
   6123SM   C8F 7840   3.741   5.732   7.828 -0.1649  0.2895 -0.2029
   6123SM   H8F 7841   3.757   5.626   7.858  0.3598  0.3954 -0.0974
   6123SM   H8G 7842   3.836   5.764   7.782 -0.3781  0.9501 -0.2000
   6123SM   C9F 7843   3.638   5.724   7.720 -0.0257  0.4078  0.2725
   6123SM   H9F 7844   3.569   5.809   7.742 -0.7417 -0.1519  0.2125
   6123SM   H9G 7845   3.578   5.631   7.722 -1.0540  0.9798 -1.3952
   6123SM  C10F 7846   3.693   5.754   7.580 -0.3362  0.6448 -0.8420
   6123SM  H10F 7847   3.777   5.688   7.550  1.1889  0.9912  2.2756
   6123SM  H10G 7848   3.742   5.854   7.583  2.5088 -0.6213  2.8526
   6123SM  C11F 7849   3.592   5.758   7.460  0.2707  0.2662 -0.6896
   6123SM  H11F 7850   3.526   5.841   7.492  1.0978  1.1217 -1.1684
   6123SM  H11G 7851   3.537   5.662   7.466  1.5160 -0.4406 -0.2105
   6123SM  C12F 7852   3.655   5.783   7.323 -0.3331 -0.6745  0.0820
   6123SM  H12F 7853   3.751   5.834   7.345  0.7344 -1.8169 -1.6447
   6123SM  H12G 7854   3.586   5.832   7.251 -0.2438 -0.4869  0.1253
   6123SM  C13F 7855   3.700   5.646   7.260 -0.1340  0.0268  0.2368
   6123SM  H13F 7856   3.748   5.590   7.343 -0.4140  0.6840  0.8440
   6123SM  H13G 7857   3.769   5.676   7.178 -0.5740  0.5759  0.0613
   6123SM  C14F 7858   3.589   5.561   7.206 -0.1610 -0.0480  0.0985
   6123SM  H14F 7859   3.550   5.491   7.283 -2.5956  2.4945  1.3859
   6123SM  H14G 7860   3.640   5.501   7.128 -0.0001 -1.1915  1.0569
   6123SM  C15F 7861   3.467   5.632   7.145  0.8342 -0.3307 -0.1317
   6123SM  H15F 7862   3.514   5.700   7.071  2.1994 -2.5693 -1.4753
   6123SM  H15G 7863   3.414   5.682   7.228  1.2822 -0.3490  0.1718
   6123SM  C16F 7864   3.367   5.538   7.070  0.1167 -0.1555 -0.3082
   6123SM  H16F 7865   3.282   5.593   7.025 -1.2919 -0.6807  1.6040
   6123SM  H16G 7866   3.337   5.464   7.148  0.3923 -0.6220 -0.6361
   6123SM  C17F 7867   3.426   5.460   6.956 -0.0287 -0.1881 -0.2535
   6123SM  H17F 7868   3.488   5.377   6.997  0.3468 -0.4866 -1.3835
   6123SM  H17G 7869   3.483   5.523   6.884 -1.6437  1.3962 -0.2287
   6123SM  C18F 7870   3.311   5.393   6.884  0.4950 -0.1594  0.8912
   6123SM  H18F 7871   3.231   5.458   6.842  1.2209 -0.9614 -2.0026
   6123SM  H18G 7872   3.267   5.317   6.952  1.5561 -0.9554  0.7129
   6123SM  C19F 7873   3.348   5.316   6.749 -0.4313  1.1324 -0.4055
   6123SM  H19F 7874   3.261   5.254   6.720 -0.9621  1.5573  0.2484
   6123SM  H19G 7875   3.425   5.242   6.779 -1.2542  0.4216 -0.0066
   6123SM  C20F 7876   3.395   5.403   6.632 -0.2216  0.3260 -0.4594
   6123SM  H20F 7877   3.467   5.482   6.662 -1.1603  0.6537  1.0208
   6123SM  H20G 7878   3.309   5.454   6.586  0.1095  0.2060 -1.2220
   6123SM  C21F 7879   3.453   5.318   6.524  0.1351 -0.6679 -0.4463
   6123SM  H21F 7880   3.395   5.229   6.494 -0.4782 -1.1254  1.9346
   6123SM  H21G 7881   3.543   5.281   6.577 -0.1499  1.3955  1.6813
   6123SM  C22F 7882   3.481   5.402   6.393 -0.0878 -0.2350  0.0961
   6123SM  H22F 7883   3.518   5.501   6.427  0.2922 -1.0140  2.1166
   6123SM  H22G 7884   3.381   5.416   6.346 -0.3775 -0.8564  0.5041
   6123SM  C23F 7885   3.582   5.346   6.297 -0.3448 -0.3751 -0.0154
   6123SM  H23F 7886   3.556   5.246   6.257 -0.4162 -0.6093  0.6182
   6123SM  H23G 7887   3.677   5.327   6.351 -0.4600 -0.1621  0.2664
   6123SM  H23H 7888   3.612   5.426   6.226  1.8285  1.8202  3.1096
   6223SM     N 7889   4.284   5.263   9.127 -0.3855  0.0560  0.3202
   6223SM   C15 7890   4.329   5.120   9.146 -0.1153 -0.6183  0.5908
   6223SM  H15A 7891   4.423   5.104   9.094 -1.4063 -2.6423 -1.2939
   6223SM  H15B 7892   4.265   5.044   9.103  1.1907 -1.7344  0.5192
   6223SM  H15C 7893   4.341   5.098   9.251  0.3042 -1.2025  0.4292
   6223SM   C14 7894   4.362   5.353   9.219 -0.1373 -0.3357 -0.3723
   6223SM  H14A 7895   4.354   5.335   9.326  1.9154  2.1514  0.2853
   6223SM  H14B 7896   4.348   5.458   9.201 -0.5560 -0.5299 -1.2147
   6223SM  H14C 7897   4.466   5.328   9.205  0.2031  1.1890 -0.7495
   6223SM   C13 7898   4.318   5.294   8.981  0.4247  0.1316 -0.0827
   6223SM  H13A 7899   4.261   5.385   8.967 -1.5714 -0.6627  2.1686
   6223SM  H13B 7900   4.293   5.225   8.903 -1.0145  3.1851 -2.5319
   6223SM  H13C 7901   4.424   5.309   8.966  0.0738  0.9441 -2.1284
   6223SM   C12 7902   4.140   5.282   9.163  0.0466  0.0189  0.4891
   6223SM  H12A 7903   4.122   5.253   9.265  0.8911  0.3311  0.7351
   6223SM  H12B 7904   4.085   5.219   9.094 -0.2679  1.3154 -0.4972
   6223SM   C11 7905   4.091   5.429   9.147 -0.0568 -0.1042 -0.8170
   6223SM  H11A 7906   4.134   5.491   9.229  1.5068 -1.5746 -0.4610
   6223SM  H11B 7907   3.982   5.439   9.166  0.0047  0.1503 -0.5906
   6223SM     P 7908   4.075   5.638   9.010  0.6419  0.2229 -0.1656
   6223SM   O13 7909   3.933   5.649   9.049  0.0224 -0.1010 -0.6800
   6223SM   O14 7910   4.165   5.730   9.078  0.4933 -0.5999 -0.6519
   6223SM   O11 7911   4.088   5.668   8.855 -0.1322  0.2134 -1.3657
   6223SM   O12 7912   4.124   5.489   9.025  0.1355  0.0855  0.4160
   6223SM   C1S 7913   4.211   5.640   8.792  0.2793 -0.1335  0.4284
   6223SM   H1S 7914   4.228   5.530   8.787 -0.1884 -0.2858  1.7310
   6223SM   H1T 7915   4.293   5.698   8.840  1.0004  1.5179 -2.5406
   6223SM    NF 7916   4.313   5.623   8.577  0.1398 -0.2644 -0.4347
   6223SM   HNF 7917   4.396   5.677   8.576 -0.9654  1.5110 -0.9938
   6223SM   C2S 7918   4.203   5.691   8.646  0.3589  0.3346  0.5607
   6223SM   H2S 7919   4.105   5.661   8.603  0.0085  1.7150  0.3172
   6223SM   C3S 7920   4.218   5.846   8.633 -0.0620 -0.3100 -0.0801
   6223SM   H3S 7921   4.310   5.867   8.691 -0.5498  1.8444  0.0067
   6223SM    O3 7922   4.119   5.918   8.702  0.2142  0.1723 -0.0423
   6223SM   HO3 7923   4.076   5.850   8.754  1.3668  0.8923  1.9509
   6223SM   C4S 7924   4.226   5.896   8.487 -0.1814 -1.0439 -0.2551
   6223SM   H4S 7925   4.323   5.947   8.473 -0.2111 -0.9788 -0.2268
   6223SM   C5S 7926   4.129   5.908   8.390 -1.0004 -1.0090  0.2080
   6223SM   H5S 7927   4.024   5.888   8.415 -0.5645 -1.6709  1.6308
   6223SM   C6S 7928   4.160   5.968   8.256  0.3713 -0.3987 -0.3821
   6223SM   H6S 7929   4.265   6.006   8.255  1.2563 -2.6855 -1.1907
   6223SM   H6T 7930   4.097   6.055   8.229 -2.3111 -1.7356  1.1812
   6223SM   C7S 7931   4.145   5.875   8.140  0.2267  0.1343  1.0330
   6223SM   H7S 7932   4.037   5.849   8.133  0.5021 -0.7525 -0.5180
   6223SM   H7T 7933   4.193   5.775   8.147 -3.5395 -1.9745  0.0199
   6223SM   C8S 7934   4.195   5.940   8.011  0.3791 -0.9840 -0.2422
   6223SM   H8S 7935   4.302   5.968   8.007  0.0684  0.6151  1.4897
   6223SM   H8T 7936   4.151   6.042   8.005  1.2996 -0.4962  0.9338
   6223SM   C9S 7937   4.158   5.866   7.886  0.6194 -0.1262  0.5553
   6223SM   H9S 7938   4.049   5.846   7.889  0.7651 -0.9133  3.6206
   6223SM   H9T 7939   4.222   5.776   7.872 -0.8797 -1.2130  0.5133
   6223SM  C10S 7940   4.171   5.955   7.760 -0.1420  0.0121  0.0326
   6223SM  H10S 7941   4.277   5.985   7.751 -0.2960  0.0852 -1.9277
   6223SM  H10T 7942   4.098   6.038   7.768  1.0449  1.1086 -0.3137
   6223SM  C11S 7943   4.142   5.879   7.634  0.0346 -0.1491  0.6222
   6223SM  H11S 7944   4.037   5.844   7.643 -0.4321  0.6289 -1.4321
   6223SM  H11T 7945   4.215   5.795   7.641 -0.9598 -1.0899 -0.1066
   6223SM  C12S 7946   4.163   5.968   7.506 -0.7371 -0.3283  0.1805
   6223SM  H12S 7947   4.269   5.952   7.478 -0.3792 -2.5678  2.3761
   6223SM  H12T 7948   4.143   6.076   7.518  1.0212 -0.1692  2.3007
   6223SM  C13S 7949   4.081   5.915   7.386 -0.7390 -0.4918  0.2720
   6223SM  H13S 7950   3.976   5.921   7.421 -0.6401  1.7655  0.3239
   6223SM  H13T 7951   4.116   5.810   7.377  1.2794  0.0023  1.6248
   6223SM  C14S 7952   4.114   5.999   7.264 -0.1332 -0.0903 -0.6604
   6223SM  H14S 7953   4.225   6.009   7.265 -0.2339  1.0496 -0.4379
   6223SM  H14T 7954   4.070   6.098   7.287 -2.1595 -1.4372  1.7233
   6223SM  C15S 7955   4.081   5.945   7.126  0.3865 -0.8393 -0.4668
   6223SM  H15S 7956   4.114   5.839   7.137  0.4378 -0.6931  0.9127
   6223SM  H15T 7957   4.134   5.999   7.045  1.2118  0.6157  0.9685
   6223SM  C16S 7958   3.936   5.939   7.083  0.1453 -0.6048 -0.1058
   6223SM  H16S 7959   3.896   6.039   7.057 -0.5554  0.0230  2.9491
   6223SM  H16T 7960   3.869   5.911   7.168 -0.4539  1.5401  0.1803
   6223SM  C17S 7961   3.909   5.836   6.977 -0.0034 -0.8673  0.0460
   6223SM  H17S 7962   3.934   5.731   7.001 -2.1767 -1.0976  1.5569
   6223SM  H17T 7963   3.977   5.869   6.895  1.4747 -2.7425  0.4689
   6223SM  C18S 7964   3.765   5.846   6.928 -0.3118 -0.1440  0.3977
   6223SM  H18S 7965   3.772   5.926   6.851  0.8296 -2.4441 -2.0495
   6223SM  H18T 7966   3.692   5.878   7.006  1.9832  0.9050  2.2523
   6223SM  H18U 7967   3.741   5.756   6.867  1.7749  0.2818 -1.1945
   6223SM   C1F 7968   4.305   5.499   8.532  0.1241  0.2453  0.2146
   6223SM    OF 7969   4.201   5.432   8.559  0.0497 -0.4625 -0.3206
   6223SM   C2F 7970   4.419   5.457   8.441 -0.5385 -0.0700  0.2054
   6223SM   H2F 7971   4.379   5.385   8.366 -0.0730 -0.3607  0.2312
   6223SM   H2G 7972   4.490   5.407   8.511 -1.0764  2.3836  2.6821
   6223SM   C3F 7973   4.484   5.567   8.344  0.5095 -0.5860 -0.2111
   6223SM   H3F 7974   4.496   5.668   8.391 -0.5947  0.9632 -3.0469
   6223SM   H3G 7975   4.408   5.576   8.264  1.4343 -2.0126 -1.2791
   6223SM   C4F 7976   4.615   5.527   8.277  0.4417 -0.8988  0.3933
   6223SM   H4F 7977   4.693   5.534   8.356 -0.3993 -0.8017  1.2325
   6223SM   H4G 7978   4.645   5.606   8.205  0.2503  0.2283  1.5119
   6223SM   C5F 7979   4.610   5.391   8.201  0.3552 -0.4980 -0.1670
   6223SM   H5F 7980   4.562   5.313   8.263 -0.2757 -0.8058 -1.0180
   6223SM   H5G 7981   4.713   5.358   8.176 -0.0902 -1.5072 -0.7511
   6223SM   C6F 7982   4.520   5.393   8.080  0.1980 -0.3047 -0.3791
   6223SM   H6F 7983   4.414   5.399   8.111  0.1065  0.3565 -0.7969
   6223SM   H6G 7984   4.540   5.297   8.027 -0.3689 -1.5412  1.5545
   6223SM   C7F 7985   4.557   5.509   7.984 -0.3245  0.0567 -0.1862
   6223SM   H7F 7986   4.666   5.529   7.979 -0.1006  0.2117  2.9522
   6223SM   H7G 7987   4.520   5.607   8.022  1.4837  0.6031  0.2518
   6223SM   C8F 7988   4.501   5.477   7.844 -0.6372  0.3657 -0.2411
   6223SM   H8F 7989   4.392   5.461   7.851 -0.9135  0.7580 -2.7092
   6223SM   H8G 7990   4.544   5.385   7.798 -1.4970  0.1437 -0.6137
   6223SM   C9F 7991   4.530   5.585   7.737 -0.2932 -0.3951 -0.1144
   6223SM   H9F 7992   4.621   5.634   7.776 -0.6807  1.0337 -0.9518
   6223SM   H9G 7993   4.453   5.663   7.755 -0.5594 -0.7133  0.1422
   6223SM  C10F 7994   4.535   5.539   7.588  0.5400  0.6552 -0.5983
   6223SM  H10F 7995   4.443   5.479   7.569  0.7847 -0.6789  1.9574
   6223SM  H10G 7996   4.612   5.461   7.572 -0.0131 -0.2043  0.7832
   6223SM  C11F 7997   4.536   5.662   7.493 -0.6068  1.2698 -0.1904
   6223SM  H11F 7998   4.641   5.678   7.461  0.4260  0.3658  2.4369
   6223SM  H11G 7999   4.500   5.750   7.550  0.8979  2.0868 -0.4574
   6223SM  C12F 8000   4.444   5.650   7.370 -0.1832 -0.0305 -1.0215
   6223SM  H12F 8001   4.341   5.681   7.398  0.6316  3.0662 -1.1557
   6223SM  H12G 8002   4.438   5.542   7.345 -1.5068 -0.0881 -0.5368
   6223SM  C13F 8003   4.495   5.722   7.254  0.8455 -0.4510  0.5687
   6223SM  H13F 8004   4.587   5.678   7.210  0.3866 -2.9178  1.9492
   6223SM  H13G 8005   4.512   5.830   7.274  1.0767 -0.1374 -1.0984
   6223SM  C14F 8006   4.383   5.727   7.146 -0.4953  0.0246 -0.1786
   6223SM  H14F 8007   4.413   5.796   7.065  1.1935  0.4826  0.7741
   6223SM  H14G 8008   4.288   5.769   7.185 -0.7097  0.6196 -1.3321
   6223SM  C15F 8009   4.345   5.595   7.075  0.5652  0.8983 -0.1575
   6223SM  H15F 8010   4.328   5.516   7.150  4.7243  1.3548  1.5515
   6223SM  H15G 8011   4.429   5.551   7.017 -0.3839 -0.4595 -0.5402
   6223SM  C16F 8012   4.227   5.603   6.979 -0.0908  0.5128 -0.4884
   6223SM  H16F 8013   4.134   5.649   7.020  0.7565  0.0512  2.1949
   6223SM  H16G 8014   4.202   5.500   6.946  1.8747 -0.2001  0.0880
   6223SM  C17F 8015   4.272   5.687   6.863 -0.2597  0.1986 -0.0279
   6223SM  H17F 8016   4.375   5.659   6.833 -0.4495 -2.2125  1.2867
   6223SM  H17G 8017   4.286   5.792   6.895 -2.3987  0.4306  0.3158
   6223SM  C18F 8018   4.180   5.679   6.742  0.5055  0.0817  0.0766
   6223SM  H18F 8019   4.217   5.749   6.663  0.2292 -0.0669 -0.1855
   6223SM  H18G 8020   4.078   5.708   6.774  1.1552  1.1750  1.2878
   6223SM  C19F 8021   4.180   5.535   6.684  0.8208  0.7945  0.1490
   6223SM  H19F 8022   4.128   5.458   6.744  2.2548 -1.5712 -1.4350
   6223SM  H19G 8023   4.285   5.500   6.700 -0.0741 -1.5886  1.2942
   6223SM  C20F 8024   4.124   5.523   6.545  1.6708  0.6069 -0.4396
   6223SM  H20F 8025   4.129   5.418   6.508  4.1191  0.3617  0.4261
   6223SM  H20G 8026   4.188   5.585   6.478 -0.6088  1.8508 -1.6066
   6223SM  C21F 8027   3.976   5.570   6.547  0.0282  0.0700  0.3668
   6223SM  H21F 8028   3.975   5.667   6.602 -1.6902 -0.9511  2.2634
   6223SM  H21G 8029   3.928   5.495   6.613 -2.3386  0.7176 -0.5459
   6223SM  C22F 8030   3.906   5.573   6.412  0.4193 -0.1412 -0.4803
   6223SM  H22F 8031   3.796   5.586   6.427 -0.0316 -2.9995 -0.5657
   6223SM  H22G 8032   3.914   5.481   6.350  1.0352 -0.1066 -0.4569
   6223SM  C23F 8033   3.962   5.683   6.317  1.1088 -0.5081 -0.7823
   6223SM  H23F 8034   4.072   5.664   6.320  0.7414 -3.1116 -1.3187
   6223SM  H23G 8035   3.943   5.786   6.355 -3.5178 -2.5035  3.4836
   6223SM  H23H 8036   3.931   5.665   6.212 -0.6595 -0.4578 -0.3012
   6323SM     N 8037   4.075   6.103   9.128  0.6048  0.4076  0.6196
   6323SM   C15 8038   4.161   6.072   9.010  0.4709  0.4422  0.1084
   6323SM  H15A 8039   4.255   6.126   9.016  1.7248 -1.5326 -0.7597
   6323SM  H15B 8040   4.105   6.090   8.919 -1.5613  2.1246  1.5890
   6323SM  H15C 8041   4.194   5.969   9.014  0.2901  0.3463 -0.6328
   6323SM   C14 8042   4.023   6.251   9.115 -1.1196  0.2535 -0.2313
   6323SM  H14A 8043   3.963   6.287   9.197 -1.1132  1.4793 -0.7480
   6323SM  H14B 8044   3.966   6.257   9.024 -1.1517 -0.5960 -0.2754
   6323SM  H14C 8045   4.110   6.314   9.104 -1.1527  0.3187 -0.1245
   6323SM   C13 8046   3.948   6.020   9.128  0.3057  0.0626  0.5790
   6323SM  H13A 8047   3.885   6.054   9.209  0.3650  0.4134  0.4807
   6323SM  H13B 8048   3.957   5.913   9.139  2.6418  0.3209  1.8860
   6323SM  H13C 8049   3.895   6.046   9.038  2.0967 -1.0549 -0.8648
   6323SM   C12 8050   4.154   6.079   9.250 -0.4299 -0.4108  0.4705
   6323SM  H12A 8051   4.216   5.991   9.244 -1.3291 -0.9850 -0.9817
   6323SM  H12B 8052   4.077   6.064   9.324 -0.5216  0.3133  0.5320
   6323SM   C11 8053   4.253   6.180   9.305  0.3624  0.3450  0.3590
   6323SM  H11A 8054   4.325   6.217   9.229  0.5954 -1.4322 -0.3478
   6323SM  H11B 8055   4.310   6.128   9.386  1.5662 -1.9746 -1.8410
   6323SM     P 8056   4.221   6.436   9.353  0.6028  0.0606 -0.1218
   6323SM   O13 8057   4.114   6.528   9.408 -0.2920  0.8788  0.4835
   6323SM   O14 8058   4.354   6.458   9.406  0.2487  0.2338 -0.3630
   6323SM   O11 8059   4.227   6.459   9.193  0.2660 -0.0648 -0.0580
   6323SM   O12 8060   4.179   6.283   9.363  0.0907 -0.0708  0.0246
   6323SM   C1S 8061   4.329   6.548   9.147 -0.5607  0.3912 -0.1759
   6323SM   H1S 8062   4.424   6.493   9.164 -0.1084  1.5379  1.2096
   6323SM   H1T 8063   4.347   6.637   9.211 -2.3262 -0.4000  1.5076
   6323SM    NF 8064   4.426   6.652   8.940 -0.0679 -0.1535  0.7452
   6323SM   HNF 8065   4.434   6.749   8.960  0.2208  0.2024 -0.9159
   6323SM   C2S 8066   4.307   6.593   8.998  0.1876 -0.4906  0.1226
   6323SM   H2S 8067   4.291   6.499   8.940 -0.6257  0.9597 -2.1469
   6323SM   C3S 8068   4.168   6.659   8.977 -0.4760 -0.4835 -1.0604
   6323SM   H3S 8069   4.165   6.759   9.027 -0.1032 -2.1315  2.5620
   6323SM    O3 8070   4.066   6.579   9.035 -0.4184  0.5209  0.1102
   6323SM   HO3 8071   4.097   6.538   9.115 -2.8628  0.6272  1.2157
   6323SM   C4S 8072   4.151   6.687   8.825  0.1528 -0.4012 -0.5992
   6323SM   H4S 8073   4.209   6.772   8.785 -0.6250  0.3461 -0.1755
   6323SM   C5S 8074   4.079   6.616   8.737 -0.0595  0.9344 -0.3387
   6323SM   H5S 8075   4.030   6.525   8.772  1.0794 -0.3872 -1.9886
   6323SM   C6S 8076   4.083   6.628   8.590  0.8528 -0.2313 -0.6842
   6323SM   H6S 8077   3.975   6.612   8.567  0.4950 -0.5195  1.0867
   6323SM   H6T 8078   4.145   6.546   8.547 -2.8761 -3.2707 -0.8036
   6323SM   C7S 8079   4.130   6.765   8.530 -0.1812 -0.1765  0.0820
   6323SM   H7S 8080   4.230   6.797   8.564  0.5566  0.7347 -2.6530
   6323SM   H7T 8081   4.063   6.845   8.569 -0.5344 -0.5015  0.1503
   6323SM   C8S 8082   4.125   6.761   8.382  0.0787 -0.1781  0.2556
   6323SM   H8S 8083   4.022   6.733   8.350 -1.7464  2.1361  3.5757
   6323SM   H8T 8084   4.188   6.680   8.338  0.4114  1.1690 -1.8668
   6323SM   C9S 8085   4.161   6.889   8.308  0.2671 -0.1133  0.6995
   6323SM   H9S 8086   4.270   6.902   8.291  0.2654 -0.5708  0.3108
   6323SM   H9T 8087   4.122   6.967   8.377 -0.0099 -0.1606  0.6018
   6323SM  C10S 8088   4.105   6.893   8.167  0.5675 -0.5934  0.4322
   6323SM  H10S 8089   4.140   6.990   8.125 -0.5064  0.3270  1.5686
   6323SM  H10T 8090   3.994   6.900   8.175  0.5460 -0.4895  0.0664
   6323SM  C11S 8091   4.146   6.776   8.070 -0.3538  0.0559  0.7288
   6323SM  H11S 8092   4.115   6.674   8.102 -0.3256 -0.0425  0.4396
   6323SM  H11T 8093   4.256   6.761   8.072 -0.1043  1.4749 -0.8756
   6323SM  C12S 8094   4.110   6.795   7.926  0.0946 -0.2658 -0.0251
   6323SM  H12S 8095   4.144   6.894   7.888 -0.5495 -0.6371 -1.6493
   6323SM  H12T 8096   4.001   6.786   7.910 -0.2394  0.4214  1.6730
   6323SM  C13S 8097   4.187   6.695   7.831 -0.7027  0.0560  0.4738
   6323SM  H13S 8098   4.210   6.609   7.897  0.6482  0.4345  0.5354
   6323SM  H13T 8099   4.285   6.743   7.807 -0.1812 -0.2342  1.9591
   6323SM  C14S 8100   4.110   6.670   7.700 -0.0059  0.2483 -0.0434
   6323SM  H14S 8101   4.117   6.760   7.635  1.2981 -0.2609 -0.6540
   6323SM  H14T 8102   4.003   6.651   7.723  0.6951 -0.0003  3.5748
   6323SM  C15S 8103   4.159   6.544   7.627 -0.6037 -0.6414  0.1476
   6323SM  H15S 8104   4.117   6.460   7.687 -0.3695 -2.3311 -1.9487
   6323SM  H15T 8105   4.270   6.538   7.630 -0.4992  1.1536  1.9838
   6323SM  C16S 8106   4.119   6.529   7.477  0.1737 -0.1823 -0.7545
   6323SM  H16S 8107   4.192   6.580   7.411 -0.4039  0.7037 -0.7150
   6323SM  H16T 8108   4.021   6.580   7.467 -1.0367 -2.1030  0.5327
   6323SM  C17S 8109   4.092   6.381   7.444  0.0348 -0.0102 -1.1241
   6323SM  H17S 8110   4.012   6.349   7.514  0.3899 -0.2718 -0.8327
   6323SM  H17T 8111   4.182   6.319   7.465  1.4157  1.9901 -0.7811
   6323SM  C18S 8112   4.055   6.367   7.301 -0.3552  0.7098 -0.1861
   6323SM  H18S 8113   4.143   6.400   7.242  0.8420  0.3407  1.3416
   6323SM  H18T 8114   3.971   6.439   7.284 -2.1318 -0.9472  1.1460
   6323SM  H18U 8115   4.005   6.272   7.274 -1.7887  0.8897  1.6367
   6323SM   C1F 8116   4.532   6.573   8.907 -0.5319 -0.8666 -0.1532
   6323SM    OF 8117   4.535   6.454   8.923  0.2760 -0.7583  0.1360
   6323SM   C2F 8118   4.655   6.649   8.875 -0.5337 -0.5531 -0.0353
   6323SM   H2F 8119   4.740   6.577   8.888  0.7229  1.1351  1.6921
   6323SM   H2G 8120   4.670   6.735   8.943 -1.5195 -0.9075  0.6427
   6323SM   C3F 8121   4.661   6.692   8.726 -0.5084  0.2325 -0.4144
   6323SM   H3F 8122   4.638   6.607   8.658 -1.5527  0.1605  0.0018
   6323SM   H3G 8123   4.764   6.726   8.701  1.8420 -3.7723  2.6775
   6323SM   C4F 8124   4.561   6.799   8.690  0.6258 -0.1016  0.0693
   6323SM   H4F 8125   4.578   6.866   8.777  0.7325  0.0327 -0.0568
   6323SM   H4G 8126   4.458   6.758   8.703  1.5380 -2.6481 -0.0787
   6323SM   C5F 8127   4.572   6.863   8.552 -0.0419  0.2012  0.1396
   6323SM   H5F 8128   4.670   6.917   8.552  0.9711 -1.5480  0.1586
   6323SM   H5G 8129   4.498   6.945   8.552  0.7071  0.9612 -2.2153
   6323SM   C6F 8130   4.552   6.773   8.437  0.1429  0.5676 -0.6029
   6323SM   H6F 8131   4.445   6.743   8.437  0.1504  0.4709  0.8073
   6323SM   H6G 8132   4.615   6.681   8.445 -0.6420  0.2037  2.3942
   6323SM   C7F 8133   4.589   6.848   8.310 -0.0774  0.0841 -0.0343
   6323SM   H7F 8134   4.699   6.861   8.315 -0.3513  2.8772  0.3718
   6323SM   H7G 8135   4.552   6.952   8.315 -0.5502 -0.0092 -1.3843
   6323SM   C8F 8136   4.535   6.774   8.184  0.1800 -1.1603  0.3357
   6323SM   H8F 8137   4.425   6.786   8.176  0.1164 -1.4602  0.7295
   6323SM   H8G 8138   4.561   6.666   8.194 -1.7779 -1.9055 -1.7521
   6323SM   C9F 8139   4.598   6.836   8.056 -0.0847 -0.3493  0.2634
   6323SM   H9F 8140   4.708   6.845   8.069  0.2391  1.9445 -2.8232
   6323SM   H9G 8141   4.556   6.938   8.040 -1.4210 -0.9096  0.0350
   6323SM  C10F 8142   4.562   6.738   7.946 -0.3930  0.6503  0.1981
   6323SM  H10F 8143   4.451   6.739   7.934 -0.2712  0.8781 -1.0658
   6323SM  H10G 8144   4.592   6.639   7.984 -1.4338  0.6188  1.0004
   6323SM  C11F 8145   4.626   6.776   7.815 -0.1709 -0.2156  0.1557
   6323SM  H11F 8146   4.736   6.775   7.829 -0.0051 -1.1866 -1.0123
   6323SM  H11G 8147   4.597   6.881   7.792  0.3376  0.3841  2.1267
   6323SM  C12F 8148   4.583   6.676   7.704  0.7459 -0.1280 -0.5452
   6323SM  H12F 8149   4.474   6.653   7.697  0.2128  0.7836  2.7601
   6323SM  H12G 8150   4.631   6.580   7.735 -0.4817 -0.4478  0.4975
   6323SM  C13F 8151   4.653   6.715   7.577  0.7713  0.8085  0.2923
   6323SM  H13F 8152   4.757   6.748   7.598  1.4129 -0.1764 -1.1762
   6323SM  H13G 8153   4.599   6.807   7.547 -1.0868 -0.1895  0.4391
   6323SM  C14F 8154   4.639   6.607   7.473 -0.7383 -0.4731  0.2772
   6323SM  H14F 8155   4.534   6.572   7.464 -0.7491 -0.1324 -1.2620
   6323SM  H14G 8156   4.718   6.530   7.479 -1.1470 -0.9422 -0.1697
   6323SM  C15F 8157   4.662   6.668   7.323 -0.1014  0.0878  0.2167
   6323SM  H15F 8158   4.767   6.704   7.315  0.9201 -2.9999 -2.4483
   6323SM  H15G 8159   4.582   6.745   7.313  0.2204  0.2593 -1.3456
   6323SM  C16F 8160   4.653   6.573   7.212  0.2727  0.4381  0.5679
   6323SM  H16F 8161   4.545   6.560   7.185  0.3475 -1.1703  0.9211
   6323SM  H16G 8162   4.698   6.474   7.235 -3.6102 -1.5104  0.6537
   6323SM  C17F 8163   4.711   6.625   7.078 -0.8453  0.4156 -0.6774
   6323SM  H17F 8164   4.708   6.537   7.010  2.0921  0.8814 -1.5832
   6323SM  H17G 8165   4.818   6.652   7.096 -0.6283 -0.2986 -0.8643
   6323SM  C18F 8166   4.650   6.744   7.014 -0.0201  0.1241 -0.1319
   6323SM  H18F 8167   4.632   6.816   7.096 -1.7445 -1.9767  1.4238
   6323SM  H18G 8168   4.548   6.723   6.976 -0.7581  0.4807  1.5816
   6323SM  C19F 8169   4.748   6.815   6.907  0.1966 -0.9328 -0.8201
   6323SM  H19F 8170   4.683   6.886   6.852 -1.5051  0.1227  2.3009
   6323SM  H19G 8171   4.771   6.731   6.837 -2.4998 -1.9143 -0.6761
   6323SM  C20F 8172   4.864   6.893   6.971  0.3558  0.7816  0.4705
   6323SM  H20F 8173   4.932   6.825   7.026  0.5680  1.4386  1.0326
   6323SM  H20G 8174   4.823   6.967   7.043 -0.6588  1.0086 -0.3114
   6323SM  C21F 8175   4.951   6.964   6.868  0.2869  1.1362  0.2495
   6323SM  H21F 8176   4.875   7.019   6.807  0.7685  1.1610 -0.3379
   6323SM  H21G 8177   4.979   6.879   6.803  1.3346  0.6325  1.3277
   6323SM  C22F 8178   5.067   7.042   6.915 -0.5947 -0.5153  0.0098
   6323SM  H22F 8179   5.129   6.989   6.990  2.3386  0.2710 -1.6858
   6323SM  H22G 8180   5.025   7.126   6.974 -0.3584 -0.2522 -0.1920
   6323SM  C23F 8181   5.143   7.103   6.798  0.5234  0.7029  0.0940
   6323SM  H23F 8182   5.225   7.174   6.824  1.4402 -0.0272 -0.7239
   6323SM  H23G 8183   5.060   7.154   6.743  0.0531 -0.5006 -0.3496
   6323SM  H23H 8184   5.175   7.024   6.727 -1.4586  1.5525 -1.8799
   6423SM     N 8185   0.100   6.390   9.666  0.8960 -0.0998  0.2481
   6423SM   C15 8186   0.213   6.474   9.717 -0.1962 -0.0020  0.0190
   6423SM  H15A 8187   0.180   6.576   9.706 -1.3791 -0.2687  0.8722
   6423SM  H15B 8188   0.302   6.447   9.662 -0.6776 -2.1227  0.1730
   6423SM  H15C 8189   0.239   6.453   9.819  2.5041  2.3501 -0.0759
   6423SM   C14 8190   0.125   6.240   9.662  0.0798 -0.7945 -0.6931
   6423SM  H14A 8191   0.229   6.213   9.648  0.2454 -0.9516  0.6940
   6423SM  H14B 8192   0.085   6.183   9.580  1.2705 -1.5013 -0.8019
   6423SM  H14C 8193   0.083   6.198   9.753 -0.9333  2.5357  0.5396
   6423SM   C13 8194  -0.019   6.412   9.748 -0.5470 -0.5283  0.0575
   6423SM  H13A 8195   0.001   6.377   9.848  1.3614  1.2748  0.3804
   6423SM  H13B 8196  -0.105   6.361   9.708 -1.0996  0.7683 -0.4785
   6423SM  H13C 8197  -0.039   6.518   9.754 -2.1520 -0.7336 -1.0712
   6423SM   C12 8198   0.079   6.433   9.523 -0.4951  0.1106 -0.3630
   6423SM  H12A 8199   0.057   6.539   9.526 -0.6987  0.0894 -1.0127
   6423SM  H12B 8200  -0.011   6.389   9.482 -0.6146  0.8074 -0.8599
   6423SM   C11 8201   0.191   6.403   9.417  0.5685 -0.4044  0.1926
   6423SM  H11A 8202   0.160   6.438   9.317  0.5073  1.3964  0.8037
   6423SM  H11B 8203   0.210   6.294   9.408 -2.0756 -0.8547 -1.0254
   6423SM     P 8204   0.397   6.543   9.360  0.1007 -0.2850 -0.1644
   6423SM   O13 8205   0.321   6.668   9.323  0.1522 -0.1802 -0.6254
   6423SM   O14 8206   0.536   6.567   9.411 -0.6789  0.6391  0.3573
   6423SM   O11 8207   0.407   6.454   9.228  0.1120  0.3614  0.1221
   6423SM   O12 8208   0.316   6.455   9.457  0.1397 -0.2262 -0.2235
   6423SM   C1S 8209   0.457   6.512   9.105  0.0222  0.1615 -0.0997
   6423SM   H1S 8210   0.561   6.545   9.128 -0.5484  2.1488 -0.1100
   6423SM   H1T 8211   0.402   6.607   9.085  1.7625  1.3118  0.2649
   6423SM    NF 8212   0.502   6.510   8.860  0.3158 -0.6758  0.1651
   6423SM   HNF 8213   0.427   6.521   8.794 -1.7030 -2.1069  2.0731
   6423SM   C2S 8214   0.457   6.429   8.974 -0.2839  0.2622  1.0082
   6423SM   H2S 8215   0.536   6.353   8.992  0.2956  0.7617  0.6152
   6423SM   C3S 8216   0.314   6.359   8.960 -0.1451 -0.2932 -0.1169
   6423SM   H3S 8217   0.243   6.443   8.944 -0.1275 -0.1104  0.6844
   6423SM    O3 8218   0.260   6.303   9.079 -0.1430  0.4178 -0.4234
   6423SM   HO3 8219   0.322   6.334   9.146  0.0083 -3.1226  1.3209
   6423SM   C4S 8220   0.308   6.261   8.848 -0.3168 -0.1239 -0.4760
   6423SM   H4S 8221   0.337   6.312   8.755 -0.9215 -1.1986 -1.2683
   6423SM   C5S 8222   0.286   6.123   8.850  0.2183  0.0766 -0.1575
   6423SM   H5S 8223   0.256   6.070   8.942 -0.3329 -0.4593 -0.6423
   6423SM   C6S 8224   0.296   6.034   8.726  0.1398  0.0768  0.2423
   6423SM   H6S 8225   0.205   5.971   8.715 -0.6701  1.0744  0.9656
   6423SM   H6T 8226   0.379   5.962   8.743  1.5274  1.4177 -0.6199
   6423SM   C7S 8227   0.321   6.106   8.590  0.1353  0.0361  0.4666
   6423SM   H7S 8228   0.420   6.155   8.599 -0.2569  0.8364  0.5379
   6423SM   H7T 8229   0.245   6.185   8.576  1.7324  1.1751 -2.4991
   6423SM   C8S 8230   0.323   6.006   8.473  0.0438 -0.1114 -0.3000
   6423SM   H8S 8231   0.227   5.951   8.481 -0.5391  1.1406  2.2781
   6423SM   H8T 8232   0.409   5.935   8.478  1.3642  1.4200 -0.3534
   6423SM   C9S 8233   0.331   6.070   8.337 -0.3110  0.0196 -0.2526
   6423SM   H9S 8234   0.428   6.123   8.326  0.1135 -0.2889  1.6345
   6423SM   H9T 8235   0.250   6.146   8.330  1.2369  1.5721 -2.6684
   6423SM  C10S 8236   0.325   5.984   8.211  0.4097  1.1927 -0.2363
   6423SM  H10S 8237   0.217   5.954   8.208  0.5470 -0.0023  3.0078
   6423SM  H10T 8238   0.386   5.894   8.233 -1.8917 -0.7298 -1.2163
   6423SM  C11S 8239   0.351   6.065   8.082 -0.0857 -0.2306 -0.7553
   6423SM  H11S 8240   0.452   6.111   8.082  0.4734 -0.9428  4.1174
   6423SM  H11T 8241   0.285   6.153   8.095  0.3082  0.0609 -0.7408
   6423SM  C12S 8242   0.314   5.994   7.953 -0.6404  0.5439  0.2998
   6423SM  H12S 8243   0.219   5.941   7.975 -0.2305  0.2831  1.5043
   6423SM  H12T 8244   0.387   5.916   7.922  0.5417  1.2065  1.3574
   6423SM  C13S 8245   0.293   6.088   7.834 -0.6903 -0.3551  0.5104
   6423SM  H13S 8246   0.386   6.143   7.808  0.5505 -1.8585  1.5643
   6423SM  H13T 8247   0.224   6.172   7.856 -1.0908 -0.2765 -0.9534
   6423SM  C14S 8248   0.228   6.021   7.718 -0.0550  0.6730  0.4983
   6423SM  H14S 8249   0.118   6.020   7.735 -0.6671  0.9473 -2.8113
   6423SM  H14T 8250   0.266   5.917   7.712 -0.4462  0.3870  2.2636
   6423SM  C15S 8251   0.252   6.096   7.583  0.0174  0.2375  0.0764
   6423SM  H15S 8252   0.354   6.073   7.544  1.0577  3.1224  0.8667
   6423SM  H15T 8253   0.241   6.205   7.597  2.9915  0.4466  1.6880
   6423SM  C16S 8254   0.156   6.037   7.490 -0.1477  0.1384 -0.4000
   6423SM  H16S 8255   0.057   6.062   7.533  0.3998  0.9016  0.4678
   6423SM  H16T 8256   0.169   5.927   7.500  1.4338  0.1724 -1.7492
   6423SM  C17S 8257   0.165   6.092   7.344  0.7409  0.2337 -0.2790
   6423SM  H17S 8258   0.272   6.106   7.317  1.4759 -0.5453  2.0494
   6423SM  H17T 8259   0.112   6.190   7.347 -0.1300 -0.2070 -0.8705
   6423SM  C18S 8260   0.099   5.997   7.248 -0.2464 -0.5018 -0.2979
   6423SM  H18S 8261   0.173   5.919   7.220  0.5711 -0.5579  1.8781
   6423SM  H18T 8262   0.063   6.046   7.154 -1.3013  0.3226  0.5061
   6423SM  H18U 8263   0.010   5.952   7.299 -0.2848  1.4384  1.4567
   6423SM   C1F 8264   0.626   6.557   8.856  0.0986 -0.2448  0.7325
   6423SM    OF 8265   0.722   6.496   8.901 -0.1117  0.1794 -0.6302
   6423SM   C2F 8266   0.646   6.676   8.766  0.1242  0.0541 -0.5080
   6423SM   H2F 8267   0.669   6.759   8.837  0.0513 -0.8469  0.5854
   6423SM   H2G 8268   0.552   6.702   8.713  0.9894  2.1737 -1.1214
   6423SM   C3F 8269   0.760   6.659   8.668  0.0971  0.2656 -0.2615
   6423SM   H3F 8270   0.743   6.567   8.608  0.6560  0.7099 -1.1203
   6423SM   H3G 8271   0.861   6.641   8.712  0.0404  1.7635  0.5487
   6423SM   C4F 8272   0.773   6.787   8.589  0.6261 -1.1650  0.9159
   6423SM   H4F 8273   0.837   6.852   8.653  1.1211 -1.6938  0.9651
   6423SM   H4G 8274   0.675   6.833   8.565  1.1571 -1.4764 -2.4097
   6423SM   C5F 8275   0.842   6.775   8.455  0.6793  0.1085  0.0458
   6423SM   H5F 8276   0.917   6.693   8.449 -0.3104 -0.7573 -0.7930
   6423SM   H5G 8277   0.895   6.871   8.434 -2.2258  2.0856  1.1562
   6423SM   C6F 8278   0.754   6.766   8.336 -0.2660  0.0214  0.2027
   6423SM   H6F 8279   0.687   6.853   8.327 -1.1090 -0.7397 -1.2786
   6423SM   H6G 8280   0.689   6.678   8.357  2.5138 -1.9874  1.1234
   6423SM   C7F 8281   0.833   6.757   8.203 -0.0539 -0.0108 -0.3267
   6423SM   H7F 8282   0.886   6.660   8.197 -0.7620 -0.4880  0.7935
   6423SM   H7G 8283   0.904   6.843   8.201  1.5004 -1.2094  0.6689
   6423SM   C8F 8284   0.733   6.785   8.089 -0.2739  0.5483 -0.3450
   6423SM   H8F 8285   0.663   6.869   8.111 -0.3857  0.1845  0.7441
   6423SM   H8G 8286   0.671   6.693   8.091  1.9787 -1.0210  1.4087
   6423SM   C9F 8287   0.813   6.795   7.962 -0.3908 -0.2622  0.7089
   6423SM   H9F 8288   0.900   6.727   7.968  0.5032  0.8130  0.2453
   6423SM   H9G 8289   0.853   6.898   7.946 -1.6922 -0.1400 -2.4617
   6423SM  C10F 8290   0.736   6.762   7.832 -0.4457 -0.6987 -0.4784
   6423SM  H10F 8291   0.653   6.835   7.820  0.2476  0.2556  0.3966
   6423SM  H10G 8292   0.679   6.666   7.826 -3.3123  0.9331 -1.1518
   6423SM  C11F 8293   0.832   6.767   7.709  0.3054  0.6208  0.9800
   6423SM  H11F 8294   0.913   6.693   7.724  0.0184  0.0223 -0.3364
   6423SM  H11G 8295   0.880   6.867   7.702  0.2201  0.5680 -0.4866
   6423SM  C12F 8296   0.749   6.747   7.578 -0.2094  0.8768  0.7570
   6423SM  H12F 8297   0.673   6.827   7.574 -1.5872 -0.2278  2.8072
   6423SM  H12G 8298   0.693   6.651   7.581 -0.0851  0.7755  0.0462
   6423SM  C13F 8299   0.843   6.757   7.457  0.4778  0.5307 -0.5241
   6423SM  H13F 8300   0.926   6.686   7.480 -2.6732 -3.0865  0.7838
   6423SM  H13G 8301   0.887   6.858   7.444 -0.3249  0.9209 -0.2703
   6423SM  C14F 8302   0.785   6.708   7.326 -0.2729  0.4752  0.1148
   6423SM  H14F 8303   0.762   6.599   7.330 -2.1657  0.8602  0.3584
   6423SM  H14G 8304   0.857   6.726   7.244 -1.1957  2.1995 -0.3602
   6423SM  C15F 8305   0.656   6.772   7.280 -0.3599  0.6799 -0.8037
   6423SM  H15F 8306   0.652   6.882   7.293  2.0055  0.6242  1.1670
   6423SM  H15G 8307   0.585   6.719   7.347  0.7569  0.9671  0.6481
   6423SM  C16F 8308   0.623   6.729   7.138 -0.1985  0.3447 -0.1842
   6423SM  H16F 8309   0.571   6.631   7.135  0.6312 -0.4607  4.3284
   6423SM  H16G 8310   0.719   6.713   7.084 -1.5819 -1.3733 -2.2953
   6423SM  C17F 8311   0.536   6.838   7.071  0.1670  0.2200  0.3915
   6423SM  H17F 8312   0.582   6.940   7.078 -0.3285  0.3916  1.3831
   6423SM  H17G 8313   0.442   6.853   7.128 -0.7742 -3.7561  0.1507
   6423SM  C18F 8314   0.498   6.812   6.921  0.4277 -0.8878 -0.2081
   6423SM  H18F 8315   0.462   6.711   6.894 -0.4495  0.1402 -3.3953
   6423SM  H18G 8316   0.593   6.823   6.864 -0.2974 -1.4145 -1.5677
   6423SM  C19F 8317   0.413   6.929   6.869 -0.1249  0.5208 -0.7777
   6423SM  H19F 8318   0.474   7.018   6.898  0.4594  0.0003 -0.3824
   6423SM  H19G 8319   0.312   6.935   6.914 -0.8735  1.2553 -2.4618
   6423SM  C20F 8320   0.394   6.940   6.719 -0.4558  0.8455  0.1819
   6423SM  H20F 8321   0.366   6.842   6.674 -0.8610  1.5487 -1.1553
   6423SM  H20G 8322   0.485   6.974   6.664 -1.9193 -0.9173 -3.6752
   6423SM  C21F 8323   0.275   7.024   6.682 -0.1215 -0.1931  1.2011
   6423SM  H21F 8324   0.183   6.987   6.732 -1.0252 -0.1414 -0.3346
   6423SM  H21G 8325   0.256   7.011   6.573  1.2531  3.2650  0.4258
   6423SM  C22F 8326   0.290   7.172   6.712 -0.5793  0.3585  0.0920
   6423SM  H22F 8327   0.390   7.208   6.682 -0.2403  0.1941  0.9935
   6423SM  H22G 8328   0.281   7.178   6.823  0.6453  0.3861  0.2074
   6423SM  C23F 8329   0.192   7.275   6.660 -0.3110 -0.2867  0.1899
   6423SM  H23F 8330   0.202   7.379   6.698  0.0438  0.0904 -0.9118
   6423SM  H23G 8331   0.086   7.256   6.688 -0.0953  0.3434  1.4827
   6423SM  H23H 8332   0.190   7.288   6.550  0.1120 -0.0852  0.2052
   6523SM     N 8333   6.220   1.780   9.619 -0.0529 -0.5352 -0.0397
   6523SM   C15 8334   6.369   1.757   9.603  0.5068 -0.0739  0.7119
   6523SM  H15A 8335   6.416   1.708   9.687  1.9021  0.2631  0.1533
   6523SM  H15B 8336   6.415   1.854   9.590 -1.2757  0.6120 -1.1591
   6523SM  H15C 8337   6.385   1.712   9.506  0.4719  0.9622  0.2069
   6523SM   C14 8338   6.193   1.794   9.763  0.3678  0.1041 -0.1641
   6523SM  H14A 8339   6.235   1.882   9.810 -3.3319  0.7669  2.4202
   6523SM  H14B 8340   6.228   1.708   9.817 -0.4214 -0.7369 -0.9586
   6523SM  H14C 8341   6.087   1.798   9.784  0.1744 -0.7662 -0.9253
   6523SM   C13 8342   6.192   1.908   9.547 -0.3521 -0.0589 -0.6714
   6523SM  H13A 8343   6.093   1.943   9.574  0.4061  0.9761  0.9239
   6523SM  H13B 8344   6.188   1.887   9.441  1.2069 -0.6086 -0.6434
   6523SM  H13C 8345   6.267   1.984   9.565 -0.7651 -0.0318  1.1234
   6523SM   C12 8346   6.136   1.666   9.557 -0.9716  0.1972 -0.0857
   6523SM  H12A 8347   6.032   1.692   9.570 -0.9768  0.9889 -1.5355
   6523SM  H12B 8348   6.151   1.566   9.594 -1.3851 -0.5412 -1.8313
   6523SM   C11 8349   6.140   1.654   9.405  0.5841 -0.4919  0.0279
   6523SM  H11A 8350   6.151   1.548   9.374 -0.3347 -0.4052 -0.6373
   6523SM  H11B 8351   6.221   1.715   9.361  0.1449 -0.2010 -0.3869
   6523SM     P 8352   5.992   1.805   9.245  0.6616 -0.1200  0.3012
   6523SM   O13 8353   5.873   1.880   9.286  0.0193 -0.4662 -0.1758
   6523SM   O14 8354   6.110   1.888   9.214 -0.0652  0.6820 -0.0915
   6523SM   O11 8355   5.961   1.735   9.103 -0.5465 -0.4603  0.0597
   6523SM   O12 8356   6.017   1.690   9.344 -0.1257  0.1370 -0.1050
   6523SM   C1S 8357   5.986   1.594   9.086  0.4278  0.3928 -0.1139
   6523SM   H1S 8358   5.921   1.537   9.155  0.6821  1.5405  1.1012
   6523SM   H1T 8359   6.091   1.571   9.113  0.4437 -0.1242 -0.5872
   6523SM    NF 8360   5.930   1.416   8.920  0.1127  0.2132  1.0070
   6523SM   HNF 8361   5.998   1.358   8.876 -1.1075 -1.9625  1.8046
   6523SM   C2S 8362   5.947   1.550   8.945 -0.9256  0.0326  1.0208
   6523SM   H2S 8363   5.851   1.602   8.924 -0.8919  0.2673  1.4399
   6523SM   C3S 8364   6.058   1.613   8.841  0.2903  0.3257 -0.3441
   6523SM   H3S 8365   6.159   1.570   8.860  0.2200  0.7788  1.2955
   6523SM    O3 8366   6.076   1.753   8.864  0.0794  0.6539  0.0837
   6523SM   HO3 8367   6.017   1.773   8.937  0.7225  2.2773  0.2108
   6523SM   C4S 8368   6.028   1.576   8.695  1.2372 -0.1028  0.1485
   6523SM   H4S 8369   6.094   1.500   8.650 -0.1079 -2.6084  2.1248
   6523SM   C5S 8370   5.936   1.636   8.613  0.5608  0.4339 -0.8038
   6523SM   H5S 8371   5.869   1.712   8.654  0.0427  0.4682 -1.6795
   6523SM   C6S 8372   5.918   1.609   8.467 -0.8770  0.5011 -0.4345
   6523SM   H6S 8373   5.952   1.702   8.417  0.3058  0.8372  0.9414
   6523SM   H6T 8374   5.812   1.604   8.432 -1.3092  0.1024  0.8680
   6523SM   C7S 8375   5.997   1.490   8.412  0.0759  0.3460 -1.0776
   6523SM   H7S 8376   5.968   1.403   8.476 -0.4568  0.9695 -0.4476
   6523SM   H7T 8377   6.107   1.495   8.406  0.3724 -1.1899  1.4553
   6523SM   C8S 8378   5.968   1.449   8.264  0.5404  0.3439  0.1982
   6523SM   H8S 8379   5.861   1.469   8.242  0.8425  0.0474 -1.6295
   6523SM   H8T 8380   5.974   1.339   8.255 -4.0918 -0.3333  2.6122
   6523SM   C9S 8381   6.055   1.523   8.157 -0.4105  0.0013 -0.3646
   6523SM   H9S 8382   6.161   1.492   8.170  0.4150  2.0052 -1.8654
   6523SM   H9T 8383   6.046   1.631   8.178  1.4830  0.4768 -1.7221
   6523SM  C10S 8384   6.021   1.498   8.015 -0.0759  1.1367 -0.0758
   6523SM  H10S 8385   6.082   1.563   7.950  0.5231  1.9309  1.2453
   6523SM  H10T 8386   5.914   1.511   7.985 -0.4003 -0.4915  0.2682
   6523SM  C11S 8387   6.050   1.343   7.989  0.0890 -0.0637 -0.3953
   6523SM  H11S 8388   5.974   1.280   8.040 -0.0858 -0.1648 -0.7748
   6523SM  H11T 8389   6.146   1.320   8.041 -0.5237 -1.1123  0.3061
   6523SM  C12S 8390   6.076   1.307   7.840 -0.4258 -0.4774 -0.0334
   6523SM  H12S 8391   6.092   1.199   7.820 -3.3444 -0.8082 -0.9043
   6523SM  H12T 8392   6.162   1.370   7.808  0.4346 -0.6405  1.8144
   6523SM  C13S 8393   5.943   1.354   7.763 -0.6066  0.6989  0.3401
   6523SM  H13S 8394   5.918   1.463   7.762 -0.6222  0.7131  1.1314
   6523SM  H13T 8395   5.857   1.309   7.818  0.6679 -2.0398  0.2320
   6523SM  C14S 8396   5.930   1.314   7.613 -0.3657  0.1936 -0.0854
   6523SM  H14S 8397   5.922   1.204   7.604 -0.5107  0.0284  1.7030
   6523SM  H14T 8398   6.020   1.357   7.565  0.0307  0.5522  0.9420
   6523SM  C15S 8399   5.811   1.374   7.544  0.3512  0.4329 -0.3395
   6523SM  H15S 8400   5.797   1.483   7.557  0.7910  0.7847 -2.5214
   6523SM  H15T 8401   5.722   1.314   7.575  1.8429 -2.6249 -1.5492
   6523SM  C16S 8402   5.824   1.357   7.387 -0.8103 -0.3071 -0.4940
   6523SM  H16S 8403   5.925   1.393   7.358  0.4630 -2.8173  0.5816
   6523SM  H16T 8404   5.751   1.417   7.327 -0.5483 -0.3996 -0.9083
   6523SM  C17S 8405   5.812   1.216   7.343  0.6512  0.4207  0.2995
   6523SM  H17S 8406   5.713   1.172   7.367  1.0369 -1.6683 -1.5887
   6523SM  H17T 8407   5.885   1.150   7.395 -0.0316 -1.3836 -0.9283
   6523SM  C18S 8408   5.855   1.198   7.195 -0.0649  0.6361  0.6584
   6523SM  H18S 8409   5.942   1.263   7.172 -0.7631  0.9037 -1.4543
   6523SM  H18T 8410   5.766   1.218   7.131  1.0443 -1.2268 -1.6123
   6523SM  H18U 8411   5.890   1.099   7.160  3.5135  1.7093  0.7951
   6523SM   C1F 8412   5.826   1.360   8.971 -0.0995  1.0364  0.4145
   6523SM    OF 8413   5.738   1.411   9.035  0.3057  0.3217  0.4052
   6523SM   C2F 8414   5.817   1.208   8.952 -0.1654  0.6405 -0.2208
   6523SM   H2F 8415   5.872   1.171   9.041 -1.0520  0.0909  0.1169
   6523SM   H2G 8416   5.884   1.183   8.867 -1.1135 -2.4491 -0.1731
   6523SM   C3F 8417   5.669   1.156   8.935 -0.4023 -0.6330  0.3976
   6523SM   H3F 8418   5.612   1.208   9.014  3.1771  2.1854  1.4208
   6523SM   H3G 8419   5.685   1.047   8.955  1.3507 -0.6751 -0.9995
   6523SM   C4F 8420   5.609   1.157   8.790  0.5326  0.4937 -0.3551
   6523SM   H4F 8421   5.499   1.140   8.796  0.3886  0.4251 -2.5108
   6523SM   H4G 8422   5.659   1.070   8.744 -1.3783 -1.1823  0.5961
   6523SM   C5F 8423   5.633   1.278   8.703  0.1860 -0.9152  0.5457
   6523SM   H5F 8424   5.743   1.291   8.699  0.0849  0.0871  0.7169
   6523SM   H5G 8425   5.591   1.365   8.758  1.5632  1.0529 -1.3474
   6523SM   C6F 8426   5.570   1.274   8.562 -0.2650  0.3254 -0.1230
   6523SM   H6F 8427   5.596   1.368   8.510 -0.4721  0.5685  0.2059
   6523SM   H6G 8428   5.461   1.251   8.567 -0.2353  0.2923  0.5749
   6523SM   C7F 8429   5.634   1.171   8.462  0.3696 -0.1106 -0.5130
   6523SM   H7F 8430   5.578   1.076   8.472 -0.6327  0.5215 -0.0127
   6523SM   H7G 8431   5.737   1.162   8.503  0.5835 -0.1346 -1.0418
   6523SM   C8F 8432   5.632   1.220   8.319 -0.0323  0.1818 -0.3563
   6523SM   H8F 8433   5.692   1.314   8.315 -0.6521  0.5630 -0.8134
   6523SM   H8G 8434   5.530   1.251   8.289 -0.5346  0.1071  1.2025
   6523SM   C9F 8435   5.681   1.123   8.209  0.1020 -0.3350 -0.1002
   6523SM   H9F 8436   5.618   1.032   8.225 -0.1244 -0.3761 -1.1705
   6523SM   H9G 8437   5.788   1.097   8.217  0.3375  1.0574  2.2923
   6523SM  C10F 8438   5.652   1.183   8.066 -0.3155 -0.5307 -0.4246
   6523SM  H10F 8439   5.727   1.263   8.049 -1.2514  0.2095 -1.1102
   6523SM  H10G 8440   5.549   1.225   8.066  1.1462  3.5389  1.0506
   6523SM  C11F 8441   5.666   1.069   7.963 -0.2546 -0.4176 -0.5391
   6523SM  H11F 8442   5.605   0.984   8.001  0.1773  0.3494  2.0731
   6523SM  H11G 8443   5.771   1.034   7.967 -0.5834 -1.3846  0.4292
   6523SM  C12F 8444   5.626   1.092   7.817 -0.5839 -1.0134 -0.1745
   6523SM  H12F 8445   5.666   1.180   7.764 -2.1064 -0.8022 -1.0517
   6523SM  H12G 8446   5.518   1.118   7.825 -0.1100  0.6683  1.1585
   6523SM  C13F 8447   5.649   0.960   7.734  0.5420  0.1276 -0.4245
   6523SM  H13F 8448   5.583   0.876   7.763 -0.8542  1.5143  0.5958
   6523SM  H13G 8449   5.759   0.949   7.745  0.4703 -0.4226 -0.2500
   6523SM  C14F 8450   5.620   0.977   7.584  0.4572  0.2172  0.5733
   6523SM  H14F 8451   5.694   1.053   7.551  2.6107 -2.2341 -0.6046
   6523SM  H14G 8452   5.514   1.013   7.578  0.6049  0.5360 -0.3543
   6523SM  C15F 8453   5.639   0.855   7.486  0.5611  0.2426 -0.5245
   6523SM  H15F 8454   5.571   0.772   7.515  0.7218  1.0153  2.4090
   6523SM  H15G 8455   5.741   0.814   7.500  1.2856  1.7439 -1.2229
   6523SM  C16F 8456   5.628   0.889   7.342 -0.3677 -0.0389  0.3234
   6523SM  H16F 8457   5.711   0.959   7.316 -0.0945 -0.5007 -0.0657
   6523SM  H16G 8458   5.533   0.946   7.332 -0.7017 -0.7920 -1.0039
   6523SM  C17F 8459   5.617   0.762   7.269 -0.5814  0.4350  0.2172
   6523SM  H17F 8460   5.533   0.710   7.320  0.1554  1.1845  2.2939
   6523SM  H17G 8461   5.716   0.712   7.283 -0.3368  0.1310 -2.2026
   6523SM  C18F 8462   5.603   0.782   7.115 -0.4458 -0.5024  0.2902
   6523SM  H18F 8463   5.690   0.842   7.079 -0.2776 -0.7527  0.2816
   6523SM  H18G 8464   5.508   0.836   7.094  0.6885  1.1564 -0.8254
   6523SM  C19F 8465   5.601   0.650   7.024 -0.6513  0.3575 -0.1045
   6523SM  H19F 8466   5.517   0.586   7.057 -0.6000 -0.1722 -0.9529
   6523SM  H19G 8467   5.696   0.593   7.032  0.4028  1.6624 -2.2682
   6523SM  C20F 8468   5.557   0.700   6.883 -0.5203 -1.2434  0.0353
   6523SM  H20F 8469   5.632   0.774   6.849  1.4367 -0.5043  5.0930
   6523SM  H20G 8470   5.463   0.760   6.883 -0.2712 -0.6887 -3.0538
   6523SM  C21F 8471   5.533   0.578   6.802 -0.0702  0.5410  0.0503
   6523SM  H21F 8472   5.448   0.527   6.853  1.4078  1.5640  3.8671
   6523SM  H21G 8473   5.621   0.511   6.810 -0.9010 -0.7313 -0.8940
   6523SM  C22F 8474   5.492   0.597   6.652  0.3084 -0.0797  0.3934
   6523SM  H22F 8475   5.572   0.655   6.601 -0.4276  1.4481  0.9113
   6523SM  H22G 8476   5.396   0.652   6.646  0.2661 -0.1107  0.7795
   6523SM  C23F 8477   5.476   0.461   6.582  0.6951  0.8697  0.6700
   6523SM  H23F 8478   5.430   0.385   6.649  1.0169  0.3438  0.2974
   6523SM  H23G 8479   5.569   0.423   6.535 -1.1918 -0.1363 -2.5851
   6523SM  H23H 8480   5.399   0.460   6.502 -0.2244 -1.5729  1.4678
   6623SM     N 8481   4.233   3.778   8.940  0.6490 -0.1347 -0.4209
   6623SM   C15 8482   4.189   3.924   8.970  0.5487 -0.3405  0.1186
   6623SM  H15A 8483   4.086   3.926   9.001 -0.3608 -0.4238 -2.6109
   6623SM  H15B 8484   4.196   3.988   8.884 -0.4555  0.3474  0.5346
   6623SM  H15C 8485   4.248   3.973   9.046 -1.2855  0.0960  1.3298
   6623SM   C14 8486   4.364   3.798   8.872 -0.1009  0.4377  0.1068
   6623SM  H14A 8487   4.435   3.867   8.916  0.9456 -0.6678  0.2078
   6623SM  H14B 8488   4.362   3.829   8.768  1.5783 -1.0935 -0.4384
   6623SM  H14C 8489   4.421   3.707   8.863 -1.0588 -0.2829  1.0649
   6623SM   C13 8490   4.250   3.715   9.069 -0.4261 -0.3753  0.2154
   6623SM  H13A 8491   4.295   3.782   9.140 -0.4676 -0.1825  0.0585
   6623SM  H13B 8492   4.312   3.627   9.063 -2.0446 -1.4607 -1.8569
   6623SM  H13C 8493   4.157   3.679   9.112 -0.9687 -0.1391 -0.7286
   6623SM   C12 8494   4.137   3.692   8.858 -0.0771  0.3410  0.8551
   6623SM  H12A 8495   4.034   3.697   8.889 -0.4970 -0.2305 -0.3567
   6623SM  H12B 8496   4.173   3.591   8.855  0.5105  0.5134  1.7394
   6623SM   C11 8497   4.132   3.738   8.709 -0.3174  0.4311 -0.3013
   6623SM  H11A 8498   4.075   3.671   8.641 -0.8670  0.4806  0.0997
   6623SM  H11B 8499   4.237   3.735   8.674 -0.5290 -1.5402 -0.8583
   6623SM     P 8500   3.921   3.871   8.704 -0.2699 -0.1261 -0.1717
   6623SM   O13 8501   3.873   3.782   8.815 -0.1630 -0.1818 -0.3290
   6623SM   O14 8502   3.878   4.010   8.719 -0.3879 -0.3517 -0.2600
   6623SM   O11 8503   3.880   3.812   8.564 -0.1899 -0.2169  0.8893
   6623SM   O12 8504   4.083   3.869   8.703 -0.0437 -0.5470 -0.1438
   6623SM   C1S 8505   3.924   3.884   8.454 -0.1768  0.0762  0.2849
   6623SM   H1S 8506   4.032   3.866   8.437 -0.8477 -2.3160 -2.0795
   6623SM   H1T 8507   3.902   3.993   8.458  3.9584  1.3535 -3.5699
   6623SM    NF 8508   3.879   3.918   8.201 -0.3873 -0.4517 -0.1049
   6623SM   HNF 8509   3.800   3.957   8.156  0.0802  0.1782 -0.3938
   6623SM   C2S 8510   3.849   3.840   8.324 -0.7547 -0.0113  0.3224
   6623SM   H2S 8511   3.884   3.738   8.298 -0.4586  0.0349  0.5320
   6623SM   C3S 8512   3.695   3.823   8.345 -0.6465 -0.0235  0.2235
   6623SM   H3S 8513   3.655   3.920   8.380  0.4315  0.3179  0.5371
   6623SM    O3 8514   3.673   3.717   8.435  0.3159  0.8099  0.6641
   6623SM   HO3 8515   3.738   3.740   8.502  0.1356 -1.2007  1.6077
   6623SM   C4S 8516   3.639   3.788   8.211  0.1661 -0.1143  0.0522
   6623SM   H4S 8517   3.639   3.680   8.191  2.3075  0.2752 -2.6382
   6623SM   C5S 8518   3.573   3.871   8.126 -0.6569 -0.8962 -0.0199
   6623SM   H5S 8519   3.556   3.970   8.170 -0.3676 -2.5316  4.2413
   6623SM   C6S 8520   3.513   3.833   7.996  0.4612  0.2164  0.1514
   6623SM   H6S 8521   3.415   3.886   7.990  0.0451 -0.4786  0.5942
   6623SM   H6T 8522   3.490   3.724   7.999 -0.2197  0.2785 -1.5641
   6623SM   C7S 8523   3.598   3.859   7.868  0.0723  0.2393 -0.3105
   6623SM   H7S 8524   3.685   3.791   7.861 -0.1685  0.0208 -1.5580
   6623SM   H7T 8525   3.649   3.957   7.872 -0.8623  0.7069  0.8122
   6623SM   C8S 8526   3.522   3.830   7.739 -0.7151  0.6428  0.0914
   6623SM   H8S 8527   3.447   3.911   7.727 -1.8625 -0.0491  2.2107
   6623SM   H8T 8528   3.461   3.739   7.756 -0.7689  0.7386  0.4011
   6623SM   C9S 8529   3.613   3.837   7.616  0.0350 -0.6563 -0.4639
   6623SM   H9S 8530   3.716   3.796   7.625  0.2102 -0.2328 -0.4791
   6623SM   H9T 8531   3.636   3.946   7.611 -1.0623 -0.2687  1.7623
   6623SM  C10S 8532   3.545   3.804   7.480  0.3713 -0.2102 -0.2126
   6623SM  H10S 8533   3.453   3.865   7.467  1.1855  1.1945  0.3109
   6623SM  H10T 8534   3.520   3.696   7.480  0.8195 -0.3170  0.7655
   6623SM  C11S 8535   3.638   3.832   7.360 -0.0988  0.4801 -0.0488
   6623SM  H11S 8536   3.732   3.773   7.358 -1.3073 -1.5168 -1.0123
   6623SM  H11T 8537   3.665   3.940   7.356 -2.7286  1.3930  2.8273
   6623SM  C12S 8538   3.560   3.817   7.226 -1.0117 -0.0904  0.6628
   6623SM  H12S 8539   3.462   3.865   7.245  0.5425  3.6026  0.1709
   6623SM  H12T 8540   3.559   3.707   7.211  0.0618  0.1318 -1.2942
   6623SM  C13S 8541   3.619   3.898   7.105 -0.0410  0.6913  0.4965
   6623SM  H13S 8542   3.704   3.842   7.062 -1.0419  1.4850 -2.8766
   6623SM  H13T 8543   3.630   4.003   7.139  0.9524  0.9187 -0.4662
   6623SM  C14S 8544   3.519   3.884   6.988  0.2833  0.1775  0.6465
   6623SM  H14S 8545   3.560   3.924   6.892 -1.7453  0.2972 -0.2277
   6623SM  H14T 8546   3.441   3.958   7.016  0.2027  0.3423  0.0085
   6623SM  C15S 8547   3.450   3.750   6.982  0.3534  0.6860 -0.5460
   6623SM  H15S 8548   3.362   3.735   7.049  0.5655  1.0438 -0.1843
   6623SM  H15T 8549   3.520   3.670   7.014 -2.4249 -1.0108  1.9197
   6623SM  C16S 8550   3.404   3.723   6.835  0.5098  0.0112 -0.1017
   6623SM  H16S 8551   3.380   3.615   6.834 -0.5861  0.2084 -2.7305
   6623SM  H16T 8552   3.489   3.740   6.765  0.7610  1.1175  0.4460
   6623SM  C17S 8553   3.293   3.815   6.790  0.5459 -0.2092  0.5887
   6623SM  H17S 8554   3.337   3.915   6.773  0.6052 -0.4388 -0.7203
   6623SM  H17T 8555   3.225   3.829   6.876 -1.1559 -1.7112 -0.4360
   6623SM  C18S 8556   3.213   3.770   6.664  0.3892 -0.2963 -0.2521
   6623SM  H18S 8557   3.157   3.674   6.666  0.6934 -0.4787 -0.3688
   6623SM  H18T 8558   3.273   3.752   6.572 -1.7902  0.4942 -1.9367
   6623SM  H18U 8559   3.132   3.842   6.641 -1.1511 -2.4489 -2.1256
   6623SM   C1F 8560   3.995   3.929   8.148  0.3045 -0.2951  0.1740
   6623SM    OF 8561   4.088   3.904   8.215 -0.2243 -0.2103  0.7243
   6623SM   C2F 8562   3.998   3.975   8.004  0.5320 -1.0203  0.4306
   6623SM   H2F 8563   4.087   4.041   7.994 -0.4956  0.1535 -1.6895
   6623SM   H2G 8564   3.918   4.050   7.985  0.3072 -1.0397  1.2610
   6623SM   C3F 8565   4.003   3.860   7.905 -0.4851  0.0166  0.1905
   6623SM   H3F 8566   3.917   3.789   7.913  0.4856 -1.0994  1.2929
   6623SM   H3G 8567   4.092   3.801   7.937  0.1983  1.7647  1.6650
   6623SM   C4F 8568   4.010   3.914   7.766  0.2179  0.4134  0.5725
   6623SM   H4F 8569   4.078   4.000   7.750 -1.4341  1.6496 -0.1296
   6623SM   H4G 8570   3.902   3.933   7.745 -0.7688  0.3388  4.6721
   6623SM   C5F 8571   4.059   3.799   7.672 -0.1976  0.1315  0.3143
   6623SM   H5F 8572   4.015   3.701   7.700  1.3041  0.2547  3.6613
   6623SM   H5G 8573   4.168   3.785   7.683  0.0432 -0.0868 -1.9146
   6623SM   C6F 8574   4.027   3.834   7.526 -0.0017  0.2205  0.2003
   6623SM   H6F 8575   4.089   3.919   7.490 -0.8643  0.8346  0.1116
   6623SM   H6G 8576   3.925   3.879   7.521  0.8396  2.2758  0.6745
   6623SM   C7F 8577   4.029   3.706   7.439  0.2791  1.1177 -0.6388
   6623SM   H7F 8578   3.950   3.640   7.482  1.3382  0.9873  1.2097
   6623SM   H7G 8579   4.117   3.640   7.454 -1.3021 -1.5237 -2.0410
   6623SM   C8F 8580   4.031   3.737   7.289  0.3151  0.2041  0.1166
   6623SM   H8F 8581   4.130   3.778   7.263  1.2139 -1.5260  0.6516
   6623SM   H8G 8582   3.948   3.810   7.279  1.2867  1.3127  0.0507
   6623SM   C9F 8583   4.002   3.608   7.217  0.4286  0.0723 -0.2964
   6623SM   H9F 8584   3.937   3.541   7.278 -0.8344  2.0945  0.6643
   6623SM   H9G 8585   4.092   3.544   7.205 -1.5473 -3.2416  1.0943
   6623SM  C10F 8586   3.945   3.619   7.072 -0.5038 -0.5899  0.3344
   6623SM  H10F 8587   3.836   3.636   7.063 -0.8088 -1.5560  1.7647
   6623SM  H10G 8588   3.951   3.515   7.033  0.3035 -0.8024  0.9862
   6623SM  C11F 8589   4.026   3.718   6.989  0.2346 -1.0704 -0.3404
   6623SM  H11F 8590   4.133   3.692   7.005  0.2510 -0.9424 -0.2449
   6623SM  H11G 8591   4.007   3.815   7.038 -0.4514 -1.1402 -0.4540
   6623SM  C12F 8592   3.974   3.700   6.844  0.5647  0.1810 -0.7267
   6623SM  H12F 8593   3.884   3.762   6.824  0.4021 -0.0085 -0.5817
   6623SM  H12G 8594   3.952   3.592   6.832  0.8469  0.0568 -0.1739
   6623SM  C13F 8595   4.059   3.770   6.740 -0.0017 -0.0026  0.4005
   6623SM  H13F 8596   4.165   3.746   6.762  0.0058 -0.5669 -0.2103
   6623SM  H13G 8597   4.058   3.881   6.744 -0.0248  0.1188 -1.7620
   6623SM  C14F 8598   4.019   3.733   6.596  0.2188 -0.0430 -0.4434
   6623SM  H14F 8599   4.090   3.780   6.524 -0.7920  3.3037  0.5462
   6623SM  H14G 8600   3.923   3.785   6.576  0.8063  0.7395 -1.3019
   6623SM  C15F 8601   4.023   3.583   6.567  0.2880  0.5616 -1.1586
   6623SM  H15F 8602   3.935   3.534   6.614  1.6033 -1.1940 -0.4309
   6623SM  H15G 8603   4.105   3.531   6.619 -2.4332 -1.4427  1.4743
   6623SM  C16F 8604   4.016   3.546   6.415 -0.0726  0.4482  0.6265
   6623SM  H16F 8605   3.999   3.437   6.400  1.2994  0.5260 -2.0583
   6623SM  H16G 8606   4.112   3.566   6.362 -0.6673  0.0305 -0.6461
   6623SM  C17F 8607   3.905   3.628   6.353  0.0356  0.7640 -0.7942
   6623SM  H17F 8608   3.922   3.591   6.250  0.8910 -1.0163 -0.0438
   6623SM  H17G 8609   3.917   3.739   6.358 -2.0075  0.9593  1.4498
   6623SM  C18F 8610   3.767   3.587   6.403 -0.7505  0.1323  0.0137
   6623SM  H18F 8611   3.740   3.646   6.493  1.3849  0.1241  0.7357
   6623SM  H18G 8612   3.768   3.482   6.439  1.2955  0.6288  1.6215
   6623SM  C19F 8613   3.660   3.605   6.300 -0.4435  0.5610  0.2929
   6623SM  H19F 8614   3.666   3.521   6.227 -0.9978  1.9566 -1.4408
   6623SM  H19G 8615   3.679   3.702   6.248 -2.4446  1.1454  0.5545
   6623SM  C20F 8616   3.511   3.611   6.355 -0.2171  0.6082 -0.0106
   6623SM  H20F 8617   3.491   3.697   6.423  0.7613 -1.5412  3.2566
   6623SM  H20G 8618   3.497   3.525   6.424  1.9203 -0.2492 -0.5690
   6623SM  C21F 8619   3.401   3.604   6.244  0.3112  0.0084  0.6471
   6623SM  H21F 8620   3.418   3.510   6.188 -0.2212  0.2834  0.0210
   6623SM  H21G 8621   3.411   3.692   6.177 -0.3813 -0.6867 -0.3964
   6623SM  C22F 8622   3.259   3.598   6.307  0.8793 -0.0287 -0.4295
   6623SM  H22F 8623   3.184   3.665   6.259 -1.6819 -2.5076 -0.1409
   6623SM  H22G 8624   3.265   3.643   6.409 -2.3566  0.0126 -0.1533
   6623SM  C23F 8625   3.209   3.454   6.299  0.4714 -0.5884  0.2079
   6623SM  H23F 8626   3.268   3.390   6.368  0.9236  0.0385  0.4083
   6623SM  H23G 8627   3.221   3.404   6.200 -0.6265 -1.0257  0.2735
   6623SM  H23H 8628   3.101   3.453   6.327  0.2900 -1.2301 -0.4794
   6723SM     N 8629   4.359   1.502   8.786  0.5634 -0.0273  0.6026
   6723SM   C15 8630   4.249   1.594   8.832 -0.5293  0.6814 -0.3323
   6723SM  H15A 8631   4.173   1.616   8.758 -0.8436  1.5234  0.2274
   6723SM  H15B 8632   4.286   1.683   8.880  0.1079 -0.5332  1.5354
   6723SM  H15C 8633   4.190   1.531   8.896 -0.1083 -0.4273 -1.0068
   6723SM   C14 8634   4.453   1.584   8.702  0.9605  0.1066 -0.6616
   6723SM  H14A 8635   4.407   1.615   8.609 -1.1093  1.4018  0.6944
   6723SM  H14B 8636   4.542   1.531   8.674  2.1707  0.3668  2.2735
   6723SM  H14C 8637   4.485   1.679   8.742  2.4764 -0.5234 -0.3290
   6723SM   C13 8638   4.428   1.438   8.897 -0.4362  0.3064 -0.8622
   6723SM  H13A 8639   4.511   1.378   8.864  0.5090 -0.4913  2.6078
   6723SM  H13B 8640   4.364   1.361   8.938  0.2541  0.8025  1.2658
   6723SM  H13C 8641   4.457   1.502   8.979 -3.3808  1.3598 -0.5159
   6723SM   C12 8642   4.294   1.396   8.692 -1.1802 -0.5832  0.5149
   6723SM  H12A 8643   4.369   1.342   8.638 -1.8835 -0.6571 -0.4073
   6723SM  H12B 8644   4.246   1.446   8.609  0.9365  0.4215 -0.1766
   6723SM   C11 8645   4.199   1.294   8.747  0.1266 -0.0012 -0.8161
   6723SM  H11A 8646   4.266   1.235   8.813 -0.8984 -0.0278  0.2275
   6723SM  H11B 8647   4.161   1.217   8.677  2.1438 -1.5238 -0.3451
   6723SM     P 8648   3.953   1.412   8.768  0.2788  0.1334  0.8150
   6723SM   O13 8649   3.847   1.312   8.794  0.1083 -0.0783  0.0969
   6723SM   O14 8650   3.936   1.540   8.839  0.2089  0.0284 -0.2880
   6723SM   O11 8651   3.960   1.444   8.610  0.1378  0.3402 -0.6326
   6723SM   O12 8652   4.090   1.358   8.806 -0.2356  0.5272 -0.0190
   6723SM   C1S 8653   3.934   1.354   8.504  0.0484  0.0059 -0.2545
   6723SM   H1S 8654   3.832   1.310   8.497  1.3601 -3.2241 -0.9566
   6723SM   H1T 8655   4.005   1.269   8.513  0.9200  0.7154 -0.3224
   6723SM    NF 8656   3.916   1.332   8.263 -0.1372  0.3879  0.0147
   6723SM   HNF 8657   3.991   1.280   8.225 -0.9753 -0.2526 -0.7999
   6723SM   C2S 8658   3.956   1.415   8.364 -0.7983 -0.0200  0.2152
   6723SM   H2S 8659   3.881   1.496   8.349  0.0646  0.9527  1.0139
   6723SM   C3S 8660   4.101   1.473   8.342  0.1690 -0.3030 -0.0979
   6723SM   H3S 8661   4.168   1.387   8.323 -1.1589 -1.3662 -0.1205
   6723SM    O3 8662   4.139   1.541   8.460  0.3719  0.0203 -0.1333
   6723SM   HO3 8663   4.072   1.518   8.525  0.5734 -0.8488 -0.2261
   6723SM   C4S 8664   4.105   1.555   8.212  0.0834  0.1357  0.1327
   6723SM   H4S 8665   4.076   1.661   8.217 -0.0740  0.2868 -2.5770
   6723SM   C5S 8666   4.124   1.512   8.082  0.0395 -0.5734 -0.4857
   6723SM   H5S 8667   4.149   1.406   8.065  1.9478 -0.4294  1.0559
   6723SM   C6S 8668   4.108   1.600   7.966 -0.2491  0.0315  0.2524
   6723SM   H6S 8669   4.117   1.548   7.868  0.8235 -0.3604  0.5397
   6723SM   H6T 8670   4.180   1.685   7.957 -0.1851  0.1745  1.8337
   6723SM   C7S 8671   3.968   1.664   7.936 -0.7288 -0.0786  0.2999
   6723SM   H7S 8672   3.977   1.713   7.836  0.1730  0.2330  0.5173
   6723SM   H7T 8673   3.946   1.746   8.007 -2.0534  2.2237 -2.5351
   6723SM   C8S 8674   3.855   1.554   7.929  0.0537  0.3556  0.3491
   6723SM   H8S 8675   3.863   1.499   8.025  1.5161  1.5317  0.9465
   6723SM   H8T 8676   3.881   1.475   7.856  0.5944 -0.8512  1.8060
   6723SM   C9S 8677   3.708   1.604   7.924 -0.1494  0.7653 -0.5270
   6723SM   H9S 8678   3.687   1.663   7.832 -1.5128  0.1163 -0.6648
   6723SM   H9T 8679   3.681   1.669   8.010  1.5046 -0.5194  1.0279
   6723SM  C10S 8680   3.608   1.487   7.920  0.2301  0.2668 -0.7086
   6723SM  H10S 8681   3.635   1.427   8.009  4.1574  0.2400 -1.7477
   6723SM  H10T 8682   3.610   1.410   7.840 -1.0911  0.3121 -0.8147
   6723SM  C11S 8683   3.462   1.539   7.924  0.1111 -0.0563  0.1356
   6723SM  H11S 8684   3.451   1.616   8.004 -2.1229 -0.6250  0.4499
   6723SM  H11T 8685   3.405   1.449   7.955 -0.4106  0.6558  1.3257
   6723SM  C12S 8686   3.410   1.597   7.787  0.0839  0.2901 -0.4982
   6723SM  H12S 8687   3.459   1.696   7.773 -1.0632  0.8973 -0.3679
   6723SM  H12T 8688   3.299   1.608   7.794  0.0521 -0.8664  1.7630
   6723SM  C13S 8689   3.437   1.501   7.671 -0.1356 -0.2226 -0.0253
   6723SM  H13S 8690   3.375   1.411   7.693  0.1221 -0.3630  0.1202
   6723SM  H13T 8691   3.543   1.469   7.664 -0.3541 -0.7570 -1.0409
   6723SM  C14S 8692   3.410   1.556   7.530 -0.2265  0.1972  0.4561
   6723SM  H14S 8693   3.448   1.661   7.528  1.6440 -0.4407 -1.3981
   6723SM  H14T 8694   3.299   1.560   7.516 -0.3682 -3.6739 -0.7377
   6723SM  C15S 8695   3.474   1.470   7.421  0.0761 -0.8348 -0.4717
   6723SM  H15S 8696   3.449   1.363   7.432  1.1601 -1.2167 -1.5118
   6723SM  H15T 8697   3.584   1.476   7.429  0.0554  0.1310 -0.7482
   6723SM  C16S 8698   3.427   1.525   7.288  0.1211  0.4369  0.7463
   6723SM  H16S 8699   3.473   1.626   7.290 -0.5855  0.8344 -1.0165
   6723SM  H16T 8700   3.317   1.533   7.278  0.1000 -0.7901 -0.1842
   6723SM  C17S 8701   3.481   1.455   7.161  0.3761 -0.4560  0.5557
   6723SM  H17S 8702   3.430   1.356   7.161  0.1345 -0.4124 -2.3620
   6723SM  H17T 8703   3.591   1.447   7.155  0.6104  2.2751 -0.1699
   6723SM  C18S 8704   3.432   1.523   7.031 -0.8727 -0.1606  0.9989
   6723SM  H18S 8705   3.473   1.624   7.008 -0.2760 -0.8000 -0.9410
   6723SM  H18T 8706   3.321   1.530   7.029 -1.0364 -2.2148 -0.3799
   6723SM  H18U 8707   3.449   1.452   6.948  0.4264 -0.9457  1.9032
   6723SM   C1F 8708   3.792   1.296   8.233  0.2778 -0.2657  0.8742
   6723SM    OF 8709   3.689   1.326   8.292 -0.4331  0.8581  0.1993
   6723SM   C2F 8710   3.783   1.215   8.113  0.1160  0.1979 -0.4164
   6723SM   H2F 8711   3.874   1.151   8.104  0.3548  0.3009  1.0292
   6723SM   H2G 8712   3.771   1.277   8.021  0.1843  1.7720  0.6019
   6723SM   C3F 8713   3.656   1.124   8.108  0.4510  0.4099  0.5457
   6723SM   H3F 8714   3.569   1.191   8.089  0.3736  0.1598 -0.0165
   6723SM   H3G 8715   3.650   1.065   8.202  0.2859 -1.5074 -0.6085
   6723SM   C4F 8716   3.650   1.020   7.996 -0.3911  0.3528 -0.1315
   6723SM   H4F 8717   3.567   0.949   8.015  0.4875 -1.0635 -1.4367
   6723SM   H4G 8718   3.740   0.956   7.989 -1.7203 -1.4847 -1.5156
   6723SM   C5F 8719   3.648   1.100   7.855 -0.1375  0.2728 -0.4551
   6723SM   H5F 8720   3.742   1.158   7.841 -0.4827  0.7948 -0.6148
   6723SM   H5G 8721   3.564   1.172   7.854  1.1679  1.8385 -1.2673
   6723SM   C6F 8722   3.612   1.026   7.727 -0.2908 -0.7309  0.5665
   6723SM   H6F 8723   3.506   0.994   7.735 -0.9186  0.2033 -2.5800
   6723SM   H6G 8724   3.677   0.938   7.706  1.5428  0.8720 -0.9104
   6723SM   C7F 8725   3.613   1.118   7.605  0.5937  0.3521 -0.0403
   6723SM   H7F 8726   3.712   1.163   7.583 -0.4535  1.6416 -2.4933
   6723SM   H7G 8727   3.539   1.200   7.617  0.5125  0.1263  1.0324
   6723SM   C8F 8728   3.582   1.032   7.481 -0.5282  0.2121  0.0591
   6723SM   H8F 8729   3.487   0.975   7.490  0.0184 -0.6903  0.2087
   6723SM   H8G 8730   3.663   0.956   7.478 -0.8410 -0.1142 -1.7482
   6723SM   C9F 8731   3.566   1.114   7.352  0.2542 -0.8789 -0.5019
   6723SM   H9F 8732   3.655   1.182   7.351  0.6547 -1.2826  2.0540
   6723SM   H9G 8733   3.476   1.179   7.350 -0.0446 -1.1940  1.3719
   6723SM  C10F 8734   3.573   1.015   7.226 -0.0409 -0.0508  0.0038
   6723SM  H10F 8735   3.488   0.948   7.250 -0.4555 -1.0427 -3.5536
   6723SM  H10G 8736   3.665   0.952   7.231 -1.3168 -1.8789  2.7520
   6723SM  C11F 8737   3.534   1.088   7.089 -0.1278 -0.9464  0.1343
   6723SM  H11F 8738   3.559   1.195   7.106 -0.5333 -0.4597 -2.0296
   6723SM  H11G 8739   3.425   1.080   7.069  0.2553 -0.3790 -2.7251
   6723SM  C12F 8740   3.614   1.042   6.963  0.4956  0.3199  0.8610
   6723SM  H12F 8741   3.724   1.061   6.967  0.7975 -0.2259 -2.3815
   6723SM  H12G 8742   3.579   1.104   6.878  1.5398 -1.8902 -1.3243
   6723SM  C13F 8743   3.586   0.898   6.914 -0.7080  0.0799 -0.0686
   6723SM  H13F 8744   3.476   0.888   6.902 -0.7183 -0.4238  0.4099
   6723SM  H13G 8745   3.597   0.824   6.997 -1.3369 -0.0119 -0.0627
   6723SM  C14F 8746   3.677   0.867   6.797  0.3116  0.6129 -0.3162
   6723SM  H14F 8747   3.780   0.901   6.820 -0.1254  1.2447  0.8186
   6723SM  H14G 8748   3.638   0.922   6.709  1.1914  1.5102 -0.1639
   6723SM  C15F 8749   3.687   0.722   6.779  0.2910 -0.1987 -0.2286
   6723SM  H15F 8750   3.591   0.682   6.740  0.0561  1.3443 -1.3342
   6723SM  H15G 8751   3.702   0.672   6.877 -0.8072  1.1812  0.6793
   6723SM  C16F 8752   3.794   0.700   6.669 -1.4676  0.3483 -0.2900
   6723SM  H16F 8753   3.796   0.783   6.596  2.4306  0.3104 -0.4440
   6723SM  H16G 8754   3.763   0.606   6.619 -0.2810 -0.4980  0.4978
   6723SM  C17F 8755   3.939   0.674   6.722 -0.4852  0.5661  0.2418
   6723SM  H17F 8756   3.951   0.734   6.815 -1.4047  0.7159  0.2799
   6723SM  H17G 8757   4.011   0.704   6.643 -1.5490 -1.4490 -1.5968
   6723SM  C18F 8758   3.965   0.518   6.747 -0.3401  0.5237  0.8744
   6723SM  H18F 8759   3.913   0.472   6.660 -0.3312  2.1555 -0.0488
   6723SM  H18G 8760   3.921   0.496   6.846 -1.9607  0.5912  0.1984
   6723SM  C19F 8761   4.118   0.486   6.755  0.0925 -1.2817  0.5751
   6723SM  H19F 8762   4.162   0.513   6.853 -2.1659 -2.8893  2.1208
   6723SM  H19G 8763   4.162   0.551   6.676  0.4191 -1.8845  0.2494
   6723SM  C20F 8764   4.140   0.338   6.715  0.5962 -0.2121  0.4214
   6723SM  H20F 8765   4.107   0.321   6.611  2.4868 -2.9321  0.1602
   6723SM  H20G 8766   4.073   0.272   6.775 -0.4378 -0.0237 -0.4907
   6723SM  C21F 8767   4.286   0.296   6.721  0.9138  0.6691  0.4652
   6723SM  H21F 8768   4.286   0.186   6.735 -0.6397  0.8151  1.9614
   6723SM  H21G 8769   4.336   0.339   6.811  2.1991 -0.0134  0.1012
   6723SM  C22F 8770   4.364   0.335   6.593  0.3606  0.0796  0.3498
   6723SM  H22F 8771   4.387   0.444   6.590 -1.0714  0.4100 -2.6727
   6723SM  H22G 8772   4.292   0.325   6.508 -1.3500 -0.3386  1.7836
   6723SM  C23F 8773   4.490   0.256   6.567 -0.6629  1.0210  0.4776
   6723SM  H23F 8774   4.565   0.317   6.511  0.7829 -1.3701 -0.3524
   6723SM  H23G 8775   4.467   0.162   6.513 -0.9728 -0.7170  3.4054
   6723SM  H23H 8776   4.536   0.221   6.662 -1.6282 -0.5497  0.3996
   6823SM     N 8777   4.914   2.635   8.786  0.6844 -0.1383 -0.0596
   6823SM   C15 8778   4.938   2.494   8.745  0.5121  0.3063  0.4070
   6823SM  H15A 8779   4.919   2.483   8.639  0.9927  0.8863  0.2581
   6823SM  H15B 8780   4.876   2.423   8.797 -0.2695  1.0630  0.5375
   6823SM  H15C 8781   5.037   2.458   8.766  0.3481  0.6155  1.8140
   6823SM   C14 8782   4.943   2.643   8.931 -0.1514  0.1950  0.3656
   6823SM  H14A 8783   4.923   2.741   8.972  2.7253  0.6172  0.9732
   6823SM  H14B 8784   5.048   2.634   8.954 -0.1845 -0.8717  0.1838
   6823SM  H14C 8785   4.889   2.571   8.991  2.5173 -1.5713  0.8136
   6823SM   C13 8786   4.997   2.726   8.704  0.0365  0.1519 -0.0837
   6823SM  H13A 8787   4.960   2.827   8.717 -0.2070 -0.1969  2.5105
   6823SM  H13B 8788   4.980   2.704   8.600 -0.9799 -2.3190  0.5316
   6823SM  H13C 8789   5.102   2.729   8.729  0.1886 -1.3683 -0.4701
   6823SM   C12 8790   4.757   2.657   8.760  0.1086 -0.1268  0.0029
   6823SM  H12A 8791   4.701   2.591   8.823 -0.1505  0.4312  0.3662
   6823SM  H12B 8792   4.719   2.631   8.662 -0.8616 -0.9640  0.5884
   6823SM   C11 8793   4.708   2.800   8.794  0.2010  0.1808  0.9512
   6823SM  H11A 8794   4.732   2.854   8.700  0.5600  0.1944  1.0514
   6823SM  H11B 8795   4.761   2.850   8.878 -1.8576 -0.8811  2.9917
   6823SM     P 8796   4.480   2.924   8.805 -0.3214 -0.3416 -0.5641
   6823SM   O13 8797   4.345   2.904   8.864 -0.0479 -0.2215  0.0906
   6823SM   O14 8798   4.553   3.043   8.859 -0.2685  0.4238  0.2242
   6823SM   O11 8799   4.463   2.938   8.653 -0.0136 -0.0205  0.3417
   6823SM   O12 8800   4.564   2.789   8.815 -0.0153 -0.3979  0.1269
   6823SM   C1S 8801   4.451   2.828   8.561  0.2593  0.0135  0.2981
   6823SM   H1S 8802   4.356   2.774   8.584 -0.6218  1.8512  1.2366
   6823SM   H1T 8803   4.535   2.755   8.562 -0.1643 -0.4803 -0.0326
   6823SM    NF 8804   4.412   2.777   8.324 -0.2347 -0.2986 -0.6538
   6823SM   HNF 8805   4.484   2.741   8.266  0.2699 -0.8425  0.2762
   6823SM   C2S 8806   4.446   2.880   8.409  0.0274 -0.1626 -0.7626
   6823SM   H2S 8807   4.362   2.953   8.407 -0.4016 -0.6138 -0.0028
   6823SM   C3S 8808   4.576   2.954   8.370  0.6276 -0.4676 -1.0982
   6823SM   H3S 8809   4.659   2.885   8.394  0.1758 -0.0629  1.9659
   6823SM    O3 8810   4.596   3.071   8.441  0.1314  0.0171 -0.6497
   6823SM   HO3 8811   4.538   3.060   8.517  0.5226 -2.8463 -0.6465
   6823SM   C4S 8812   4.584   2.981   8.217 -0.3153 -0.2314  0.2917
   6823SM   H4S 8813   4.626   2.895   8.162  0.4334 -0.3185  0.9892
   6823SM   C5S 8814   4.544   3.090   8.143 -0.2642  0.1688  0.9757
   6823SM   H5S 8815   4.503   3.177   8.195 -0.6984 -0.4658  1.7208
   6823SM   C6S 8816   4.561   3.097   7.996  0.0792 -0.0694 -0.5332
   6823SM   H6S 8817   4.665   3.131   7.978 -0.1008  1.6299  1.3567
   6823SM   H6T 8818   4.483   3.161   7.950  1.3647  0.3574 -2.2403
   6823SM   C7S 8819   4.539   2.964   7.913  0.2662 -0.4658 -0.5370
   6823SM   H7S 8820   4.435   2.936   7.941  0.4099 -0.3526  0.1086
   6823SM   H7T 8821   4.609   2.884   7.945  0.1562  0.3654  2.0043
   6823SM   C8S 8822   4.549   2.996   7.763  0.1594  0.5310 -0.4806
   6823SM   H8S 8823   4.658   3.002   7.740  0.6220  0.9423  1.6285
   6823SM   H8T 8824   4.498   3.091   7.735  1.8617  1.7751  0.4717
   6823SM   C9S 8825   4.479   2.897   7.666 -0.0990  0.1896  0.0777
   6823SM   H9S 8826   4.371   2.893   7.690 -0.0600 -1.8910  0.0267
   6823SM   H9T 8827   4.513   2.793   7.683 -0.1293  0.1259 -0.2466
   6823SM  C10S 8828   4.501   2.952   7.520  0.9424 -0.0755  0.2604
   6823SM  H10S 8829   4.611   2.957   7.505  0.7033  0.0902 -1.6128
   6823SM  H10T 8830   4.462   3.056   7.512 -0.0638 -0.4071  0.7121
   6823SM  C11S 8831   4.431   2.871   7.418 -0.1457 -0.6234  0.7137
   6823SM  H11S 8832   4.321   2.876   7.434  0.1388 -0.3518  2.9341
   6823SM  H11T 8833   4.457   2.764   7.427 -0.7937 -0.8071  0.4531
   6823SM  C12S 8834   4.479   2.925   7.282  0.3392  0.6941 -0.5926
   6823SM  H12S 8835   4.586   2.902   7.262  0.0902 -0.8616 -0.2526
   6823SM  H12T 8836   4.462   3.035   7.279 -0.2376  0.6940  1.4097
   6823SM  C13S 8837   4.411   2.879   7.153  0.1467  0.4754 -0.2282
   6823SM  H13S 8838   4.304   2.906   7.161  0.6131  1.7470  4.3201
   6823SM  H13T 8839   4.418   2.768   7.163  0.9222  0.5259 -0.0931
   6823SM  C14S 8840   4.469   2.934   7.025  0.2231  0.1579  0.3802
   6823SM  H14S 8841   4.580   2.928   7.032  0.2710 -0.3740 -0.6593
   6823SM  H14T 8842   4.443   3.042   7.023 -1.5855 -0.2461  0.7242
   6823SM  C15S 8843   4.416   2.872   6.897 -0.0427 -0.1006  0.4707
   6823SM  H15S 8844   4.306   2.860   6.905 -0.3555  1.9934 -0.3239
   6823SM  H15T 8845   4.475   2.779   6.885  1.9942  1.1895  0.0658
   6823SM  C16S 8846   4.455   2.956   6.771 -0.4431 -0.3490 -0.1021
   6823SM  H16S 8847   4.566   2.949   6.780 -0.4119 -0.2846 -0.4366
   6823SM  H16T 8848   4.416   3.059   6.780  0.9719  0.1888  0.2280
   6823SM  C17S 8849   4.417   2.899   6.638 -0.4299  0.0280 -0.4343
   6823SM  H17S 8850   4.306   2.894   6.643 -0.7069  3.9633  0.6519
   6823SM  H17T 8851   4.468   2.800   6.636  2.3689  1.3763 -0.7768
   6823SM  C18S 8852   4.475   2.981   6.524 -0.1287  0.4765  0.1326
   6823SM  H18S 8853   4.444   2.930   6.430 -1.2352 -1.1303  1.3108
   6823SM  H18T 8854   4.586   2.969   6.528 -0.4103 -2.7130  1.9013
   6823SM  H18U 8855   4.452   3.089   6.525 -1.0502  0.3238 -1.4194
   6823SM   C1F 8856   4.301   2.707   8.339 -0.3884 -0.3683 -0.1451
   6823SM    OF 8857   4.211   2.738   8.414  0.4181 -0.1786  0.1268
   6823SM   C2F 8858   4.298   2.591   8.246 -0.9303  0.3383 -0.1075
   6823SM   H2F 8859   4.195   2.552   8.253 -1.0972  1.1016  2.6940
   6823SM   H2G 8860   4.363   2.509   8.285 -0.4294 -0.1793 -1.8955
   6823SM   C3F 8861   4.337   2.637   8.105 -0.0042  0.0515 -0.0826
   6823SM   H3F 8862   4.441   2.676   8.101  0.4038 -1.1015 -1.6324
   6823SM   H3G 8863   4.264   2.716   8.076  0.0609  0.1018 -0.1097
   6823SM   C4F 8864   4.323   2.527   8.001  0.1933  0.2881 -0.2614
   6823SM   H4F 8865   4.217   2.493   7.987  0.0350  0.9190 -0.6103
   6823SM   H4G 8866   4.384   2.441   8.038  0.1375  0.8284  1.1459
   6823SM   C5F 8867   4.368   2.580   7.865  0.0236  0.5176  0.5415
   6823SM   H5F 8868   4.476   2.604   7.865  0.3663 -0.9038  0.2089
   6823SM   H5G 8869   4.304   2.671   7.858 -1.6715 -0.7181 -1.0037
   6823SM   C6F 8870   4.337   2.482   7.751  0.8059  0.1144  0.3844
   6823SM   H6F 8871   4.237   2.442   7.778  0.8563  0.2445  0.7644
   6823SM   H6G 8872   4.411   2.400   7.751 -1.7039 -2.2986  0.3616
   6823SM   C7F 8873   4.327   2.558   7.619 -0.1339 -0.0380  0.9761
   6823SM   H7F 8874   4.423   2.611   7.606  2.2927 -3.7268  2.3385
   6823SM   H7G 8875   4.243   2.630   7.613  0.4046  0.5066 -1.0756
   6823SM   C8F 8876   4.322   2.465   7.497  0.4095  0.2194  0.1905
   6823SM   H8F 8877   4.217   2.429   7.486  0.5256  0.3990 -1.8923
   6823SM   H8G 8878   4.387   2.377   7.517  0.2420  0.2199  0.7467
   6823SM   C9F 8879   4.352   2.529   7.359  0.3815  0.1409  0.3327
   6823SM   H9F 8880   4.462   2.545   7.355  0.9031 -2.3003  2.3472
   6823SM   H9G 8881   4.287   2.618   7.351 -1.7766 -1.4573 -0.7612
   6823SM  C10F 8882   4.328   2.434   7.237  0.7425 -0.4005  0.4622
   6823SM  H10F 8883   4.225   2.392   7.245 -0.1268  1.6203  0.6742
   6823SM  H10G 8884   4.396   2.347   7.241  2.2168  0.7084  0.1454
   6823SM  C11F 8885   4.357   2.508   7.110 -0.3165 -0.1525  0.0175
   6823SM  H11F 8886   4.465   2.531   7.100 -0.4975 -0.0252 -2.2263
   6823SM  H11G 8887   4.299   2.602   7.108 -0.1597 -0.0569 -1.4795
   6823SM  C12F 8888   4.322   2.424   6.983  0.0019 -0.1360 -0.2137
   6823SM  H12F 8889   4.213   2.402   6.992  0.1386 -0.3949  0.8547
   6823SM  H12G 8890   4.374   2.326   6.988 -1.7738 -1.0880  0.6568
   6823SM  C13F 8891   4.370   2.491   6.856  0.2107  0.4981  0.0800
   6823SM  H13F 8892   4.480   2.478   6.848  0.4003  2.7345 -2.9382
   6823SM  H13G 8893   4.357   2.601   6.850  1.0553  0.5477 -1.5249
   6823SM  C14F 8894   4.300   2.418   6.733 -0.6014  0.4926  0.1816
   6823SM  H14F 8895   4.190   2.433   6.737 -0.7988 -0.0649 -1.8584
   6823SM  H14G 8896   4.306   2.309   6.755  1.1362  0.3915 -0.6450
   6823SM  C15F 8897   4.360   2.443   6.593  0.2729  0.1412  0.7487
   6823SM  H15F 8898   4.375   2.551   6.572  0.5448 -0.2247 -1.1165
   6823SM  H15G 8899   4.290   2.399   6.519  0.6995 -1.5734  1.3154
   6823SM  C16F 8900   4.493   2.366   6.570  0.6509 -0.5168  0.2492
   6823SM  H16F 8901   4.482   2.257   6.591  0.8850 -0.5383  0.2687
   6823SM  H16G 8902   4.574   2.409   6.633  0.2747  2.2205 -0.9787
   6823SM  C17F 8903   4.528   2.371   6.421  1.0601 -0.0349 -0.6724
   6823SM  H17F 8904   4.527   2.475   6.383  1.7602  0.4068  0.4708
   6823SM  H17G 8905   4.447   2.318   6.365  0.1861  0.2424  0.2970
   6823SM  C18F 8906   4.665   2.300   6.410 -0.0983 -0.1882  0.1404
   6823SM  H18F 8907   4.663   2.201   6.459 -0.7516 -0.7220 -0.9294
   6823SM  H18G 8908   4.740   2.369   6.453 -2.1795  2.3218 -0.0066
   6823SM  C19F 8909   4.708   2.280   6.264  0.2514 -0.5844 -0.0089
   6823SM  H19F 8910   4.658   2.198   6.208  0.1250 -0.7171  0.2942
   6823SM  H19G 8911   4.810   2.236   6.271  0.7795  0.1462 -2.3259
   6823SM  C20F 8912   4.723   2.410   6.183  0.0801  0.3344  0.3768
   6823SM  H20F 8913   4.794   2.490   6.213 -1.9230  1.7784  1.4568
   6823SM  H20G 8914   4.627   2.464   6.174  0.7829  1.2125 -2.7285
   6823SM  C21F 8915   4.751   2.373   6.039 -0.8741 -0.1136  0.9146
   6823SM  H21F 8916   4.674   2.303   6.001  0.5445 -0.1958 -2.0447
   6823SM  H21G 8917   4.844   2.312   6.042 -0.6775  0.2154  2.2714
   6823SM  C22F 8918   4.747   2.489   5.942  0.0363  0.0206 -0.0686
   6823SM  H22F 8919   4.835   2.554   5.964 -0.0986  0.2280 -0.1334
   6823SM  H22G 8920   4.652   2.547   5.939  0.9324  1.5121 -2.5884
   6823SM  C23F 8921   4.791   2.454   5.798  0.7014 -0.6917 -0.5611
   6823SM  H23F 8922   4.720   2.381   5.754  1.0029 -0.3710 -1.6096
   6823SM  H23G 8923   4.885   2.395   5.803  1.0876 -0.0109  1.1030
   6823SM  H23H 8924   4.791   2.544   5.733 -1.7950 -2.4691 -3.2499
   6923SM     N 8925   5.646   4.562   9.401 -0.0683  0.4361  0.1460
   6923SM   C15 8926   5.728   4.612   9.284  0.2689 -0.5362  0.3274
   6923SM  H15A 8927   5.726   4.542   9.202  0.0952 -1.0003  0.7228
   6923SM  H15B 8928   5.834   4.617   9.304  0.0707  0.6824  1.1867
   6923SM  H15C 8929   5.687   4.703   9.243 -1.2831 -2.2133 -2.1256
   6923SM   C14 8930   5.687   4.424   9.433  0.1081 -0.1213  0.0888
   6923SM  H14A 8931   5.631   4.377   9.512  0.0359  0.8766  0.6506
   6923SM  H14B 8932   5.788   4.423   9.471 -0.0515  2.0055  0.7383
   6923SM  H14C 8933   5.695   4.355   9.351  2.4555 -1.7031  1.5642
   6923SM   C13 8934   5.641   4.652   9.522  0.5621 -0.0248  0.1388
   6923SM  H13A 8935   5.588   4.608   9.605  0.8711 -0.1379  0.2790
   6923SM  H13B 8936   5.588   4.743   9.498 -0.1841 -0.3746  0.4237
   6923SM  H13C 8937   5.741   4.666   9.561  0.9952  3.0127 -1.7346
   6923SM   C12 8938   5.500   4.560   9.350 -0.6775  0.6696 -0.5641
   6923SM  H12A 8939   5.438   4.502   9.417  0.4499  0.1098  0.0110
   6923SM  H12B 8940   5.488   4.507   9.256 -1.7381  0.0285 -0.0826
   6923SM   C11 8941   5.428   4.696   9.325  0.4944 -0.0832 -0.1796
   6923SM  H11A 8942   5.421   4.739   9.427  1.2011  1.6052 -0.8131
   6923SM  H11B 8943   5.325   4.674   9.290 -0.3671  0.9794  1.5701
   6923SM     P 8944   5.484   4.934   9.239  0.5413 -0.0318  0.0767
   6923SM   O13 8945   5.336   4.965   9.256  0.2359  0.5271  0.3925
   6923SM   O14 8946   5.578   4.997   9.333 -0.0302  0.4385 -0.6311
   6923SM   O11 8947   5.520   4.988   9.099 -0.7649  0.4597  0.0964
   6923SM   O12 8948   5.504   4.780   9.234 -0.6621 -0.1442 -0.1358
   6923SM   C1S 8949   5.488   4.901   8.986  0.6311 -0.2405 -0.9269
   6923SM   H1S 8950   5.377   4.898   8.972  0.6163 -0.5431 -0.7531
   6923SM   H1T 8951   5.518   4.796   9.004  0.1619  0.1168  2.5051
   6923SM    NF 8952   5.504   4.912   8.734 -0.0953 -0.1745  0.3198
   6923SM   HNF 8953   5.576   4.866   8.683 -0.2424  0.5305 -0.5514
   6923SM   C2S 8954   5.552   4.968   8.860  0.6231 -0.3235 -0.4168
   6923SM   H2S 8955   5.515   5.073   8.858  1.5899  0.0248 -0.2253
   6923SM   C3S 8956   5.709   4.993   8.882 -0.7730  0.2448 -0.3213
   6923SM   H3S 8957   5.747   4.891   8.903 -0.3645  1.1497  4.3933
   6923SM    O3 8958   5.747   5.067   8.994 -0.0233 -0.2249 -0.4015
   6923SM   HO3 8959   5.672   5.046   9.050  1.0572 -1.0376  0.8293
   6923SM   C4S 8960   5.776   5.045   8.754  0.0113 -0.3780  0.0641
   6923SM   H4S 8961   5.799   4.959   8.689 -0.0371 -1.0204  0.8789
   6923SM   C5S 8962   5.814   5.171   8.724  1.0414  0.0704  0.3790
   6923SM   H5S 8963   5.797   5.248   8.801  0.1963 -0.0972  0.3692
   6923SM   C6S 8964   5.892   5.207   8.598 -0.6623  0.0822 -0.5556
   6923SM   H6S 8965   6.000   5.208   8.624 -1.0089 -1.8518  1.1671
   6923SM   H6T 8966   5.870   5.308   8.557 -0.5516 -0.3594 -1.7408
   6923SM   C7S 8967   5.864   5.116   8.475  0.2380 -0.1102  0.2201
   6923SM   H7S 8968   5.758   5.085   8.467 -0.2236  0.7844  2.2110
   6923SM   H7T 8969   5.914   5.018   8.484 -0.8276 -0.7373 -0.4580
   6923SM   C8S 8970   5.916   5.171   8.340  0.0304  0.0828 -0.1163
   6923SM   H8S 8971   6.025   5.150   8.340 -0.3411 -2.1018 -0.8159
   6923SM   H8T 8972   5.912   5.282   8.335 -0.0338  0.0192 -2.2056
   6923SM   C9S 8973   5.853   5.109   8.212 -0.3582 -0.0564  0.0956
   6923SM   H9S 8974   5.744   5.099   8.226 -0.0836 -1.8257  1.2964
   6923SM   H9T 8975   5.882   5.003   8.198 -0.6904 -0.0763 -0.4415
   6923SM  C10S 8976   5.879   5.177   8.083 -0.1201 -0.2696  0.2718
   6923SM  H10S 8977   5.988   5.189   8.068 -0.3562  0.2092 -1.2235
   6923SM  H10T 8978   5.843   5.282   8.075  0.0858 -0.3542 -3.0543
   6923SM  C11S 8979   5.814   5.105   7.960 -0.1892 -0.0216 -0.4713
   6923SM  H11S 8980   5.704   5.117   7.967 -0.2067 -0.3679 -0.1548
   6923SM  H11T 8981   5.838   5.002   7.993  0.4161  1.0090  2.7150
   6923SM  C12S 8982   5.870   5.139   7.817 -0.5532  0.2347  0.0081
   6923SM  H12S 8983   5.970   5.090   7.808 -2.0471 -2.7465 -2.3939
   6923SM  H12T 8984   5.886   5.248   7.803 -1.8029  0.6377  1.5613
   6923SM  C13S 8985   5.768   5.078   7.728  0.0737  0.6075  0.4746
   6923SM  H13S 8986   5.688   5.152   7.709  0.8973  1.3759 -0.1247
   6923SM  H13T 8987   5.741   4.984   7.781  1.7848 -0.5467 -0.5729
   6923SM  C14S 8988   5.814   5.034   7.583 -0.7020 -0.0975  0.1147
   6923SM  H14S 8989   5.720   4.992   7.542  0.6890 -1.1197 -2.2065
   6923SM  H14T 8990   5.883   4.947   7.595  0.8803  1.2439  1.3331
   6923SM  C15S 8991   5.854   5.150   7.490  0.1224  0.0429 -0.3569
   6923SM  H15S 8992   5.939   5.210   7.529 -1.2933  0.8045  1.7044
   6923SM  H15T 8993   5.766   5.216   7.482  1.5113  1.8434 -1.8839
   6923SM  C16S 8994   5.902   5.106   7.348  0.9740  0.0738  0.3714
   6923SM  H16S 8995   6.006   5.065   7.348  1.8018  2.0393  1.0657
   6923SM  H16T 8996   5.907   5.205   7.299 -0.4395 -0.4080 -0.7823
   6923SM  C17S 8997   5.801   5.016   7.271  0.0517  0.2652 -0.8074
   6923SM  H17S 8998   5.787   4.927   7.336  0.5321  0.1153 -0.9077
   6923SM  H17T 8999   5.844   4.973   7.178 -0.6063 -2.3263 -0.0101
   6923SM  C18S 9000   5.657   5.070   7.234  0.3294  0.1566 -0.1899
   6923SM  H18S 9001   5.602   5.119   7.317  0.6268  0.8453 -0.3977
   6923SM  H18T 9002   5.595   4.986   7.194  0.5809  0.6986 -1.7732
   6923SM  H18U 9003   5.671   5.145   7.153 -0.4175 -1.3753 -1.8169
   6923SM   C1F 9004   5.382   4.921   8.685 -0.1883 -0.3882  0.3290
   6923SM    OF 9005   5.297   4.990   8.739 -0.0457  0.6344  0.2281
   6923SM   C2F 9006   5.357   4.833   8.562  0.0247  0.1156 -0.6096
   6923SM   H2F 9007   5.270   4.768   8.585  0.3410 -0.5477 -1.2425
   6923SM   H2G 9008   5.446   4.770   8.542 -1.4386 -1.8434 -1.3237
   6923SM   C3F 9009   5.312   4.903   8.435  0.3597 -0.2242 -0.1659
   6923SM   H3F 9010   5.222   4.965   8.455  2.0795  2.6421 -0.7725
   6923SM   H3G 9011   5.290   4.834   8.351 -0.3833  0.4042 -0.4947
   6923SM   C4F 9012   5.415   5.004   8.381 -0.0204  0.2388 -0.9590
   6923SM   H4F 9013   5.520   4.971   8.373  0.0297  0.3001 -0.5788
   6923SM   H4G 9014   5.414   5.090   8.451 -0.8749 -0.4829 -0.0537
   6923SM   C5F 9015   5.368   5.087   8.261 -0.5533 -1.0322  0.2097
   6923SM   H5F 9016   5.401   5.191   8.284 -0.1016 -1.3944  1.2689
   6923SM   H5G 9017   5.259   5.076   8.244 -0.2978 -0.7969 -1.8091
   6923SM   C6F 9018   5.430   5.051   8.123  0.2360  0.1275 -0.4341
   6923SM   H6F 9019   5.540   5.066   8.120 -0.0867  2.9034 -1.0717
   6923SM   H6G 9020   5.395   5.119   8.043 -2.2087 -1.4455 -0.7969
   6923SM   C7F 9021   5.394   4.902   8.090  0.1074  0.0263  0.3471
   6923SM   H7F 9022   5.286   4.880   8.097  0.5162 -1.5737  3.0052
   6923SM   H7G 9023   5.451   4.839   8.162 -0.2792 -0.1007  0.5440
   6923SM   C8F 9024   5.448   4.867   7.946 -0.0262 -0.1609 -0.1281
   6923SM   H8F 9025   5.439   4.759   7.922 -1.4531  0.3488 -2.0763
   6923SM   H8G 9026   5.553   4.902   7.935 -0.1616  2.0894  3.8089
   6923SM   C9F 9027   5.370   4.933   7.834  0.8765  0.1718  0.9135
   6923SM   H9F 9028   5.388   5.042   7.845 -0.8134  0.4729  0.9488
   6923SM   H9G 9029   5.261   4.922   7.856  0.6438  0.5940  0.0479
   6923SM  C10F 9030   5.404   4.887   7.686  0.0049  0.1163 -1.3262
   6923SM  H10F 9031   5.384   4.779   7.668  0.5805  0.3562 -3.8055
   6923SM  H10G 9032   5.513   4.904   7.673 -0.0852  2.7854  0.6073
   6923SM  C11F 9033   5.320   4.962   7.587 -0.6785 -0.4883 -0.6187
   6923SM  H11F 9034   5.351   5.068   7.591 -2.3654  0.0040  2.0492
   6923SM  H11G 9035   5.213   4.959   7.618 -0.0627 -1.3333  1.6412
   6923SM  C12F 9036   5.359   4.918   7.443  0.0567  0.2925  0.8521
   6923SM  H12F 9037   5.460   4.876   7.427 -0.3436  0.4790 -3.3717
   6923SM  H12G 9038   5.360   5.011   7.383  1.9061  0.0644  0.4790
   6923SM  C13F 9039   5.245   4.820   7.385  0.3966  0.0801 -0.3716
   6923SM  H13F 9040   5.150   4.876   7.367 -0.2881 -1.0187 -0.3120
   6923SM  H13G 9041   5.223   4.742   7.462 -0.0877  0.8138  0.2461
   6923SM  C14F 9042   5.294   4.759   7.259  0.0108  0.6805  0.0838
   6923SM  H14F 9043   5.226   4.678   7.225  0.2528 -0.1317  1.4640
   6923SM  H14G 9044   5.393   4.712   7.277 -0.1215  0.7871  1.1655
   6923SM  C15F 9045   5.312   4.854   7.141  0.3705 -1.3155  0.8555
   6923SM  H15F 9046   5.394   4.927   7.159 -1.0232  0.3017  0.9997
   6923SM  H15G 9047   5.226   4.923   7.125  2.1332  0.2539 -3.2380
   6923SM  C16F 9048   5.350   4.775   7.009 -0.4306  0.0735 -0.3102
   6923SM  H16F 9049   5.297   4.678   6.996 -0.7888  0.4669 -2.0975
   6923SM  H16G 9050   5.450   4.731   7.024  0.0539  0.6618 -1.6473
   6923SM  C17F 9051   5.340   4.872   6.891 -0.2829  0.0870 -0.4729
   6923SM  H17F 9052   5.233   4.901   6.884 -0.1591  0.2900 -1.8632
   6923SM  H17G 9053   5.367   4.820   6.797 -2.9142 -1.1837 -0.6261
   6923SM  C18F 9054   5.416   5.001   6.896 -0.1032 -0.7433 -0.5560
   6923SM  H18F 9055   5.411   5.059   6.991  1.3256 -1.0816 -0.2360
   6923SM  H18G 9056   5.374   5.073   6.823  0.6102  0.7012  0.4094
   6923SM  C19F 9057   5.563   4.978   6.866 -0.4959 -0.7103  0.2718
   6923SM  H19F 9058   5.569   4.918   6.772 -1.2308  1.6940 -1.4229
   6923SM  H19G 9059   5.604   4.919   6.950 -1.9726  0.1450  1.6469
   6923SM  C20F 9060   5.663   5.101   6.856 -0.2618  0.3118  0.5495
   6923SM  H20F 9061   5.664   5.158   6.951 -1.2776 -1.0599  1.4119
   6923SM  H20G 9062   5.637   5.169   6.771 -0.7336  1.0916  1.2988
   6923SM  C21F 9063   5.804   5.044   6.828  0.0893 -0.4638  0.2825
   6923SM  H21F 9064   5.826   4.958   6.895 -1.2528 -1.2129 -0.1925
   6923SM  H21G 9065   5.873   5.123   6.864 -2.1409  1.0453  1.5361
   6923SM  C22F 9066   5.827   5.009   6.679  0.3625 -0.4201 -0.5852
   6923SM  H22F 9067   5.803   5.094   6.612 -1.5714 -0.2993  0.2031
   6923SM  H22G 9068   5.762   4.922   6.654  0.2177 -0.4024 -0.2728
   6923SM  C23F 9069   5.967   4.957   6.655  0.4353  0.5496  0.0209
   6923SM  H23F 9070   5.986   4.973   6.547  4.4689  2.0695  0.7957
   6923SM  H23G 9071   5.985   4.848   6.667  0.8980  0.4202 -1.6400
   6923SM  H23H 9072   6.039   5.017   6.715  0.0410  1.0811 -0.0288
   7023SM     N 9073   3.040   2.970   8.816 -0.5142 -0.1007  0.0444
   7023SM   C15 9074   3.024   2.860   8.715  0.1506 -0.3692  0.2147
   7023SM  H15A 9075   2.958   2.779   8.745  1.1448 -2.2292 -2.3159
   7023SM  H15B 9076   3.117   2.806   8.708  1.1557  1.2472  0.5857
   7023SM  H15C 9077   3.002   2.898   8.617 -0.5747  1.0800  0.9024
   7023SM   C14 9078   2.902   3.023   8.835  0.2523  0.6414  0.1322
   7023SM  H14A 9079   2.833   2.942   8.854  2.8809 -1.6636  0.5810
   7023SM  H14B 9080   2.868   3.071   8.745  1.2449  0.2385 -0.4769
   7023SM  H14C 9081   2.892   3.093   8.917 -2.2157  1.1196 -0.4988
   7023SM   C13 9082   3.098   2.913   8.942 -0.4184  0.5250  0.4678
   7023SM  H13A 9083   3.055   2.819   8.973  0.4426  0.1739  0.6463
   7023SM  H13B 9084   3.092   2.985   9.022  3.5405  0.5053  0.9786
   7023SM  H13C 9085   3.204   2.903   8.923 -0.5311  2.9279 -2.0750
   7023SM   C12 9086   3.127   3.082   8.751 -0.2247 -0.0995  0.4032
   7023SM  H12A 9087   3.111   3.175   8.804 -1.2390 -0.9758  1.6772
   7023SM  H12B 9088   3.089   3.096   8.651 -2.0223 -0.5521  1.0005
   7023SM   C11 9089   3.280   3.060   8.734  0.0553  0.2813  0.3285
   7023SM  H11A 9090   3.318   3.118   8.648  1.2642 -2.2003 -0.9203
   7023SM  H11B 9091   3.292   2.952   8.709  0.9843  0.6161 -0.7031
   7023SM     P 9092   3.356   3.241   8.911  0.3492 -0.2227  0.0238
   7023SM   O13 9093   3.218   3.279   8.960  0.1547  0.2588  0.3464
   7023SM   O14 9094   3.471   3.253   9.004 -0.3511  0.2879 -0.0414
   7023SM   O11 9095   3.389   3.322   8.780 -0.8390 -0.4392 -0.3469
   7023SM   O12 9096   3.340   3.091   8.857 -0.2902 -0.3881 -0.2695
   7023SM   C1S 9097   3.522   3.341   8.732  0.3083  0.7481  0.4673
   7023SM   H1S 9098   3.585   3.249   8.729 -1.6902 -0.6663 -0.2179
   7023SM   H1T 9099   3.576   3.419   8.790  2.0746  1.1956 -1.6439
   7023SM    NF 9100   3.640   3.436   8.542  0.1719 -0.0953 -0.1330
   7023SM   HNF 9101   3.659   3.533   8.533 -0.5028 -0.0172 -0.8789
   7023SM   C2S 9102   3.512   3.398   8.589  0.0911 -0.2469  0.0923
   7023SM   H2S 9103   3.477   3.316   8.523  0.4032  1.1526 -1.9070
   7023SM   C3S 9104   3.402   3.517   8.568  0.3545  0.2778 -0.4950
   7023SM   H3S 9105   3.438   3.609   8.618 -2.0035  0.6596  0.6266
   7023SM    O3 9106   3.275   3.498   8.623 -0.0016  0.2818 -0.0299
   7023SM   HO3 9107   3.290   3.437   8.695  0.4940 -1.0549 -1.2182
   7023SM   C4S 9108   3.392   3.545   8.420  0.7005 -0.4512  0.0004
   7023SM   H4S 9109   3.447   3.625   8.368 -0.9725 -1.0589 -2.8853
   7023SM   C5S 9110   3.310   3.480   8.335 -0.3269 -0.3221  0.0666
   7023SM   H5S 9111   3.258   3.390   8.369  0.0738  0.2258  2.2959
   7023SM   C6S 9112   3.301   3.515   8.183 -0.9201  0.4832  0.2489
   7023SM   H6S 9113   3.377   3.586   8.142  0.8055 -1.4045  0.0173
   7023SM   H6T 9114   3.194   3.528   8.156 -0.7021 -1.3713 -1.7886
   7023SM   C7S 9115   3.340   3.387   8.107 -0.0120 -1.2025 -0.3710
   7023SM   H7S 9116   3.260   3.312   8.125  0.6018 -1.4312  1.6301
   7023SM   H7T 9117   3.433   3.343   8.148  0.1200 -0.6649 -0.0861
   7023SM   C8S 9118   3.356   3.396   7.952  0.0779 -0.0259  0.1944
   7023SM   H8S 9119   3.367   3.288   7.928  1.2135 -0.2808  1.7072
   7023SM   H8T 9120   3.450   3.454   7.936 -0.9843  1.5869 -0.4338
   7023SM   C9S 9121   3.252   3.475   7.880 -0.0176 -0.8686 -0.1496
   7023SM   H9S 9122   3.254   3.573   7.932 -0.7040 -0.6896 -0.4472
   7023SM   H9T 9123   3.147   3.441   7.896 -0.5002  0.1899 -0.9266
   7023SM  C10S 9124   3.282   3.491   7.734 -0.0929  1.1721  0.4943
   7023SM  H10S 9125   3.308   3.396   7.682  1.6735  2.2609 -0.7298
   7023SM  H10T 9126   3.374   3.551   7.722  1.5547 -1.4653 -1.1936
   7023SM  C11S 9127   3.174   3.547   7.649 -0.5315 -0.4970  0.2720
   7023SM  H11S 9128   3.147   3.651   7.679 -0.4594 -0.7903  1.4091
   7023SM  H11T 9129   3.081   3.489   7.668 -1.8260  1.4495  0.2055
   7023SM  C12S 9130   3.213   3.552   7.499 -0.2855  0.6175  0.4726
   7023SM  H12S 9131   3.247   3.453   7.462  1.2202  0.2464  2.6573
   7023SM  H12T 9132   3.300   3.622   7.497 -0.8638  1.4000  1.7792
   7023SM  C13S 9133   3.113   3.613   7.407  0.5399  0.2080 -0.4148
   7023SM  H13S 9134   3.102   3.720   7.435 -1.5450  0.1941 -0.9738
   7023SM  H13T 9135   3.011   3.569   7.417  0.6118  0.2156  0.4236
   7023SM  C14S 9136   3.159   3.608   7.259  0.4102 -0.3660 -0.0049
   7023SM  H14S 9137   3.266   3.638   7.257  0.7959 -1.6678 -0.1132
   7023SM  H14T 9138   3.083   3.676   7.217  0.6246  0.3209  0.7041
   7023SM  C15S 9139   3.147   3.469   7.193  0.3261  0.2039  0.2130
   7023SM  H15S 9140   3.062   3.425   7.250 -0.2704  1.0367 -0.0180
   7023SM  H15T 9141   3.248   3.430   7.217  0.3825  0.3437  0.2034
   7023SM  C16S 9142   3.123   3.487   7.039  0.0494 -0.0259 -0.8466
   7023SM  H16S 9143   3.189   3.564   6.994 -0.1735 -0.2020 -1.4893
   7023SM  H16T 9144   3.022   3.528   7.017  0.1234  1.1316  0.7871
   7023SM  C17S 9145   3.154   3.354   6.969  0.1258 -0.3086 -0.0698
   7023SM  H17S 9146   3.086   3.273   7.006  1.7448 -1.5335  0.3347
   7023SM  H17T 9147   3.259   3.322   6.989  0.0813  0.4741  1.6228
   7023SM  C18S 9148   3.142   3.365   6.813 -0.2228  0.1203  0.6649
   7023SM  H18S 9149   3.172   3.270   6.764  1.8718 -0.2404  2.4337
   7023SM  H18T 9150   3.207   3.449   6.781 -0.0806  0.6116  2.1702
   7023SM  H18U 9151   3.038   3.394   6.789  0.1569  0.1308 -1.0760
   7023SM   C1F 9152   3.738   3.348   8.525  0.1649  0.6380 -0.5176
   7023SM    OF 9153   3.722   3.227   8.531  0.1519  0.2205  0.1907
   7023SM   C2F 9154   3.873   3.405   8.520 -0.1269 -0.2087  0.2153
   7023SM   H2F 9155   3.944   3.357   8.591  1.6717  0.1863 -1.2362
   7023SM   H2G 9156   3.868   3.515   8.530 -0.4609  0.1156 -2.6318
   7023SM   C3F 9157   3.936   3.381   8.382  0.0458 -0.1722  0.3317
   7023SM   H3F 9158   3.949   3.272   8.362  0.8051  0.0112 -0.2320
   7023SM   H3G 9159   4.034   3.434   8.372 -0.4467  1.3136  2.6301
   7023SM   C4F 9160   3.842   3.422   8.265 -0.1727 -0.0806  0.3193
   7023SM   H4F 9161   3.785   3.516   8.285  0.1119  0.2552 -0.4065
   7023SM   H4G 9162   3.769   3.340   8.247  0.9832 -0.7502 -1.5411
   7023SM   C5F 9163   3.913   3.453   8.129  0.4863  0.2816 -0.1509
   7023SM   H5F 9164   3.968   3.360   8.101 -2.6148 -2.2103  1.2632
   7023SM   H5G 9165   3.988   3.532   8.146  0.4108  0.4190 -0.4519
   7023SM   C6F 9166   3.822   3.482   8.006 -0.1393  0.5260 -0.4583
   7023SM   H6F 9167   3.753   3.567   8.025 -0.1515  0.5245 -0.4939
   7023SM   H6G 9168   3.758   3.392   7.994 -0.8715  0.8718  0.7925
   7023SM   C7F 9169   3.904   3.493   7.882 -0.3037  0.8005  0.1715
   7023SM   H7F 9170   3.956   3.395   7.886 -2.0373 -0.1876 -0.4219
   7023SM   H7G 9171   3.973   3.579   7.886  0.0073  0.4993  2.0932
   7023SM   C8F 9172   3.824   3.500   7.745 -0.2258 -0.4280 -0.7767
   7023SM   H8F 9173   3.896   3.489   7.661  0.0704  3.1447 -1.1124
   7023SM   H8G 9174   3.784   3.603   7.750  0.9956  0.0361 -0.2954
   7023SM   C9F 9175   3.710   3.402   7.742  0.9884  0.6558 -0.0360
   7023SM   H9F 9176   3.640   3.416   7.827  1.9897  2.4148  0.5413
   7023SM   H9G 9177   3.746   3.297   7.752  0.0445  0.3925  0.8731
   7023SM  C10F 9178   3.611   3.407   7.620 -0.3331 -0.3532  0.7639
   7023SM  H10F 9179   3.576   3.512   7.605 -0.4563 -0.4114  0.6385
   7023SM  H10G 9180   3.518   3.348   7.639 -0.3674 -0.9462 -1.0571
   7023SM  C11F 9181   3.674   3.380   7.480 -0.1571 -0.0011 -0.8019
   7023SM  H11F 9182   3.702   3.273   7.486 -1.0013 -0.1780  0.2507
   7023SM  H11G 9183   3.761   3.447   7.472 -0.4212  0.5126  0.4735
   7023SM  C12F 9184   3.580   3.407   7.362 -0.1190 -0.1402 -0.0416
   7023SM  H12F 9185   3.539   3.510   7.365  3.7687  1.5723  0.5249
   7023SM  H12G 9186   3.497   3.333   7.365 -1.0608  0.7903 -1.5173
   7023SM  C13F 9187   3.649   3.388   7.223 -0.5980 -0.5921 -0.0511
   7023SM  H13F 9188   3.707   3.293   7.220  1.7811  0.7869 -0.3782
   7023SM  H13G 9189   3.719   3.471   7.200 -0.5841  0.3938  3.1010
   7023SM  C14F 9190   3.547   3.390   7.110  0.0193 -0.2491  0.4316
   7023SM  H14F 9191   3.496   3.489   7.107  2.0911  0.9602  1.8557
   7023SM  H14G 9192   3.472   3.310   7.129  0.9787 -2.0099 -2.5420
   7023SM  C15F 9193   3.619   3.361   6.975  0.7081  0.0770  0.0960
   7023SM  H15F 9194   3.695   3.281   6.984  0.6827  0.1985  1.9264
   7023SM  H15G 9195   3.675   3.449   6.937 -0.6489  0.2775 -1.5163
   7023SM  C16F 9196   3.519   3.331   6.856  0.8800  0.3590  0.4157
   7023SM  H16F 9197   3.428   3.394   6.870  2.0357  1.7775  1.8846
   7023SM  H16G 9198   3.492   3.223   6.863  0.4171  0.4812  0.5782
   7023SM  C17F 9199   3.590   3.353   6.721  0.5711  0.2931 -0.7663
   7023SM  H17F 9200   3.693   3.312   6.729 -0.0838 -1.6886 -1.7709
   7023SM  H17G 9201   3.588   3.454   6.674  0.0672 -0.5604 -2.6890
   7023SM  C18F 9202   3.527   3.275   6.606 -0.1368 -0.0493  0.1294
   7023SM  H18F 9203   3.435   3.329   6.578 -1.1336 -1.4562  0.5616
   7023SM  H18G 9204   3.493   3.179   6.650  0.5102 -0.0165  0.7355
   7023SM  C19F 9205   3.623   3.247   6.492  0.2673 -0.7053 -0.3485
   7023SM  H19F 9206   3.710   3.202   6.544 -0.3523 -0.5500  0.8482
   7023SM  H19G 9207   3.629   3.346   6.442 -2.6686  0.8430  2.0197
   7023SM  C20F 9208   3.565   3.158   6.390  0.5710 -0.0668  0.9160
   7023SM  H20F 9209   3.480   3.212   6.342  0.0869 -0.6184  1.1388
   7023SM  H20G 9210   3.517   3.071   6.440 -0.0852 -0.3725 -0.2027
   7023SM  C21F 9211   3.657   3.122   6.274 -0.4437 -0.2547  0.0799
   7023SM  H21F 9212   3.691   3.214   6.221  0.9506 -0.2226  0.9581
   7023SM  H21G 9213   3.611   3.047   6.206 -0.5436 -1.2013  1.1560
   7023SM  C22F 9214   3.790   3.054   6.324 -0.2984  0.7186 -0.2661
   7023SM  H22F 9215   3.751   2.960   6.368  1.0068  1.0623  1.7512
   7023SM  H22G 9216   3.834   3.117   6.404  0.4618 -0.2550  0.1102
   7023SM  C23F 9217   3.887   3.020   6.217  1.1466  0.4050 -0.1647
   7023SM  H23F 9218   3.834   2.945   6.154  1.7615  1.1880 -1.6617
   7023SM  H23G 9219   3.976   2.969   6.260 -0.5215 -1.3424  1.4369
   7023SM  H23H 9220   3.896   3.113   6.158  1.3131 -0.5370 -1.6907
   7123SM     N 9221   6.268   2.306   9.182 -0.2572 -0.0276 -0.5469
   7123SM   C15 9222   6.213   2.195   9.266 -0.8252  0.1316 -0.5274
   7123SM  H15A 9223   6.249   2.199   9.367 -0.3513 -1.3356 -0.6135
   7123SM  H15B 9224   6.227   2.098   9.219  0.0151  0.5573 -1.1868
   7123SM  H15C 9225   6.106   2.204   9.275 -0.6680  2.1250 -0.1435
   7123SM   C14 9226   6.196   2.312   9.054 -0.6674  0.5345  0.1522
   7123SM  H14A 9227   6.246   2.380   8.987  1.1995 -0.2135  0.7041
   7123SM  H14B 9228   6.093   2.341   9.073 -1.6138 -1.6063 -1.3182
   7123SM  H14C 9229   6.200   2.213   9.011 -1.4245 -0.5115  2.3501
   7123SM   C13 9230   6.260   2.441   9.253  0.0736 -0.0034 -0.4381
   7123SM  H13A 9231   6.161   2.481   9.271  0.7048  0.9369  1.1583
   7123SM  H13B 9232   6.316   2.509   9.192 -1.4592  0.2456 -1.6319
   7123SM  H13C 9233   6.306   2.431   9.350 -1.1957 -0.6728  0.1218
   7123SM   C12 9234   6.423   2.280   9.161  0.8271  0.4680  0.9193
   7123SM  H12A 9235   6.464   2.246   9.255  0.5941  1.1319  1.2610
   7123SM  H12B 9236   6.466   2.372   9.126 -1.7130  0.9807 -1.1938
   7123SM   C11 9237   6.451   2.167   9.060  0.2213  0.6133  0.1455
   7123SM  H11A 9238   6.385   2.079   9.073 -0.2857  0.6542 -1.9032
   7123SM  H11B 9239   6.553   2.133   9.088 -0.4778 -0.4437  1.5521
   7123SM     P 9240   6.560   2.295   8.861  0.2367 -0.0347 -0.2335
   7123SM   O13 9241   6.538   2.436   8.898  0.4725 -0.5863 -0.5248
   7123SM   O14 9242   6.685   2.230   8.900  0.5906  0.4943  0.2987
   7123SM   O11 9243   6.537   2.275   8.713 -0.2815  1.0436  0.4433
   7123SM   O12 9244   6.441   2.208   8.924 -0.4226  0.2355  0.2197
   7123SM   C1S 9245   6.544   2.138   8.665 -0.0809  0.2854 -0.7455
   7123SM   H1S 9246   6.469   2.074   8.715  2.5615 -2.0391  0.5364
   7123SM   H1T 9247   6.645   2.097   8.686 -0.0454 -0.6993 -2.5936
   7123SM    NF 9248   6.494   1.990   8.483 -0.3489 -0.0130 -0.1470
   7123SM   HNF 9249   6.574   1.949   8.439 -1.1451 -1.1036 -0.6361
   7123SM   C2S 9250   6.505   2.128   8.517  0.3680  0.7272 -0.4511
   7123SM   H2S 9251   6.405   2.175   8.521 -1.0671 -2.1586 -0.1758
   7123SM   C3S 9252   6.599   2.207   8.429  0.3048  0.1545 -0.0707
   7123SM   H3S 9253   6.693   2.149   8.419 -0.3594 -1.0405  0.2991
   7123SM    O3 9254   6.639   2.337   8.475  1.0273 -0.4358 -0.1140
   7123SM   HO3 9255   6.582   2.350   8.551 -0.5587 -1.1572 -1.1271
   7123SM   C4S 9256   6.541   2.220   8.292 -0.1365  0.3613 -0.3744
   7123SM   H4S 9257   6.597   2.170   8.211 -1.4295  1.3062 -1.8971
   7123SM   C5S 9258   6.429   2.291   8.265 -0.3274 -0.1380 -0.3724
   7123SM   H5S 9259   6.367   2.327   8.349  2.0808 -0.2941  1.5735
   7123SM   C6S 9260   6.374   2.293   8.120 -0.4349  0.1984 -0.3312
   7123SM   H6S 9261   6.369   2.394   8.074 -0.4440  1.1774  1.7271
   7123SM   H6T 9262   6.271   2.253   8.113  0.6824 -3.2059  0.7912
   7123SM   C7S 9263   6.466   2.217   8.013 -0.6109 -0.0383 -0.1778
   7123SM   H7S 9264   6.469   2.109   8.036 -0.1445 -0.2326 -1.0753
   7123SM   H7T 9265   6.566   2.266   8.015 -1.0776  0.9712 -0.5505
   7123SM   C8S 9266   6.409   2.226   7.871 -0.3926  0.0766 -0.4467
   7123SM   H8S 9267   6.399   2.334   7.850 -2.5348  0.5796  2.6013
   7123SM   H8T 9268   6.307   2.183   7.876  0.2818 -1.4951  2.6244
   7123SM   C9S 9269   6.487   2.172   7.753  0.2537  0.5884  1.1413
   7123SM   H9S 9270   6.500   2.061   7.755 -0.9748  0.4030  0.2619
   7123SM   H9T 9271   6.581   2.231   7.750 -1.1697  2.9476 -0.8919
   7123SM  C10S 9272   6.429   2.201   7.611  0.3998  0.1244  0.7093
   7123SM  H10S 9273   6.516   2.181   7.545  1.1134  1.5972  1.1680
   7123SM  H10T 9274   6.413   2.310   7.607  1.9350  0.3518  0.3377
   7123SM  C11S 9275   6.302   2.113   7.581  0.4287  0.2226 -0.1452
   7123SM  H11S 9276   6.233   2.139   7.664  2.9857 -0.2165  2.2518
   7123SM  H11T 9277   6.331   2.007   7.591  1.1799  0.4254 -0.0960
   7123SM  C12S 9278   6.231   2.134   7.443  0.1105  0.4070 -0.1497
   7123SM  H12S 9279   6.207   2.242   7.433 -0.0230  0.2344 -2.0409
   7123SM  H12T 9280   6.138   2.074   7.450 -0.4754  1.4348  1.7854
   7123SM  C13S 9281   6.334   2.108   7.330  0.0386  0.3536 -0.9388
   7123SM  H13S 9282   6.376   2.006   7.321  1.5539  0.8532  0.1217
   7123SM  H13T 9283   6.424   2.172   7.342  0.6860 -0.9560  2.3357
   7123SM  C14S 9284   6.274   2.143   7.200  0.8324  0.0950 -0.4374
   7123SM  H14S 9285   6.191   2.073   7.177  1.4512 -0.4063 -1.1870
   7123SM  H14T 9286   6.347   2.131   7.117  2.1047  4.0427 -0.0997
   7123SM  C15S 9287   6.219   2.293   7.184 -0.4968  0.1239 -0.0873
   7123SM  H15S 9288   6.297   2.360   7.227  1.2406 -0.4874 -2.1302
   7123SM  H15T 9289   6.123   2.302   7.241 -0.3833  1.0422 -0.0244
   7123SM  C16S 9290   6.193   2.327   7.040  0.2711 -0.1481  0.2932
   7123SM  H16S 9291   6.284   2.318   6.977  0.3689 -0.1994  0.4405
   7123SM  H16T 9292   6.169   2.436   7.043 -2.9234 -0.7370 -0.3896
   7123SM  C17S 9293   6.073   2.258   6.975  0.7752  0.1156  0.0406
   7123SM  H17S 9294   5.977   2.281   7.025  1.1921 -1.6408  1.7962
   7123SM  H17T 9295   6.074   2.147   6.985 -2.0229 -0.0246 -0.5111
   7123SM  C18S 9296   6.066   2.285   6.824  0.6236 -0.0234  0.0512
   7123SM  H18S 9297   6.142   2.226   6.769 -0.3668 -2.1650  0.8410
   7123SM  H18T 9298   6.067   2.392   6.796 -1.0148 -0.2862 -1.1853
   7123SM  H18U 9299   5.970   2.237   6.796  0.4252 -0.0443  0.7404
   7123SM   C1F 9300   6.392   1.912   8.521  0.1079 -0.4551  0.5729
   7123SM    OF 9301   6.305   1.947   8.597  0.0825 -0.4537 -0.5126
   7123SM   C2F 9302   6.394   1.777   8.457  0.4250 -0.0047 -0.1344
   7123SM   H2F 9303   6.387   1.703   8.539  2.2912  2.0632  2.0283
   7123SM   H2G 9304   6.489   1.758   8.404 -0.0071 -2.5864 -0.0952
   7123SM   C3F 9305   6.280   1.756   8.355 -0.0594  0.2183 -0.0961
   7123SM   H3F 9306   6.189   1.766   8.418  0.6036 -1.1522  1.1130
   7123SM   H3G 9307   6.272   1.650   8.325 -1.7009  0.3369 -0.1687
   7123SM   C4F 9308   6.269   1.863   8.248 -0.5215 -0.4640  0.4930
   7123SM   H4F 9309   6.251   1.967   8.283 -0.2074  0.2349 -1.3167
   7123SM   H4G 9310   6.183   1.840   8.182 -1.0960  1.2473  0.5865
   7123SM   C5F 9311   6.393   1.855   8.157 -0.0690 -0.2303  0.3423
   7123SM   H5F 9312   6.434   1.752   8.165 -2.5343 -1.3323 -0.2384
   7123SM   H5G 9313   6.460   1.930   8.205 -2.0646  2.0803 -0.2447
   7123SM   C6F 9314   6.356   1.890   8.009  0.0451 -0.0977 -0.3175
   7123SM   H6F 9315   6.451   1.904   7.952  1.2723 -0.8229  1.4614
   7123SM   H6G 9316   6.308   1.990   8.011  0.6732  0.2142 -0.5066
   7123SM   C7F 9317   6.249   1.800   7.941 -0.1277  0.3847 -0.0760
   7123SM   H7F 9318   6.147   1.831   7.971  0.5484  1.5511  1.1244
   7123SM   H7G 9319   6.263   1.697   7.981 -0.8930  0.0039 -0.7649
   7123SM   C8F 9320   6.265   1.800   7.786  0.0964  0.6626  0.3139
   7123SM   H8F 9321   6.374   1.785   7.769  0.0261  1.6671 -1.1495
   7123SM   H8G 9322   6.229   1.900   7.752 -0.6801  0.2499 -0.1025
   7123SM   C9F 9323   6.176   1.709   7.702  0.6706 -0.4839 -0.0293
   7123SM   H9F 9324   6.068   1.722   7.723  1.1934 -1.2074  3.8475
   7123SM   H9G 9325   6.197   1.603   7.727  1.2425 -0.4798 -0.4547
   7123SM  C10F 9326   6.214   1.732   7.548  0.5172  0.2159 -0.2231
   7123SM  H10F 9327   6.323   1.723   7.531  0.6640  1.8288 -0.2520
   7123SM  H10G 9328   6.185   1.829   7.502  1.8084 -0.7629 -3.3461
   7123SM  C11F 9329   6.129   1.633   7.465  0.3784 -0.2713  0.4643
   7123SM  H11F 9330   6.022   1.661   7.467  0.2372 -0.6460 -0.6898
   7123SM  H11G 9331   6.142   1.531   7.508 -1.4718 -1.2588 -1.1757
   7123SM  C12F 9332   6.176   1.611   7.320  0.4848  0.3690  0.2933
   7123SM  H12F 9333   6.100   1.540   7.281 -0.1227  1.7135 -1.0624
   7123SM  H12G 9334   6.274   1.563   7.298 -0.6193 -1.0656 -1.7664
   7123SM  C13F 9335   6.166   1.734   7.231  0.5351 -0.0194 -0.3506
   7123SM  H13F 9336   6.269   1.776   7.229  1.1581 -1.4419  0.2296
   7123SM  H13G 9337   6.103   1.817   7.272 -0.7320 -0.9394 -0.3707
   7123SM  C14F 9338   6.125   1.697   7.091  0.4522 -0.5160  0.1576
   7123SM  H14F 9339   6.188   1.610   7.063  0.2620 -0.7789  0.5331
   7123SM  H14G 9340   6.145   1.775   7.014 -0.5944 -0.2370  0.1421
   7123SM  C15F 9341   5.983   1.649   7.068 -0.3294  0.1594  0.6752
   7123SM  H15F 9342   5.920   1.740   7.058  0.7876  0.7972 -1.0397
   7123SM  H15G 9343   5.954   1.590   7.157  0.2320 -0.3620  0.5146
   7123SM  C16F 9344   5.950   1.570   6.938  0.4093  0.3091 -0.6191
   7123SM  H16F 9345   6.018   1.484   6.954 -0.4927 -0.9744 -3.0797
   7123SM  H16G 9346   5.998   1.626   6.855 -0.7297  1.3455 -0.6007
   7123SM  C17F 9347   5.801   1.525   6.935 -0.3873 -0.4930  0.0606
   7123SM  H17F 9348   5.735   1.613   6.926  0.0868 -0.0837  0.5492
   7123SM  H17G 9349   5.776   1.468   7.027 -1.7026 -0.8300 -0.4780
   7123SM  C18F 9350   5.768   1.442   6.806 -0.3724  0.2077 -0.0902
   7123SM  H18F 9351   5.817   1.488   6.719 -0.8318  0.9885  0.0534
   7123SM  H18G 9352   5.657   1.446   6.794 -0.4860  1.2576  1.0516
   7123SM  C19F 9353   5.823   1.299   6.830  0.7933 -0.5374  0.5214
   7123SM  H19F 9354   5.774   1.248   6.915 -0.3844 -0.2243  0.0491
   7123SM  H19G 9355   5.928   1.318   6.861 -0.4011  2.6254  3.2717
   7123SM  C20F 9356   5.820   1.223   6.701  1.5137  0.2193 -0.3651
   7123SM  H20F 9357   5.882   1.266   6.619  0.9246  0.2131 -0.8276
   7123SM  H20G 9358   5.712   1.215   6.674  1.4536 -0.6456  0.0969
   7123SM  C21F 9359   5.871   1.077   6.705  0.1179  0.7304  0.2034
   7123SM  H21F 9360   5.819   1.026   6.789 -0.3162  0.6520 -0.1066
   7123SM  H21G 9361   5.981   1.083   6.717 -0.0710  0.9667  2.0679
   7123SM  C22F 9362   5.847   0.987   6.578 -0.1001  0.0949  0.3660
   7123SM  H22F 9363   5.916   1.018   6.496 -1.1711  1.6217 -0.0090
   7123SM  H22G 9364   5.743   1.008   6.544 -0.5422 -1.7982  0.4672
   7123SM  C23F 9365   5.863   0.834   6.604  0.4485  0.4304  0.3651
   7123SM  H23F 9366   5.803   0.800   6.691  2.9356 -2.1996  1.2194
   7123SM  H23G 9367   5.969   0.811   6.628  0.2565 -1.1838 -0.1964
   7123SM  H23H 9368   5.839   0.772   6.515 -2.1822 -0.5422  1.6470
   7223SM     N 9369   6.148   5.753   9.541 -0.1096  0.3361 -0.1244
   7223SM   C15 9370   6.004   5.783   9.564  0.2065  0.9710  0.7598
   7223SM  H15A 9371   5.974   5.875   9.515 -3.0545 -0.2035  0.2952
   7223SM  H15B 9372   5.983   5.807   9.667  0.5043  1.7529  0.6468
   7223SM  H15C 9373   5.940   5.699   9.542  2.0856 -0.3662  0.1354
   7223SM   C14 9374   6.229   5.878   9.564 -0.3015 -0.4128 -0.0130
   7223SM  H14A 9375   6.333   5.853   9.579 -0.6014 -1.5777  0.1645
   7223SM  H14B 9376   6.188   5.926   9.652  0.1724  1.7441 -0.9016
   7223SM  H14C 9377   6.227   5.957   9.490  1.4602 -0.5672 -0.2661
   7223SM   C13 9378   6.196   5.647   9.641  0.2102  0.2579 -0.0541
   7223SM  H13A 9379   6.142   5.553   9.638 -0.0286  0.4091 -1.0140
   7223SM  H13B 9380   6.197   5.689   9.740  0.9271  0.4499 -0.1371
   7223SM  H13C 9381   6.296   5.614   9.615  0.5402  1.5051 -0.4068
   7223SM   C12 9382   6.165   5.707   9.401  0.1715 -0.0461  0.4212
   7223SM  H12A 9383   6.126   5.780   9.333  1.0633 -1.4609 -1.7007
   7223SM  H12B 9384   6.112   5.617   9.372  0.3086 -0.7308  2.1396
   7223SM   C11 9385   6.309   5.692   9.346  0.9294  0.1489 -0.0711
   7223SM  H11A 9386   6.353   5.793   9.329 -0.1703  0.5747 -0.4834
   7223SM  H11B 9387   6.296   5.670   9.238 -1.2502 -0.8382  0.3309
   7223SM     P 9388   6.385   5.451   9.374  0.0725 -0.0356 -0.2525
   7223SM   O13 9389   6.501   5.384   9.437 -0.0553  0.8402  0.0157
   7223SM   O14 9390   6.250   5.389   9.399 -0.3613  0.4484  0.4546
   7223SM   O11 9391   6.406   5.466   9.218 -0.4965  0.3949 -0.1854
   7223SM   O12 9392   6.381   5.601   9.422  0.6141  0.2281  0.1061
   7223SM   C1S 9393   6.440   5.351   9.141  0.2102 -0.1027 -0.4337
   7223SM   H1S 9394   6.349   5.290   9.127 -1.8328  3.0840 -2.3672
   7223SM   H1T 9395   6.517   5.286   9.189 -0.8740 -2.4877 -1.8002
   7223SM    NF 9396   6.543   5.266   8.934  0.1069  0.2140  0.3686
   7223SM   HNF 9397   6.641   5.251   8.919  0.0333 -0.1396  0.2398
   7223SM   C2S 9398   6.496   5.392   8.996  0.5055  0.5396 -0.5091
   7223SM   H2S 9399   6.413   5.433   8.936 -1.1855 -0.9368  0.7183
   7223SM   C3S 9400   6.610   5.507   9.015 -0.0203  0.7729  0.1098
   7223SM   H3S 9401   6.689   5.452   9.070  1.5567  1.9667 -0.8702
   7223SM    O3 9402   6.578   5.613   9.098  0.4897  0.0493 -0.0718
   7223SM   HO3 9403   6.496   5.583   9.136 -0.2746  0.1938 -1.5178
   7223SM   C4S 9404   6.668   5.544   8.884  0.5889  0.1749  0.0205
   7223SM   H4S 9405   6.758   5.482   8.866 -0.8613 -2.0874  0.2270
   7223SM   C5S 9406   6.618   5.632   8.791 -0.3211  0.4080 -0.3292
   7223SM   H5S 9407   6.528   5.695   8.803  0.5398  1.5373  0.3983
   7223SM   C6S 9408   6.677   5.639   8.648 -0.3380  0.1377  0.1755
   7223SM   H6S 9409   6.698   5.746   8.630  1.4990 -0.6439 -3.2790
   7223SM   H6T 9410   6.603   5.615   8.568  0.7180  0.0042 -0.7853
   7223SM   C7S 9411   6.801   5.554   8.616  0.2458  0.0324  0.2696
   7223SM   H7S 9412   6.784   5.445   8.625  0.5382 -0.0207  0.1770
   7223SM   H7T 9413   6.878   5.581   8.692  0.4423  2.1767 -0.6105
   7223SM   C8S 9414   6.860   5.578   8.475 -0.5533  0.0561  0.7476
   7223SM   H8S 9415   6.946   5.511   8.458 -1.1120 -1.1307  2.3528
   7223SM   H8T 9416   6.901   5.681   8.475 -2.8734  1.0442  0.1974
   7223SM   C9S 9417   6.767   5.550   8.360 -0.0817  0.0134 -0.5736
   7223SM   H9S 9418   6.689   5.629   8.358 -1.6950 -1.5292 -1.6179
   7223SM   H9T 9419   6.712   5.458   8.389  0.2831  0.5790  2.1884
   7223SM  C10S 9420   6.843   5.568   8.226  0.0936  0.0350  0.3327
   7223SM  H10S 9421   6.931   5.502   8.212  0.1500  0.5106 -1.9553
   7223SM  H10T 9422   6.885   5.670   8.237 -1.5273  0.5320  2.8554
   7223SM  C11S 9423   6.748   5.573   8.104  0.0706  0.0946  0.9547
   7223SM  H11S 9424   6.706   5.676   8.107  1.4602  0.6610  2.6773
   7223SM  H11T 9425   6.672   5.491   8.110  0.4918 -0.4651 -0.7606
   7223SM  C12S 9426   6.815   5.550   7.968 -0.2787 -0.8407 -0.3622
   7223SM  H12S 9427   6.871   5.455   7.958  1.3635  0.0461 -0.1372
   7223SM  H12T 9428   6.892   5.629   7.952  0.3049 -1.3175  0.0444
   7223SM  C13S 9429   6.721   5.536   7.847  0.0675 -0.1147  0.3061
   7223SM  H13S 9430   6.666   5.632   7.836  0.1522  0.2019  2.2939
   7223SM  H13T 9431   6.642   5.460   7.869 -0.6633  0.2330 -0.9923
   7223SM  C14S 9432   6.790   5.507   7.711  0.6970 -0.1655  0.1519
   7223SM  H14S 9433   6.825   5.401   7.717 -0.0044 -0.6990 -2.9658
   7223SM  H14T 9434   6.878   5.571   7.691  0.5176  0.1058  0.2326
   7223SM  C15S 9435   6.694   5.502   7.591  0.3871 -0.7682  0.1535
   7223SM  H15S 9436   6.635   5.595   7.577 -0.7895 -1.5005  0.0794
   7223SM  H15T 9437   6.624   5.417   7.601  0.1996 -0.8341 -1.4156
   7223SM  C16S 9438   6.771   5.459   7.466 -0.0660 -0.1846  0.1984
   7223SM  H16S 9439   6.824   5.361   7.469  2.5099  1.0683 -1.2330
   7223SM  H16T 9440   6.853   5.532   7.446 -0.2961  1.2931  3.8625
   7223SM  C17S 9441   6.682   5.460   7.340 -0.6576 -0.3213 -0.3011
   7223SM  H17S 9442   6.639   5.561   7.326  1.7335  1.4157  3.3953
   7223SM  H17T 9443   6.601   5.385   7.354 -0.8128 -0.0663  0.1719
   7223SM  C18S 9444   6.762   5.427   7.210  0.2394  0.1017  0.2630
   7223SM  H18S 9445   6.822   5.334   7.225  0.9908  0.8466  2.1567
   7223SM  H18T 9446   6.844   5.496   7.181  1.6842 -2.1864 -1.4638
   7223SM  H18U 9447   6.699   5.391   7.126 -2.1307 -1.1887  2.4591
   7223SM   C1F 9448   6.469   5.160   8.894 -0.3573  0.8309  0.5090
   7223SM    OF 9449   6.349   5.152   8.897 -0.1574 -0.2394  0.4154
   7223SM   C2F 9450   6.558   5.049   8.850 -0.5182 -0.3767  0.2934
   7223SM   H2F 9451   6.511   4.949   8.864 -0.5959 -0.6775 -1.7790
   7223SM   H2G 9452   6.653   5.053   8.907  1.5336  0.4076 -2.9245
   7223SM   C3F 9453   6.615   5.049   8.704  0.1644  0.6579  0.8293
   7223SM   H3F 9454   6.550   4.996   8.631  0.4484  0.2783  0.8467
   7223SM   H3G 9455   6.702   4.980   8.701  0.8503  1.4533  1.7261
   7223SM   C4F 9456   6.672   5.179   8.656  0.2566  0.1750 -0.0252
   7223SM   H4F 9457   6.728   5.222   8.742 -1.3109  1.3195  0.4936
   7223SM   H4G 9458   6.591   5.251   8.631  1.1299  0.1237 -3.6007
   7223SM   C5F 9459   6.755   5.158   8.528  0.0058 -0.5573 -0.9465
   7223SM   H5F 9460   6.840   5.087   8.542 -1.3328 -1.8230  1.2377
   7223SM   H5G 9461   6.797   5.259   8.508  0.7455 -0.4566  0.9142
   7223SM   C6F 9462   6.667   5.105   8.410 -0.4969  0.2185  1.1854
   7223SM   H6F 9463   6.573   5.165   8.406 -0.6112  0.0842 -3.4345
   7223SM   H6G 9464   6.656   4.996   8.423  2.1799 -0.1047  1.2551
   7223SM   C7F 9465   6.736   5.137   8.275  0.2966 -0.2882 -0.0611
   7223SM   H7F 9466   6.819   5.064   8.271  1.3050  0.1831  5.2660
   7223SM   H7G 9467   6.775   5.240   8.261 -0.8892  0.1015 -0.6957
   7223SM   C8F 9468   6.646   5.115   8.145  0.1595 -0.3209 -0.3025
   7223SM   H8F 9469   6.591   5.210   8.128 -1.4714 -1.2433 -0.3345
   7223SM   H8G 9470   6.574   5.035   8.168 -1.7152  1.0164 -1.2344
   7223SM   C9F 9471   6.734   5.097   8.021 -0.0381 -0.1462 -0.1594
   7223SM   H9F 9472   6.781   4.997   8.027  1.0568  0.1035 -3.0173
   7223SM   H9G 9473   6.817   5.171   8.011 -0.8844  0.5582 -2.8633
   7223SM  C10F 9474   6.666   5.104   7.887  0.3713 -0.5904  1.1570
   7223SM  H10F 9475   6.610   5.200   7.878  0.6080 -0.4520  1.1396
   7223SM  H10G 9476   6.585   5.029   7.884 -1.2224  1.0432  1.7973
   7223SM  C11F 9477   6.759   5.069   7.765  0.4031  0.4697 -0.4748
   7223SM  H11F 9478   6.786   4.964   7.788 -0.3823  0.4016  0.1658
   7223SM  H11G 9479   6.849   5.134   7.767  1.6527 -1.1298 -1.7776
   7223SM  C12F 9480   6.674   5.082   7.637  0.1344 -0.0575 -0.0103
   7223SM  H12F 9481   6.633   5.185   7.629 -0.7852 -0.4931 -1.2438
   7223SM  H12G 9482   6.582   5.021   7.628  0.9246 -1.3349  0.3542
   7223SM  C13F 9483   6.756   5.045   7.515  0.4751  0.1010  0.3701
   7223SM  H13F 9484   6.795   4.943   7.538  0.2794 -0.3814 -1.2642
   7223SM  H13G 9485   6.839   5.116   7.497 -0.7220  1.6219  0.6446
   7223SM  C14F 9486   6.675   5.042   7.387  0.2800 -0.2067  0.7661
   7223SM  H14F 9487   6.632   5.143   7.371  1.1283  0.1234  0.5209
   7223SM  H14G 9488   6.592   4.969   7.401 -0.7211  1.1946  2.4026
   7223SM  C15F 9489   6.766   5.012   7.269 -0.1558 -0.7657 -0.9031
   7223SM  H15F 9490   6.826   4.922   7.291  0.4221 -0.0832  0.4556
   7223SM  H15G 9491   6.842   5.091   7.253  0.3195 -0.6454  1.5249
   7223SM  C16F 9492   6.691   4.990   7.131 -0.6894  0.1001 -1.0527
   7223SM  H16F 9493   6.605   5.059   7.121 -0.2450  1.3262  2.2292
   7223SM  H16G 9494   6.647   4.889   7.147 -2.7748  1.3195  1.9021
   7223SM  C17F 9495   6.788   5.001   7.010  0.4196  0.3274 -0.1731
   7223SM  H17F 9496   6.863   4.918   7.014 -0.7296 -0.6867  2.2805
   7223SM  H17G 9497   6.851   5.092   7.021  0.6108  0.5533 -2.6107
   7223SM  C18F 9498   6.724   5.020   6.877  0.0109  0.6027  0.8203
   7223SM  H18F 9499   6.662   5.112   6.882 -2.0458 -0.6042 -0.8872
   7223SM  H18G 9500   6.661   4.935   6.844  2.0839 -0.9708  0.7007
   7223SM  C19F 9501   6.827   5.038   6.763  0.1298  0.1108 -0.5748
   7223SM  H19F 9502   6.893   4.950   6.767 -1.5150 -1.2094 -1.2251
   7223SM  H19G 9503   6.877   5.130   6.800 -1.8747  0.4247  1.6404
   7223SM  C20F 9504   6.771   5.052   6.627  0.5402  0.4469 -0.2798
   7223SM  H20F 9505   6.846   5.090   6.553  1.7077 -1.5118 -0.1564
   7223SM  H20G 9506   6.699   5.137   6.622 -1.4610 -1.1396  0.2032
   7223SM  C21F 9507   6.713   4.922   6.564  0.2839 -0.3184 -0.2229
   7223SM  H21F 9508   6.625   4.897   6.628  0.1576  0.7923  0.0622
   7223SM  H21G 9509   6.783   4.837   6.576  0.9193  0.2963  0.4980
   7223SM  C22F 9510   6.657   4.935   6.423 -0.3710 -0.1038  0.1917
   7223SM  H22F 9511   6.570   5.004   6.428 -0.1313  0.1208  1.2962
   7223SM  H22G 9512   6.626   4.835   6.385 -1.2621 -0.4623  1.7651
   7223SM  C23F 9513   6.759   4.996   6.329  0.2828 -0.7234 -0.2696
   7223SM  H23F 9514   6.768   5.105   6.346 -2.5212 -0.4359 -0.2277
   7223SM  H23G 9515   6.737   4.979   6.222  1.8219 -2.6454 -0.3457
   7223SM  H23H 9516   6.854   4.942   6.347 -1.2797 -3.5231  0.1794
   7323SM     N 9517   5.294   2.947   9.056 -0.2611 -0.4064 -0.1318
   7323SM   C15 9518   5.333   2.851   8.950 -0.3027 -0.1449 -0.5143
   7323SM  H15A 9519   5.284   2.878   8.858 -0.0594 -1.0940 -0.9343
   7323SM  H15B 9520   5.297   2.753   8.979 -0.1594 -0.2789 -0.7878
   7323SM  H15C 9521   5.441   2.851   8.949 -0.1565  0.0935  3.2055
   7323SM   C14 9522   5.147   2.931   9.078 -0.3034 -0.3578 -0.3449
   7323SM  H14A 9523   5.118   2.836   9.122  0.6143  0.2504  1.7169
   7323SM  H14B 9524   5.099   2.958   8.985 -0.5588 -0.2333 -0.1797
   7323SM  H14C 9525   5.116   3.000   9.156 -1.5430 -1.2541 -0.0090
   7323SM   C13 9526   5.369   2.911   9.190 -0.0840 -0.0969  0.0538
   7323SM  H13A 9527   5.332   2.816   9.225 -1.3202  0.5101  0.4449
   7323SM  H13B 9528   5.351   2.985   9.266  0.5079  0.2783 -0.1681
   7323SM  H13C 9529   5.474   2.915   9.165 -0.5904  1.5298 -2.1347
   7323SM   C12 9530   5.337   3.082   9.008  0.3061  0.0880 -0.4066
   7323SM  H12A 9531   5.283   3.109   8.918  0.5833  0.3230 -0.5034
   7323SM  H12B 9532   5.432   3.057   8.964  0.3016  0.3078 -0.5429
   7323SM   C11 9533   5.355   3.200   9.104  0.2632  0.1740 -0.1567
   7323SM  H11A 9534   5.388   3.285   9.040  3.8290 -0.8330  0.1363
   7323SM  H11B 9535   5.440   3.188   9.174 -0.9937 -1.3190  1.2161
   7323SM     P 9536   5.119   3.297   9.096  0.2441 -0.0114  0.6073
   7323SM   O13 9537   4.993   3.277   9.164  0.0235 -0.3377 -0.3035
   7323SM   O14 9538   5.174   3.437   9.093  0.6951  0.2953  0.1176
   7323SM   O11 9539   5.110   3.246   8.943  0.1643  0.6601  0.4788
   7323SM   O12 9540   5.230   3.216   9.170 -0.2847 -0.0344  0.5522
   7323SM   C1S 9541   5.011   3.308   8.858 -0.2353 -0.0529 -0.6668
   7323SM   H1S 9542   5.033   3.416   8.844 -2.3493  0.4387 -0.6357
   7323SM   H1T 9543   4.909   3.304   8.904 -0.3260 -0.7485 -0.9126
   7323SM    NF 9544   4.938   3.359   8.626 -0.3061 -0.6264 -0.3992
   7323SM   HNF 9545   4.843   3.345   8.601 -0.4257 -0.9398  0.1901
   7323SM   C2S 9546   5.003   3.254   8.712 -0.0036 -0.1318  0.1488
   7323SM   H2S 9547   5.113   3.257   8.693  0.3437  2.0516  2.0459
   7323SM   C3S 9548   4.950   3.106   8.714 -0.2658 -0.1303 -0.8771
   7323SM   H3S 9549   4.849   3.108   8.759 -0.6879  0.5206 -1.8273
   7323SM    O3 9550   5.024   3.021   8.803  0.1902  0.4314  1.3673
   7323SM   HO3 9551   5.057   3.088   8.863 -0.3565  1.8599  0.1376
   7323SM   C4S 9552   4.948   3.059   8.569 -0.5627  0.0037 -0.1396
   7323SM   H4S 9553   4.851   3.074   8.519 -0.0191 -1.1238 -1.5979
   7323SM   C5S 9554   5.059   3.013   8.508  0.1523 -0.3882 -0.2293
   7323SM   H5S 9555   5.161   3.016   8.549  0.0393  2.9567  0.1557
   7323SM   C6S 9556   5.058   2.975   8.362 -0.6839 -0.0289  0.3218
   7323SM   H6S 9557   4.979   2.902   8.334 -0.4709 -0.9053  1.8939
   7323SM   H6T 9558   5.155   2.930   8.331 -0.5767  1.1342 -1.1339
   7323SM   C7S 9559   5.034   3.088   8.256 -0.3107  0.0891  0.2035
   7323SM   H7S 9560   5.091   3.182   8.271  2.8122 -1.5151 -0.7005
   7323SM   H7T 9561   4.934   3.121   8.292 -0.8420 -1.1645 -0.0469
   7323SM   C8S 9562   5.040   3.031   8.119 -1.0417 -0.1947  0.1068
   7323SM   H8S 9563   4.943   2.976   8.113 -0.4973 -1.3376  1.2363
   7323SM   H8T 9564   5.129   2.965   8.114  0.7419  2.1025 -0.2879
   7323SM   C9S 9565   5.034   3.138   8.010  0.3134  0.6246  0.5349
   7323SM   H9S 9566   5.123   3.205   8.006 -0.6629  1.9565  0.7311
   7323SM   H9T 9567   4.941   3.195   8.029  0.5264  1.4384 -0.7912
   7323SM  C10S 9568   5.018   3.069   7.872  0.3180 -0.1649 -0.4958
   7323SM  H10S 9569   4.935   2.996   7.877 -3.1904  3.5401  0.5849
   7323SM  H10T 9570   5.110   3.011   7.845  0.2291 -0.3733 -0.3524
   7323SM  C11S 9571   4.988   3.170   7.759  0.2894 -0.0724 -0.0638
   7323SM  H11S 9572   5.077   3.236   7.751  0.3448 -0.0689  0.5356
   7323SM  H11T 9573   4.898   3.235   7.771 -0.3839 -1.1576  1.0914
   7323SM  C12S 9574   4.970   3.087   7.625 -0.0276  0.7311  0.0216
   7323SM  H12S 9575   4.877   3.026   7.635  1.4168 -2.1739 -2.6038
   7323SM  H12T 9576   5.062   3.027   7.611 -0.5982  0.2813 -2.2625
   7323SM  C13S 9577   4.950   3.172   7.495  0.3806 -0.0156  0.8179
   7323SM  H13S 9578   5.052   3.212   7.479 -0.3841  1.9812  0.6649
   7323SM  H13T 9579   4.881   3.256   7.516  1.7546  1.3762 -0.0821
   7323SM  C14S 9580   4.891   3.089   7.375 -0.0778  0.2539 -0.0557
   7323SM  H14S 9581   4.780   3.095   7.373 -0.1655  0.0585  2.1373
   7323SM  H14T 9582   4.923   2.984   7.387 -2.8273 -0.7911 -1.1556
   7323SM  C15S 9583   4.943   3.143   7.244  0.3100 -0.7175  0.6588
   7323SM  H15S 9584   5.053   3.130   7.255  0.4774 -1.5367 -1.5014
   7323SM  H15T 9585   4.914   3.250   7.248 -0.6098 -0.9341  0.0175
   7323SM  C16S 9586   4.902   3.067   7.121 -0.1837  0.4199 -0.8598
   7323SM  H16S 9587   4.795   3.095   7.111 -0.2937  0.1154 -0.5552
   7323SM  H16T 9588   4.917   2.958   7.139  1.0506  1.0308  2.6971
   7323SM  C17S 9589   4.958   3.110   6.990  0.1989  0.0676 -0.7650
   7323SM  H17S 9590   5.069   3.106   6.997  0.3077  1.1068 -1.6665
   7323SM  H17T 9591   4.939   3.219   6.980 -1.6964 -0.4168 -3.7343
   7323SM  C18S 9592   4.902   3.027   6.874 -0.0426  0.2237 -0.8469
   7323SM  H18S 9593   4.955   2.931   6.854 -0.6351 -0.0607 -1.0751
   7323SM  H18T 9594   4.913   3.087   6.781  1.9159  0.8586 -0.2406
   7323SM  H18U 9595   4.793   3.008   6.881 -0.2965  0.7704 -2.7176
   7323SM   C1F 9596   4.995   3.473   8.602 -0.9081 -0.1682 -0.1515
   7323SM    OF 9597   5.106   3.502   8.644  0.1897 -0.3841  0.0186
   7323SM   C2F 9598   4.918   3.564   8.511  0.4657  0.3659 -0.1493
   7323SM   H2F 9599   4.913   3.657   8.571 -1.2723 -1.2297  2.3962
   7323SM   H2G 9600   4.811   3.532   8.510  0.5331 -0.0710  1.5783
   7323SM   C3F 9601   4.997   3.587   8.381 -1.1142  0.1138 -0.0799
   7323SM   H3F 9602   5.020   3.487   8.338  0.7419  1.0323 -1.3546
   7323SM   H3G 9603   5.093   3.634   8.410 -1.3381  0.8071 -0.4524
   7323SM   C4F 9604   4.923   3.678   8.282  0.1717 -0.3595 -0.3405
   7323SM   H4F 9605   4.994   3.690   8.198  1.2414 -2.2534  0.2353
   7323SM   H4G 9606   4.903   3.773   8.334  1.2663 -0.8272  0.9976
   7323SM   C5F 9607   4.796   3.612   8.215  0.0142 -0.1086 -0.8471
   7323SM   H5F 9608   4.760   3.696   8.151 -1.9518 -0.4448 -0.2533
   7323SM   H5G 9609   4.719   3.599   8.294  0.1483 -2.2519 -1.0114
   7323SM   C6F 9610   4.822   3.489   8.131  0.0383 -0.2777 -0.4237
   7323SM   H6F 9611   4.724   3.446   8.104 -0.0540 -0.7762  0.6784
   7323SM   H6G 9612   4.865   3.411   8.197 -0.3031  0.0126  0.1561
   7323SM   C7F 9613   4.904   3.511   8.000  0.7808 -0.4969 -0.1784
   7323SM   H7F 9614   4.923   3.407   7.964 -0.5355 -0.2567 -1.6678
   7323SM   H7G 9615   4.993   3.575   8.019  0.7087 -0.6824  0.8565
   7323SM   C8F 9616   4.823   3.582   7.890 -0.3054  0.0397  0.3876
   7323SM   H8F 9617   4.805   3.686   7.926 -0.2818  0.6519 -1.2501
   7323SM   H8G 9618   4.727   3.527   7.880  1.4492 -3.0959 -0.3921
   7323SM   C9F 9619   4.899   3.583   7.755  0.0573  1.0877  0.3147
   7323SM   H9F 9620   4.913   3.480   7.718  0.8469  0.6343  1.7779
   7323SM   H9G 9621   5.004   3.619   7.746 -0.4906  2.2526 -2.3911
   7323SM  C10F 9622   4.828   3.652   7.640  0.4004 -0.2379 -0.3588
   7323SM  H10F 9623   4.818   3.760   7.663  0.2899  0.0918 -1.8620
   7323SM  H10G 9624   4.727   3.606   7.641 -0.6767  1.9645  0.9736
   7323SM  C11F 9625   4.891   3.638   7.503 -0.6756  0.0099 -0.4221
   7323SM  H11F 9626   4.905   3.529   7.486 -1.9644 -0.1514 -0.4975
   7323SM  H11G 9627   4.993   3.682   7.496  0.2795 -1.9025  0.5641
   7323SM  C12F 9628   4.808   3.678   7.385 -0.0171 -0.5910 -0.2051
   7323SM  H12F 9629   4.784   3.786   7.398  0.8922 -0.4435  0.3340
   7323SM  H12G 9630   4.704   3.638   7.381 -0.8951  1.3902  1.0915
   7323SM  C13F 9631   4.873   3.659   7.250 -0.2823  0.2061 -0.2834
   7323SM  H13F 9632   4.887   3.550   7.233 -1.1737 -0.0734  0.6726
   7323SM  H13G 9633   4.972   3.710   7.243 -0.3592  0.7701  1.8856
   7323SM  C14F 9634   4.783   3.695   7.129 -0.2469 -0.0513 -0.0105
   7323SM  H14F 9635   4.728   3.790   7.143  1.1186  0.9638 -1.2009
   7323SM  H14G 9636   4.703   3.621   7.146  1.5033 -1.9064  0.5904
   7323SM  C15F 9637   4.838   3.676   6.992  0.0715 -0.0406  0.8529
   7323SM  H15F 9638   4.864   3.569   6.974 -1.1286 -0.0555 -1.1048
   7323SM  H15G 9639   4.934   3.730   6.985 -1.0635  2.1515  1.4239
   7323SM  C16F 9640   4.753   3.726   6.876 -0.0486 -0.3324 -0.2626
   7323SM  H16F 9641   4.717   3.830   6.894 -2.3799 -0.7589 -2.0270
   7323SM  H16G 9642   4.659   3.668   6.887 -1.9332  2.4810 -0.2472
   7323SM  C17F 9643   4.816   3.703   6.737  0.3074 -0.3777 -0.3843
   7323SM  H17F 9644   4.803   3.600   6.697 -1.5534  0.1228 -1.1522
   7323SM  H17G 9645   4.924   3.726   6.751  0.7278 -2.9130  1.3180
   7323SM  C18F 9646   4.763   3.798   6.632 -0.0542 -0.5870  0.2192
   7323SM  H18F 9647   4.829   3.798   6.543 -0.7213 -0.6283 -0.2835
   7323SM  H18G 9648   4.771   3.906   6.657  1.0096 -0.2283 -1.4663
   7323SM  C19F 9649   4.621   3.779   6.578 -0.2703  1.3674 -0.3969
   7323SM  H19F 9650   4.616   3.857   6.499 -2.0907  1.8940  0.1871
   7323SM  H19G 9651   4.535   3.793   6.648 -1.0596  1.4678 -1.3649
   7323SM  C20F 9652   4.610   3.636   6.524  0.2291 -0.3695 -0.2131
   7323SM  H20F 9653   4.623   3.559   6.604  1.7573  0.2030  0.1173
   7323SM  H20G 9654   4.677   3.602   6.443 -1.9230  0.1228 -2.2878
   7323SM  C21F 9655   4.457   3.612   6.483 -0.9018  0.5171  0.6270
   7323SM  H21F 9656   4.426   3.690   6.411 -1.4567 -0.2513  0.0162
   7323SM  H21G 9657   4.382   3.615   6.565 -1.5841  0.7261 -0.0026
   7323SM  C22F 9658   4.441   3.478   6.404  0.3003 -1.0513  0.5627
   7323SM  H22F 9659   4.336   3.446   6.386  1.1349 -2.8431 -1.7040
   7323SM  H22G 9660   4.473   3.399   6.476 -1.7521 -1.5622  0.9704
   7323SM  C23F 9661   4.520   3.471   6.275  0.8850  0.0053  1.0784
   7323SM  H23F 9662   4.627   3.499   6.282  0.6460  0.9514  1.1884
   7323SM  H23G 9663   4.474   3.534   6.195 -0.1615 -0.0722  1.6036
   7323SM  H23H 9664   4.517   3.367   6.237 -1.6948  0.1707  0.6221
   7423SM     N 9665   2.164   6.295   8.935 -0.1683 -0.6324  0.5997
   7423SM   C15 9666   2.191   6.376   8.809 -0.1857  0.2127  0.2390
   7423SM  H15A 9667   2.296   6.366   8.785 -0.6954 -1.6580 -1.5421
   7423SM  H15B 9668   2.181   6.483   8.820  2.2760  0.5020  0.3192
   7423SM  H15C 9669   2.140   6.319   8.732  1.8408 -0.1087 -0.9594
   7423SM   C14 9670   2.187   6.153   8.901 -0.2534 -0.5997 -0.3838
   7423SM  H14A 9671   2.100   6.114   8.849 -1.1178 -0.1159  0.6486
   7423SM  H14B 9672   2.204   6.105   8.996  1.0673  2.4852  1.0584
   7423SM  H14C 9673   2.279   6.139   8.847  0.5891 -1.5742  1.2388
   7423SM   C13 9674   2.269   6.347   9.036 -0.1228  0.2040 -0.0832
   7423SM  H13A 9675   2.255   6.299   9.132  1.8726 -1.4471 -0.5543
   7423SM  H13B 9676   2.267   6.455   9.047  2.5362  0.5205 -1.9005
   7423SM  H13C 9677   2.369   6.326   9.003  0.2683  0.7273  0.7497
   7423SM   C12 9678   2.025   6.317   8.982 -0.6058 -0.6426  0.1645
   7423SM  H12A 9679   1.998   6.245   9.058 -0.3838  0.5917  1.4604
   7423SM  H12B 9680   1.960   6.281   8.904 -0.7037  0.8142 -0.4541
   7423SM   C11 9681   1.974   6.459   9.029  0.2455 -1.2118  0.3594
   7423SM  H11A 9682   2.019   6.535   8.961  1.7221 -1.3534  1.1342
   7423SM  H11B 9683   2.006   6.493   9.130 -0.8481  0.8610  0.0504
   7423SM     P 9684   1.740   6.572   8.972  0.2421  0.4452 -0.1794
   7423SM   O13 9685   1.615   6.550   9.046  0.2609 -0.1081  0.1785
   7423SM   O14 9686   1.807   6.702   8.994 -0.3712 -0.4714 -0.6641
   7423SM   O11 9687   1.721   6.553   8.815 -0.2072 -0.3359 -0.1045
   7423SM   O12 9688   1.827   6.457   9.029  0.2974  0.5017 -0.7254
   7423SM   C1S 9689   1.745   6.426   8.755  0.1196 -0.8206 -0.6813
   7423SM   H1S 9690   1.697   6.349   8.819  0.9015 -1.4116 -0.7914
   7423SM   H1T 9691   1.853   6.399   8.751  0.6003  0.5437  1.1847
   7423SM    NF 9692   1.676   6.295   8.556 -0.4849 -0.9774 -0.6366
   7423SM   HNF 9693   1.751   6.254   8.505 -0.6195 -0.6598 -1.0961
   7423SM   C2S 9694   1.677   6.429   8.617  0.0714  0.2763 -0.3373
   7423SM   H2S 9695   1.574   6.469   8.618 -0.3178 -0.5881 -1.7704
   7423SM   C3S 9696   1.759   6.525   8.527  0.1733  0.2836 -0.1736
   7423SM   H3S 9697   1.860   6.481   8.513 -0.4173 -0.8903 -0.8308
   7423SM    O3 9698   1.787   6.655   8.586 -0.0558  0.1206 -0.1467
   7423SM   HO3 9699   1.780   6.644   8.681 -0.5756 -4.4182 -0.4911
   7423SM   C4S 9700   1.708   6.533   8.378 -0.5831  0.4124 -0.2007
   7423SM   H4S 9701   1.747   6.457   8.309  1.6077 -0.3397  1.7614
   7423SM   C5S 9702   1.626   6.622   8.318 -0.7400  0.1747  0.0114
   7423SM   H5S 9703   1.588   6.712   8.370 -0.7180  1.1167 -1.5334
   7423SM   C6S 9704   1.581   6.625   8.174 -0.2838  0.5056 -0.4258
   7423SM   H6S 9705   1.542   6.727   8.153 -0.9550  0.6130  1.1791
   7423SM   H6T 9706   1.490   6.561   8.162 -0.3175 -0.0192  2.1657
   7423SM   C7S 9707   1.680   6.591   8.061  0.0926  0.1860  0.6330
   7423SM   H7S 9708   1.685   6.480   8.061  2.1928  0.1746 -2.1281
   7423SM   H7T 9709   1.781   6.635   8.076  0.4058 -0.1212 -0.4921
   7423SM   C8S 9710   1.638   6.647   7.918 -0.5167 -0.9295  0.1773
   7423SM   H8S 9711   1.703   6.602   7.840  1.1232  0.6386  0.5773
   7423SM   H8T 9712   1.647   6.758   7.919 -0.2980 -0.9273 -0.8395
   7423SM   C9S 9713   1.488   6.615   7.878 -0.3257 -0.3358  0.4060
   7423SM   H9S 9714   1.426   6.690   7.932 -1.2735 -2.1058  1.8699
   7423SM   H9T 9715   1.453   6.515   7.912 -0.1845 -0.7474 -0.6340
   7423SM  C10S 9716   1.455   6.636   7.729  0.2391 -0.5477 -0.3297
   7423SM  H10S 9717   1.459   6.745   7.707  0.8052  0.2084  2.9951
   7423SM  H10T 9718   1.353   6.604   7.699 -0.1517  1.5598 -1.4277
   7423SM  C11S 9719   1.551   6.579   7.631  0.1105  0.3113 -0.2540
   7423SM  H11S 9720   1.560   6.472   7.660 -2.2198 -0.0254 -0.5654
   7423SM  H11T 9721   1.650   6.629   7.633  0.8803 -0.9940 -2.4511
   7423SM  C12S 9722   1.503   6.596   7.489 -0.7950  0.2306  0.3825
   7423SM  H12S 9723   1.490   6.706   7.474  0.3232  0.1546 -1.4293
   7423SM  H12T 9724   1.402   6.552   7.480 -0.6857 -0.0230  0.4095
   7423SM  C13S 9725   1.598   6.541   7.384 -0.2904 -0.7224  0.6193
   7423SM  H13S 9726   1.599   6.431   7.401 -1.8296 -0.4926  2.6439
   7423SM  H13T 9727   1.699   6.584   7.398 -0.8805  1.4993 -1.4158
   7423SM  C14S 9728   1.551   6.575   7.239 -0.2260 -0.4782 -0.2350
   7423SM  H14S 9729   1.538   6.684   7.223  0.0417 -0.3392  0.4715
   7423SM  H14T 9730   1.446   6.542   7.222 -1.0050  1.1725  1.0665
   7423SM  C15S 9731   1.648   6.517   7.133  0.5550  0.1438  0.1351
   7423SM  H15S 9732   1.643   6.406   7.132 -0.4602  0.1707  0.5577
   7423SM  H15T 9733   1.749   6.541   7.175  0.6728  0.7925 -0.4955
   7423SM  C16S 9734   1.629   6.589   6.999 -0.1926  0.1503 -0.4983
   7423SM  H16S 9735   1.650   6.698   7.003 -2.7736  0.6733  1.8494
   7423SM  H16T 9736   1.523   6.568   6.974 -0.5240  1.1864 -0.0080
   7423SM  C17S 9737   1.710   6.520   6.889  0.1305  0.0065 -0.2266
   7423SM  H17S 9738   1.675   6.556   6.790  2.8248 -1.1601 -1.7239
   7423SM  H17T 9739   1.691   6.411   6.877  0.7125 -0.0261 -0.9600
   7423SM  C18S 9740   1.860   6.530   6.891 -0.1222 -0.2652 -0.2613
   7423SM  H18S 9741   1.903   6.484   6.799  1.1889  0.7280 -0.1724
   7423SM  H18T 9742   1.900   6.486   6.985  0.5398  1.7965  0.4655
   7423SM  H18U 9743   1.888   6.637   6.882  0.3954 -0.1434  2.1951
   7423SM   C1F 9744   1.591   6.210   8.607 -0.3672  0.5767 -1.0242
   7423SM    OF 9745   1.499   6.248   8.682 -0.1268  0.1888 -0.1046
   7423SM   C2F 9746   1.617   6.067   8.584 -0.4213  0.0435  0.1579
   7423SM   H2F 9747   1.646   6.015   8.678 -0.4055  0.0158  0.1384
   7423SM   H2G 9748   1.708   6.050   8.522  0.8861  2.3605  1.3450
   7423SM   C3F 9749   1.497   5.976   8.525  0.0013 -0.3097  0.1004
   7423SM   H3F 9750   1.418   5.988   8.602  0.6429  0.5222  0.6488
   7423SM   H3G 9751   1.536   5.872   8.522  0.2360 -0.2145 -0.3568
   7423SM   C4F 9752   1.440   6.020   8.389  0.2530  0.1900  0.0307
   7423SM   H4F 9753   1.362   6.095   8.413  1.3126  1.4389 -0.2928
   7423SM   H4G 9754   1.381   5.935   8.349 -1.1638  1.3708 -0.4616
   7423SM   C5F 9755   1.530   6.077   8.280  1.1514  0.2011 -0.3032
   7423SM   H5F 9756   1.618   6.012   8.260  2.4164  0.7634  2.7504
   7423SM   H5G 9757   1.578   6.161   8.335 -0.7842 -0.6679  2.9744
   7423SM   C6F 9758   1.469   6.119   8.144  0.7922  0.8917  0.4101
   7423SM   H6F 9759   1.376   6.180   8.149  0.8371  1.0572 -0.6676
   7423SM   H6G 9760   1.432   6.027   8.093 -0.1436  0.1232  2.3503
   7423SM   C7F 9761   1.593   6.180   8.066  0.2617  0.1169 -0.0208
   7423SM   H7F 9762   1.673   6.104   8.056 -0.6783 -1.0362  0.8478
   7423SM   H7G 9763   1.644   6.256   8.128  0.5427 -1.3203  1.5841
   7423SM   C8F 9764   1.548   6.241   7.933  0.8237 -0.6587  0.7863
   7423SM   H8F 9765   1.634   6.308   7.908  0.8401  0.2483  3.0360
   7423SM   H8G 9766   1.454   6.299   7.945  2.4646  2.4379 -0.0797
   7423SM   C9F 9767   1.537   6.137   7.822 -0.3847  0.7668 -0.2622
   7423SM   H9F 9768   1.463   6.068   7.868  1.6222 -0.5734  1.0825
   7423SM   H9G 9769   1.629   6.079   7.802  0.2758  2.2202 -1.6990
   7423SM  C10F 9770   1.477   6.199   7.697 -0.0376 -0.2681  0.0073
   7423SM  H10F 9771   1.558   6.258   7.649 -0.6258 -0.5253 -1.3638
   7423SM  H10G 9772   1.382   6.255   7.707  0.1057 -0.5101  5.5116
   7423SM  C11F 9773   1.474   6.086   7.595  0.1674  0.0824 -0.5489
   7423SM  H11F 9774   1.390   6.016   7.616 -0.6102  1.0527 -0.3535
   7423SM  H11G 9775   1.570   6.033   7.607 -0.3521 -1.2448 -1.9701
   7423SM  C12F 9776   1.459   6.131   7.443  0.1043  0.0546  0.3673
   7423SM  H12F 9777   1.549   6.184   7.406  0.1854 -1.1690 -1.3243
   7423SM  H12G 9778   1.364   6.188   7.432  0.1207  0.1912  0.9026
   7423SM  C13F 9779   1.440   6.002   7.360  0.2341 -0.2326  0.0994
   7423SM  H13F 9780   1.356   5.943   7.403 -1.6488 -0.3144 -3.3948
   7423SM  H13G 9781   1.531   5.940   7.366  0.3270 -0.2610 -1.4230
   7423SM  C14F 9782   1.408   6.040   7.210 -0.0670 -1.1654  0.3283
   7423SM  H14F 9783   1.481   6.110   7.164 -1.9933  0.6800 -0.0802
   7423SM  H14G 9784   1.314   6.099   7.222  0.0106 -1.1273  0.7448
   7423SM  C15F 9785   1.389   5.920   7.131 -0.2873  0.1448  0.4170
   7423SM  H15F 9786   1.294   5.864   7.149 -0.2343 -0.0799 -0.0034
   7423SM  H15G 9787   1.475   5.851   7.137  0.3964  1.0031  0.6231
   7423SM  C16F 9788   1.396   5.944   6.978 -0.0567  0.8033 -0.1207
   7423SM  H16F 9789   1.485   6.003   6.949 -0.9113  1.9622 -0.4745
   7423SM  H16G 9790   1.307   6.006   6.954  0.2978  1.9195  1.2770
   7423SM  C17F 9791   1.386   5.807   6.914  0.5945 -0.2105 -0.1326
   7423SM  H17F 9792   1.292   5.752   6.931  0.0615 -0.0008 -2.1144
   7423SM  H17G 9793   1.472   5.745   6.948  1.1394 -0.1467 -1.3439
   7423SM  C18F 9794   1.382   5.830   6.764  0.1800 -0.2868 -0.6327
   7423SM  H18F 9795   1.456   5.903   6.726  1.8319 -1.6463 -0.1381
   7423SM  H18G 9796   1.281   5.861   6.729  0.6460 -0.0478 -1.7847
   7423SM  C19F 9797   1.436   5.702   6.687  0.1797 -0.3544 -0.2467
   7423SM  H19F 9798   1.543   5.689   6.717  0.4579  2.8090  0.4853
   7423SM  H19G 9799   1.429   5.731   6.580  0.2281 -0.5153 -0.2931
   7423SM  C20F 9800   1.356   5.574   6.706 -0.1134 -0.0609  0.7219
   7423SM  H20F 9801   1.253   5.598   6.671  0.1199 -1.0913 -0.7616
   7423SM  H20G 9802   1.351   5.557   6.816  3.1631 -1.1853  0.8189
   7423SM  C21F 9803   1.418   5.453   6.646  0.6123  0.4276  0.1965
   7423SM  H21F 9804   1.523   5.444   6.681  0.1704  2.1793  2.1735
   7423SM  H21G 9805   1.419   5.470   6.536 -1.9424  1.5521  0.2667
   7423SM  C22F 9806   1.346   5.318   6.674  0.0282  0.3209  0.1033
   7423SM  H22F 9807   1.240   5.329   6.644  0.5542  0.3699 -1.8581
   7423SM  H22G 9808   1.349   5.296   6.783  0.6976  0.0041  0.0323
   7423SM  C23F 9809   1.401   5.201   6.597 -0.5146  0.4788 -0.4515
   7423SM  H23F 9810   1.407   5.230   6.490  1.1393  2.7992  0.2020
   7423SM  H23G 9811   1.341   5.110   6.621 -0.3327  0.9253  1.9457
   7423SM  H23H 9812   1.502   5.178   6.636  0.0829  2.4559 -0.7777
   7523SM     N 9813   0.590   0.341   9.250 -0.2852  0.0775 -0.9450
   7523SM   C15 9814   0.467   0.294   9.175 -0.1083  0.3377  0.4020
   7523SM  H15A 9815   0.417   0.381   9.134  1.1493  0.6441 -0.5478
   7523SM  H15B 9816   0.421   0.228   9.247  3.2148 -0.2229  2.1732
   7523SM  H15C 9817   0.498   0.242   9.085  2.3281  0.3799  1.1700
   7523SM   C14 9818   0.673   0.220   9.271  0.6949  0.2097  0.3543
   7523SM  H14A 9819   0.700   0.176   9.176 -1.0562  1.1707 -0.6567
   7523SM  H14B 9820   0.625   0.149   9.337  2.6059 -0.6592  0.8650
   7523SM  H14C 9821   0.764   0.253   9.319  1.1523 -0.1773 -0.2376
   7523SM   C13 9822   0.661   0.441   9.172 -0.0986 -0.3816  0.1135
   7523SM  H13A 9823   0.758   0.454   9.218 -0.1452  1.6366 -0.2603
   7523SM  H13B 9824   0.611   0.537   9.180 -0.4446 -0.7236  5.1314
   7523SM  H13C 9825   0.679   0.399   9.074 -0.1870 -3.2710  1.2563
   7523SM   C12 9826   0.554   0.399   9.383 -0.4161  0.1443 -0.2446
   7523SM  H12A 9827   0.646   0.403   9.439 -0.0091 -0.8801 -0.8047
   7523SM  H12B 9828   0.501   0.325   9.441  1.0477 -1.5318 -0.9744
   7523SM   C11 9829   0.472   0.537   9.382 -0.7616 -0.1503  0.6665
   7523SM  H11A 9830   0.527   0.623   9.339 -1.6574 -0.2265 -0.7232
   7523SM  H11B 9831   0.441   0.559   9.486 -0.4568  0.4718  0.6297
   7523SM     P 9832   0.235   0.603   9.306 -0.0011  0.1404 -0.1824
   7523SM   O13 9833   0.125   0.548   9.223 -0.4722 -0.0297  0.6286
   7523SM   O14 9834   0.205   0.645   9.445  0.6088  0.1169 -0.2002
   7523SM   O11 9835   0.294   0.733   9.235 -0.2093 -0.3532 -0.1801
   7523SM   O12 9836   0.360   0.514   9.294 -0.4774  0.2998 -0.2927
   7523SM   C1S 9837   0.359   0.714   9.108 -0.3144  0.3996  0.9792
   7523SM   H1S 9838   0.387   0.610   9.084 -0.8346  0.1737  1.3359
   7523SM   H1T 9839   0.460   0.762   9.113  0.0184 -0.1125 -0.3940
   7523SM    NF 9840   0.353   0.740   8.864 -0.2608  0.2534  0.6952
   7523SM   HNF 9841   0.402   0.815   8.820  0.3072 -0.9196 -0.7702
   7523SM   C2S 9842   0.281   0.761   8.985 -0.2856 -0.5856  0.9272
   7523SM   H2S 9843   0.186   0.703   8.985  1.0771 -3.0054  2.5929
   7523SM   C3S 9844   0.254   0.913   9.009  0.4672  0.4952 -0.1259
   7523SM   H3S 9845   0.347   0.968   9.036  0.3252  0.4276  0.5281
   7523SM    O3 9846   0.171   0.937   9.128  0.7285  0.2032 -0.1428
   7523SM   HO3 9847   0.184   0.858   9.181  1.9369  1.4482  1.5126
   7523SM   C4S 9848   0.187   0.994   8.894  0.1616  0.6775  0.3898
   7523SM   H4S 9849   0.266   1.037   8.832 -1.0619 -0.9789 -2.5058
   7523SM   C5S 9850   0.066   1.031   8.847  0.2984 -0.1642 -0.0387
   7523SM   H5S 9851  -0.018   0.990   8.905  0.3841  0.9800  0.9205
   7523SM   C6S 9852   0.043   1.117   8.728  0.5358 -0.6491 -0.2228
   7523SM   H6S 9853   0.016   1.216   8.770  1.8044 -0.3239 -0.1384
   7523SM   H6T 9854  -0.047   1.076   8.678  0.0328 -0.4842  0.5335
   7523SM   C7S 9855   0.146   1.134   8.625 -0.3017  0.2583  0.2673
   7523SM   H7S 9856   0.237   1.177   8.671  1.0574 -0.8189 -1.2796
   7523SM   H7T 9857   0.122   1.202   8.540  1.3418  0.3899 -0.1315
   7523SM   C8S 9858   0.206   1.006   8.550 -0.4759 -0.4364 -0.0400
   7523SM   H8S 9859   0.245   0.931   8.623 -0.1209 -0.8386 -0.6404
   7523SM   H8T 9860   0.284   1.043   8.481  0.3117  2.8175  2.3282
   7523SM   C9S 9861   0.109   0.937   8.447  0.0186  0.2299 -0.0827
   7523SM   H9S 9862   0.006   0.930   8.488 -0.6019 -1.8039 -1.8187
   7523SM   H9T 9863   0.136   0.831   8.429 -1.5795 -0.1021 -0.7421
   7523SM  C10S 9864   0.098   1.016   8.309  0.2653 -0.2244 -0.1823
   7523SM  H10S 9865   0.194   1.005   8.254 -0.1335  2.1933 -1.4852
   7523SM  H10T 9866   0.075   1.124   8.325 -0.0377 -0.4552  1.0567
   7523SM  C11S 9867  -0.009   0.972   8.208  0.5988  0.4829 -0.9974
   7523SM  H11S 9868  -0.001   1.031   8.114 -0.9116  1.0088 -0.8309
   7523SM  H11T 9869  -0.110   0.997   8.246  0.7985  1.6817 -1.2126
   7523SM  C12S 9870   0.001   0.822   8.178  0.4413  1.0686  0.1106
   7523SM  H12S 9871  -0.040   0.754   8.256 -0.6492  1.9521  0.3433
   7523SM  H12T 9872   0.109   0.800   8.173  0.6881  2.3395 -0.6206
   7523SM  C13S 9873  -0.070   0.777   8.048  0.0672  0.0899  0.2532
   7523SM  H13S 9874  -0.169   0.825   8.034 -0.9452 -1.5590  1.4197
   7523SM  H13T 9875  -0.103   0.671   8.056  0.4349 -0.1470 -1.1124
   7523SM  C14S 9876   0.007   0.800   7.925 -0.0202  0.1172 -0.2228
   7523SM  H14S 9877   0.106   0.751   7.931  0.0789  0.1952 -1.1082
   7523SM  H14T 9878   0.032   0.908   7.914  0.2676  0.1076  0.3425
   7523SM  C15S 9879  -0.065   0.757   7.800 -0.4643 -0.0960 -0.2664
   7523SM  H15S 9880  -0.123   0.843   7.758  0.8385  1.0928  0.2997
   7523SM  H15T 9881  -0.127   0.668   7.825  0.0879  0.1488  2.1587
   7523SM  C16S 9882   0.031   0.728   7.683  0.8168  0.1323 -0.1263
   7523SM  H16S 9883   0.104   0.649   7.708  2.0828  1.5528  0.8042
   7523SM  H16T 9884   0.080   0.821   7.648 -2.7407  1.6128 -1.6757
   7523SM  C17S 9885  -0.036   0.684   7.550 -0.3249 -0.0665 -0.0913
   7523SM  H17S 9886  -0.131   0.634   7.579 -1.4355  1.8071 -0.2918
   7523SM  H17T 9887   0.028   0.613   7.495 -1.3897 -1.5238  0.5045
   7523SM  C18S 9888  -0.061   0.807   7.457 -0.4551 -0.5297  0.3596
   7523SM  H18S 9889  -0.134   0.873   7.508 -0.5868 -0.4051  0.0118
   7523SM  H18T 9890  -0.095   0.782   7.354  2.6095  2.3796 -1.5521
   7523SM  H18U 9891   0.029   0.872   7.450 -1.2871  1.1556  3.5545
   7523SM   C1F 9892   0.354   0.624   8.810  0.1189  0.4912 -0.4155
   7523SM    OF 9893   0.290   0.530   8.853  0.1010  0.4383  0.1784
   7523SM   C2F 9894   0.433   0.602   8.684  0.8229  0.4530  0.0942
   7523SM   H2F 9895   0.531   0.561   8.718  1.1591 -0.1165 -1.4978
   7523SM   H2G 9896   0.458   0.695   8.630 -1.7189  0.6997 -0.7686
   7523SM   C3F 9897   0.352   0.505   8.593 -0.1862  0.0572  1.0944
   7523SM   H3F 9898   0.254   0.553   8.569  0.4713  1.0699  0.3322
   7523SM   H3G 9899   0.329   0.406   8.638 -0.2099 -0.1606  0.6143
   7523SM   C4F 9900   0.429   0.490   8.459  0.4687  0.0167 -0.1514
   7523SM   H4F 9901   0.526   0.438   8.477 -0.6691 -2.1264  0.1941
   7523SM   H4G 9902   0.450   0.594   8.428  0.3247  0.0789 -0.0414
   7523SM   C5F 9903   0.341   0.430   8.357  0.3547 -0.3628 -0.1281
   7523SM   H5F 9904   0.241   0.479   8.360  0.9802  0.9772 -0.4536
   7523SM   H5G 9905   0.323   0.324   8.381  1.9547 -1.3801 -2.9506
   7523SM   C6F 9906   0.418   0.432   8.223 -0.2873  0.3790  0.6318
   7523SM   H6F 9907   0.494   0.351   8.227 -0.1610  0.4091 -0.5912
   7523SM   H6G 9908   0.473   0.528   8.211 -0.7887  0.3444 -3.3435
   7523SM   C7F 9909   0.323   0.404   8.100 -0.0161  0.2001 -0.1838
   7523SM   H7F 9910   0.252   0.488   8.089 -1.9743 -0.8896  2.8315
   7523SM   H7G 9911   0.264   0.311   8.113 -1.0925  0.8946  0.0298
   7523SM   C8F 9912   0.401   0.412   7.967  0.1397  0.7442  0.2270
   7523SM   H8F 9913   0.477   0.331   7.966 -0.9886 -0.3486 -0.2220
   7523SM   H8G 9914   0.452   0.510   7.975  0.2773  0.7470 -0.5684
   7523SM   C9F 9915   0.304   0.408   7.847 -0.1888 -0.3242  0.4478
   7523SM   H9F 9916   0.220   0.478   7.865  0.1883  0.4398 -0.6346
   7523SM   H9G 9917   0.261   0.306   7.842  0.7335 -0.7284  0.5936
   7523SM  C10F 9918   0.379   0.431   7.715 -0.7656 -0.0097  0.2368
   7523SM  H10F 9919   0.460   0.355   7.711 -0.4505  0.2894  0.7776
   7523SM  H10G 9920   0.434   0.525   7.737  1.4602 -1.0927 -0.4627
   7523SM  C11F 9921   0.305   0.432   7.585 -0.0517 -0.0206  0.1154
   7523SM  H11F 9922   0.214   0.496   7.598 -1.2732 -2.0401  2.4187
   7523SM  H11G 9923   0.256   0.335   7.563 -1.3396  0.1453  2.0036
   7523SM  C12F 9924   0.376   0.490   7.471  0.0112 -0.0674 -0.4171
   7523SM  H12F 9925   0.465   0.425   7.457 -1.3203 -2.3191  0.9450
   7523SM  H12G 9926   0.414   0.585   7.512 -3.6447  0.7016  1.5863
   7523SM  C13F 9927   0.292   0.521   7.342 -0.2441 -0.2644  0.3815
   7523SM  H13F 9928   0.369   0.571   7.280 -1.0536  1.0502  0.4119
   7523SM  H13G 9929   0.219   0.593   7.385  1.1133  0.3120  1.8067
   7523SM  C14F 9930   0.232   0.392   7.279 -0.2172  0.2986 -0.3003
   7523SM  H14F 9931   0.147   0.360   7.342 -0.8191 -0.7697 -1.6151
   7523SM  H14G 9932   0.312   0.315   7.274 -0.6725 -0.1584 -0.7130
   7523SM  C15F 9933   0.183   0.399   7.132  0.1475  0.6253 -0.4718
   7523SM  H15F 9934   0.183   0.301   7.080 -1.6986  0.5213 -0.3283
   7523SM  H15G 9935   0.248   0.463   7.069 -1.5681 -0.2491 -3.3071
   7523SM  C16F 9936   0.039   0.461   7.123  0.2899  0.1844  0.4419
   7523SM  H16F 9937   0.042   0.560   7.174  0.0415  0.6662 -0.4630
   7523SM  H16G 9938  -0.036   0.395   7.172  0.5457 -0.4724 -0.0244
   7523SM  C17F 9939  -0.009   0.486   6.975 -0.0283 -0.3530  0.2756
   7523SM  H17F 9940   0.068   0.523   6.904  0.1312  0.7177  0.9881
   7523SM  H17G 9941  -0.083   0.569   6.976  0.3237 -0.0379  0.2072
   7523SM  C18F 9942  -0.075   0.370   6.906  0.3756  0.6560 -0.3888
   7523SM  H18F 9943  -0.165   0.353   6.969  1.0962 -1.6889  0.1234
   7523SM  H18G 9944  -0.021   0.274   6.923 -2.0282 -0.6189  0.6035
   7523SM  C19F 9945  -0.127   0.392   6.762 -0.4732 -0.0907 -0.2161
   7523SM  H19F 9946  -0.182   0.303   6.726 -2.3767  1.3760 -1.0834
   7523SM  H19G 9947  -0.040   0.416   6.697  0.5801 -0.7303  0.9101
   7523SM  C20F 9948  -0.227   0.508   6.757 -0.2303  0.1607 -0.7102
   7523SM  H20F 9949  -0.244   0.545   6.654 -0.0092  0.8558 -0.4985
   7523SM  H20G 9950  -0.202   0.599   6.815 -2.1559  0.0763  0.3418
   7523SM  C21F 9951  -0.368   0.457   6.796 -0.4728  0.7124  0.9188
   7523SM  H21F 9952  -0.354   0.422   6.900  0.9219 -1.9198 -0.0793
   7523SM  H21G 9953  -0.403   0.368   6.739  0.8817  0.9684 -0.3635
   7523SM  C22F 9954  -0.465   0.570   6.806  0.2392 -0.2237  0.2150
   7523SM  H22F 9955  -0.485   0.597   6.700  0.6750 -0.5411  0.0526
   7523SM  H22G 9956  -0.407   0.652   6.854  0.6485 -1.5545  2.0990
   7523SM  C23F 9957  -0.584   0.536   6.890 -0.2305  0.1073 -0.6546
   7523SM  H23F 9958  -0.655   0.622   6.885 -0.4261  0.0778  1.0857
   7523SM  H23G 9959  -0.555   0.517   6.995 -1.1946 -0.9229 -0.5558
   7523SM  H23H 9960  -0.637   0.443   6.859 -1.0129  0.0981  0.6294
   7623SM     N 9961   2.604   0.387   9.021 -0.7821  0.4262  0.3982
   7623SM   C15 9962   2.719   0.482   9.053 -0.2621  0.2566  0.2040
   7623SM  H15A 9963   2.670   0.579   9.053 -2.2355 -0.6945  0.4889
   7623SM  H15B 9964   2.795   0.480   8.976 -0.3581 -0.3060  0.1252
   7623SM  H15C 9965   2.770   0.466   9.147  1.9248 -0.9761 -1.0982
   7623SM   C14 9966   2.664   0.251   9.024  0.2995  0.3539 -0.4818
   7623SM  H14A 9967   2.590   0.174   9.008  3.2813 -2.6370 -1.0140
   7623SM  H14B 9968   2.727   0.224   9.107 -1.0227 -0.4738  0.3018
   7623SM  H14C 9969   2.721   0.233   8.934  1.6159 -0.7388  0.5238
   7623SM   C13 9970   2.495   0.412   9.116  0.3770 -0.7866 -0.4515
   7623SM  H13A 9971   2.520   0.400   9.220  0.1780 -0.1904 -0.3329
   7623SM  H13B 9972   2.414   0.346   9.091 -0.0430  0.0049 -1.2395
   7623SM  H13C 9973   2.463   0.515   9.117 -1.6610 -1.3756 -0.5770
   7623SM   C12 9974   2.546   0.405   8.882 -0.1822  0.2212 -0.6673
   7623SM  H12A 9975   2.623   0.435   8.812 -1.2480  0.7998 -1.6210
   7623SM  H12B 9976   2.479   0.489   8.892 -0.6548 -0.2106 -0.1462
   7623SM   C11 9977   2.469   0.288   8.819 -0.5694  0.7177 -0.1639
   7623SM  H11A 9978   2.546   0.212   8.797 -1.4267 -0.0697 -0.5000
   7623SM  H11B 9979   2.418   0.314   8.724 -2.0800 -0.0487  0.3980
   7623SM     P 9980   2.324   0.091   8.923  0.0900 -0.1053  0.0925
   7623SM   O13 9981   2.443  -0.000   8.936 -0.2252 -0.1372 -0.5971
   7623SM   O14 9982   2.225   0.069   9.030  0.3186 -0.6412 -0.7300
   7623SM   O11 9983   2.264   0.071   8.780  0.3128 -0.2067 -0.4084
   7623SM   O12 9984   2.373   0.239   8.918 -0.0243 -0.4862 -0.2513
   7623SM   C1S 9985   2.149   0.146   8.740 -0.4081 -0.3301  1.1472
   7623SM   H1S 9986   2.165   0.252   8.769 -0.6238 -0.1020  0.4281
   7623SM   H1T 9987   2.053   0.113   8.785 -0.5621 -1.8384 -0.2119
   7623SM    NF 9988   2.009   0.215   8.547 -0.2121  0.7239  0.3328
   7623SM   HNF 9989   1.927   0.159   8.541  0.0417  0.5307 -1.9055
   7623SM   C2S 9990   2.140   0.148   8.582  0.2859  0.0493 -0.3180
   7623SM   H2S 9991   2.221   0.216   8.548 -1.8692  2.5035 -0.8971
   7623SM   C3S 9992   2.166   0.005   8.515 -0.2552  0.0238  0.1794
   7623SM   H3S 9993   2.085  -0.058   8.557 -0.9650  0.4902 -0.4521
   7623SM    O3 9994   2.279  -0.070   8.551  0.4162 -0.1840  0.0437
   7623SM   HO3 9995   2.304  -0.024   8.632 -1.4914  1.3537 -0.1548
   7623SM   C4S 9996   2.161   0.007   8.365  0.5513 -0.1158 -0.0365
   7623SM   H4S 9997   2.060  -0.023   8.334  0.1866 -0.7097  1.6745
   7623SM   C5S 9998   2.251   0.051   8.268  0.5401  1.1010  0.9062
   7623SM   H5S 9999   2.351   0.083   8.300  0.6184  1.1938  0.5763
   7623SM   C6S10000   2.227   0.035   8.118  0.1941 -0.5864  0.3674
   7623SM   H6S10001   2.183  -0.063   8.092 -0.4811  0.1787 -1.5910
   7623SM   H6T10002   2.321   0.049   8.060 -0.4043  1.0161 -0.2972
   7623SM   C7S10003   2.122   0.146   8.075  0.1549 -0.0699  0.9275
   7623SM   H7S10004   2.146   0.247   8.114  1.5712  0.1742 -0.5008
   7623SM   H7T10005   2.019   0.123   8.112 -0.1427  0.1262  0.2315
   7623SM   C8S10006   2.111   0.146   7.925  0.2918 -0.6047 -0.3045
   7623SM   H8S10007   2.208   0.179   7.881 -0.9412  0.3027 -2.4707
   7623SM   H8T10008   2.046   0.235   7.911  1.3984  0.3219  0.2525
   7623SM   C9S10009   2.057   0.017   7.869  0.1525 -0.4793  0.2498
   7623SM   H9S10010   1.966  -0.010   7.926  0.2256  0.9313  1.1021
   7623SM   H9T10011   2.138  -0.059   7.872 -0.1061 -0.7352  1.0144
   7623SM  C10S10012   2.007   0.024   7.728  0.0551 -0.4188  0.5249
   7623SM  H10S10013   1.909   0.073   7.706 -1.2511 -4.0268 -2.6695
   7623SM  H10T10014   1.991  -0.080   7.693 -1.1974 -0.8000  2.0980
   7623SM  C11S10015   2.112   0.097   7.637  0.1865  0.2579 -0.2373
   7623SM  H11S10016   2.213   0.056   7.657  1.0414  1.4221 -1.9335
   7623SM  H11T10017   2.125   0.203   7.664 -0.5903  0.2429  0.2241
   7623SM  C12S10018   2.071   0.099   7.490  0.5153  0.2783  0.2428
   7623SM  H12S10019   2.057  -0.007   7.460 -2.3100 -0.7158  4.2321
   7623SM  H12T10020   2.158   0.150   7.444 -0.5537  2.4936  0.5385
   7623SM  C13S10021   1.948   0.172   7.449 -0.9142  0.0146 -0.0376
   7623SM  H13S10022   1.948   0.282   7.465 -1.0254 -0.0681  0.5515
   7623SM  H13T10023   1.858   0.120   7.488  0.9318 -2.8573  0.6284
   7623SM  C14S10024   1.922   0.158   7.296  0.2482 -0.5370 -0.3807
   7623SM  H14S10025   1.819   0.196   7.278  0.2925  0.6754  1.6336
   7623SM  H14T10026   1.928   0.049   7.273  1.3107 -0.1637 -2.0199
   7623SM  C15S10027   2.020   0.241   7.211  0.2589  0.4824 -0.7578
   7623SM  H15S10028   2.123   0.215   7.241 -0.7388 -3.1255 -0.0293
   7623SM  H15T10029   1.990   0.345   7.237 -0.7631 -0.3436  1.6869
   7623SM  C16S10030   1.995   0.216   7.058  0.0239 -0.5675 -0.5405
   7623SM  H16S10031   1.887   0.235   7.038 -0.3957 -3.6675 -1.8564
   7623SM  H16T10032   2.023   0.109   7.044  0.9298 -0.2927 -0.8445
   7623SM  C17S10033   2.091   0.300   6.971 -0.7111 -0.0354 -0.3027
   7623SM  H17S10034   2.196   0.266   6.960  0.3456  2.7749  0.1820
   7623SM  H17T10035   2.108   0.397   7.022 -0.2041 -0.4099  0.2446
   7623SM  C18S10036   2.032   0.323   6.832 -0.0120  0.4754  0.2356
   7623SM  H18S10037   2.026   0.223   6.785 -0.4176 -0.0539  1.3690
   7623SM  H18T10038   2.099   0.392   6.776 -0.9886  0.4224 -1.0292
   7623SM  H18U10039   1.928   0.359   6.821 -1.2334 -2.2751  1.7939
   7623SM   C1F10040   1.992   0.343   8.563  0.0101  0.8338 -0.0808
   7623SM    OF10041   2.087   0.410   8.605  0.3095 -0.2714 -0.7149
   7623SM   C2F10042   1.861   0.396   8.533  0.7313 -0.1937 -0.3536
   7623SM   H2F10043   1.810   0.420   8.629  1.7597 -1.5626  0.5929
   7623SM   H2G10044   1.800   0.323   8.475 -1.3491 -0.9159  2.4949
   7623SM   C3F10045   1.876   0.523   8.453 -0.1135 -0.6723 -0.4720
   7623SM   H3F10046   1.921   0.593   8.527  0.8818 -1.0694 -0.6762
   7623SM   H3G10047   1.774   0.560   8.428  0.1965 -0.2309 -1.1172
   7623SM   C4F10048   1.949   0.514   8.310 -0.1214  0.6827 -0.6225
   7623SM   H4F10049   2.053   0.480   8.332 -1.0550 -0.8330  1.8120
   7623SM   H4G10050   1.961   0.613   8.261  1.3533  1.9560  2.0460
   7623SM   C5F10051   1.885   0.415   8.212 -0.0914  0.2116  0.3833
   7623SM   H5F10052   1.875   0.312   8.252  0.2620  0.6523  1.6419
   7623SM   H5G10053   1.946   0.412   8.119 -1.3722  0.7341 -0.5098
   7623SM   C6F10054   1.737   0.459   8.171 -0.2042 -0.2987  0.1769
   7623SM   H6F10055   1.744   0.567   8.146 -0.6151 -0.6025 -1.3651
   7623SM   H6G10056   1.664   0.448   8.254 -0.1472 -0.7640  0.1674
   7623SM   C7F10057   1.667   0.381   8.061 -0.1123 -0.7505  0.5327
   7623SM   H7F10058   1.556   0.387   8.056 -0.0602 -0.5989 -1.1686
   7623SM   H7G10059   1.692   0.272   8.059  0.7952 -0.5766 -1.8545
   7623SM   C8F10060   1.718   0.433   7.918  0.1541 -0.7767 -0.2301
   7623SM   H8F10061   1.812   0.380   7.894  0.4736 -0.0268 -0.6766
   7623SM   H8G10062   1.752   0.537   7.940  2.2267 -1.5073  0.2185
   7623SM   C9F10063   1.610   0.423   7.810  0.1128  0.0301  0.3976
   7623SM   H9F10064   1.520   0.485   7.829  0.4566  0.3308  1.0812
   7623SM   H9G10065   1.577   0.318   7.815  1.4063 -0.4378 -0.2233
   7623SM  C10F10066   1.652   0.466   7.667  0.2131 -0.6078 -0.2160
   7623SM  H10F10067   1.755   0.426   7.657  0.3291 -0.0498 -1.4002
   7623SM  H10G10068   1.661   0.577   7.657  0.3134 -0.6578 -0.6675
   7623SM  C11F10069   1.572   0.407   7.546  0.4337  0.0604  0.8778
   7623SM  H11F10070   1.469   0.448   7.550 -0.3343 -1.8281  4.1697
   7623SM  H11G10071   1.563   0.297   7.556 -0.6789 -0.0269 -0.7691
   7623SM  C12F10072   1.654   0.428   7.420 -0.1378 -0.5203 -0.2538
   7623SM  H12F10073   1.754   0.385   7.442  0.3727  0.6173 -0.2515
   7623SM  H12G10074   1.668   0.538   7.409  1.0430 -0.8295 -2.3370
   7623SM  C13F10075   1.580   0.363   7.293  0.4722 -0.1277 -0.6657
   7623SM  H13F10076   1.475   0.400   7.304  0.4160 -0.4128 -0.2538
   7623SM  H13G10077   1.583   0.253   7.305  1.3538 -0.0388 -0.0107
   7623SM  C14F10078   1.631   0.416   7.156  0.6981  0.0283  0.5756
   7623SM  H14F10079   1.728   0.374   7.123  1.2484  3.1496 -2.3039
   7623SM  H14G10080   1.637   0.527   7.153  0.0640  0.0601  0.3481
   7623SM  C15F10081   1.537   0.383   7.036  0.0324 -0.2850 -0.2929
   7623SM  H15F10082   1.460   0.461   7.021 -1.1985 -1.2575  0.7392
   7623SM  H15G10083   1.492   0.283   7.055  1.0581 -0.7245 -0.0683
   7623SM  C16F10084   1.619   0.363   6.909 -0.6147  0.0110 -0.1832
   7623SM  H16F10085   1.707   0.298   6.930 -0.1497  0.6322 -0.1709
   7623SM  H16G10086   1.668   0.457   6.876 -0.7465  1.2901  2.9387
   7623SM  C17F10087   1.538   0.306   6.795 -0.0825  0.1981  0.2300
   7623SM  H17F10088   1.489   0.209   6.816 -0.7010  0.7886  1.6611
   7623SM  H17G10089   1.608   0.276   6.714  0.2321 -3.1779  1.6303
   7623SM  C18F10090   1.425   0.391   6.744  0.3715  0.0723  0.1195
   7623SM  H18F10091   1.459   0.495   6.726  0.4777  0.1313  0.6358
   7623SM  H18G10092   1.338   0.401   6.813  0.6700 -0.9291  0.6596
   7623SM  C19F10093   1.370   0.325   6.618  0.0232  0.3589 -0.0954
   7623SM  H19F10094   1.345   0.220   6.644 -2.1746  0.5936 -1.0059
   7623SM  H19G10095   1.455   0.326   6.547  0.3769  3.7550  0.2310
   7623SM  C20F10096   1.252   0.402   6.561  0.6037 -0.6311 -0.4128
   7623SM  H20F10097   1.271   0.511   6.546  0.8500 -0.9839 -3.1822
   7623SM  H20G10098   1.173   0.399   6.639  2.0729 -3.2753  1.1289
   7623SM  C21F10099   1.201   0.347   6.428 -0.2069  0.0192 -0.3242
   7623SM  H21F10100   1.142   0.254   6.446 -1.1038  0.9427  1.7306
   7623SM  H21G10101   1.290   0.319   6.367 -0.2312  1.5868 -1.1156
   7623SM  C22F10102   1.100   0.434   6.352  0.5716 -0.5831  0.4963
   7623SM  H22F10103   1.012   0.455   6.417  0.6009 -0.3000  0.4426
   7623SM  H22G10104   1.066   0.382   6.260  0.4787  0.9359 -0.3575
   7623SM  C23F10105   1.151   0.571   6.302 -0.2215  0.0950  0.1251
   7623SM  H23F10106   1.055   0.625   6.284 -1.5731 -2.1016  0.4293
   7623SM  H23G10107   1.212   0.549   6.212  1.1852 -2.7528  1.6472
   7623SM  H23H10108   1.203   0.624   6.385 -2.0211  1.2309  0.5941
   7723SM     N10109   0.577   4.098   9.285  0.2374  0.5061 -0.1217
   7723SM   C1510110   0.533   4.202   9.386 -0.4112 -0.2068  0.1519
   7723SM  H15A10111   0.617   4.249   9.435 -0.3460 -0.3803  0.2052
   7723SM  H15B10112   0.472   4.162   9.465 -1.0807  1.5173  0.5507
   7723SM  H15C10113   0.470   4.274   9.335 -0.9973 -0.7585  0.0872
   7723SM   C1410114   0.632   3.993   9.372  0.2096 -0.5391 -0.6074
   7723SM  H14A10115   0.657   3.900   9.323  2.9267 -1.0195  1.4321
   7723SM  H14B10116   0.554   3.967   9.442 -1.1560  1.7015 -1.1992
   7723SM  H14C10117   0.717   4.027   9.429  0.0896 -0.4595 -0.4734
   7723SM   C1310118   0.452   4.052   9.214  0.2608 -0.0508  0.0864
   7723SM  H13A10119   0.483   3.972   9.149  1.0860 -0.7851  1.3390
   7723SM  H13B10120   0.402   4.122   9.148  0.0552 -0.0231  0.2686
   7723SM  H13C10121   0.382   4.020   9.290 -2.2275  0.9809 -1.6345
   7723SM   C1210122   0.676   4.169   9.189  0.2886 -0.5679 -0.4365
   7723SM  H12A10123   0.748   4.219   9.251  0.8392 -0.8244 -0.8662
   7723SM  H12B10124   0.614   4.247   9.149 -1.2712 -0.3254  2.2072
   7723SM   C1110125   0.751   4.072   9.097  0.2310  0.4884 -0.2811
   7723SM  H11A10126   0.799   4.141   9.025  0.2768  1.3028  0.5021
   7723SM  H11B10127   0.680   4.003   9.047 -0.7826  0.0208  1.6847
   7723SM     P10128   0.983   4.081   9.208 -0.0959  0.2869 -0.0286
   7723SM   O1310129   0.958   4.193   9.300  0.8606  0.0884  0.3367
   7723SM   O1410130   1.079   3.988   9.266 -0.1754 -0.7711  0.4075
   7723SM   O1110131   1.038   4.137   9.070  0.1331 -0.0849  0.0166
   7723SM   O1210132   0.849   4.000   9.178 -0.1010  0.1387 -0.0150
   7723SM   C1S10133   1.080   4.044   8.971 -0.2977 -0.6262  0.0523
   7723SM   H1S10134   1.007   3.968   8.937 -0.9696  0.4324 -0.9317
   7723SM   H1T10135   1.160   3.977   9.011 -0.7521 -1.1532  0.0877
   7723SM    NF10136   1.168   4.018   8.737  0.6128 -0.0258  0.0533
   7723SM   HNF10137   1.254   3.970   8.719  0.4992 -0.5861  0.9420
   7723SM   C2S10138   1.147   4.114   8.848  0.2408  0.1718  0.5318
   7723SM   H2S10139   1.081   4.197   8.817  0.3814  0.3701  0.7538
   7723SM   C3S10140   1.282   4.176   8.896  0.2463 -1.2364  0.4445
   7723SM   H3S10141   1.352   4.093   8.917  1.3865 -0.7146 -1.0740
   7723SM    O310142   1.274   4.263   9.005  0.0492  0.0678  0.1841
   7723SM   HO310143   1.188   4.244   9.044 -0.7188  1.9323 -0.4800
   7723SM   C4S10144   1.354   4.244   8.778  0.3181  1.1133  0.5932
   7723SM   H4S10145   1.426   4.179   8.727  0.4853 -0.2214  2.4404
   7723SM   C5S10146   1.324   4.355   8.724  0.2929  0.0752 -0.3270
   7723SM   H5S10147   1.236   4.401   8.772  1.0399  0.0663  1.1315
   7723SM   C6S10148   1.387   4.408   8.602  0.2029  0.2606 -0.1542
   7723SM   H6S10149   1.454   4.324   8.573  1.1160  0.1922  1.9888
   7723SM   H6T10150   1.450   4.494   8.634  1.4099 -0.5194 -0.3727
   7723SM   C7S10151   1.302   4.446   8.483  0.1501 -0.1045 -0.5169
   7723SM   H7S10152   1.220   4.513   8.515 -0.4849 -0.5474 -1.1907
   7723SM   H7T10153   1.246   4.355   8.454 -1.2820  0.7674 -0.5766
   7723SM   C8S10154   1.380   4.501   8.365 -0.2840  0.1163 -0.1502
   7723SM   H8S10155   1.462   4.431   8.338 -1.0271 -1.1210  0.7602
   7723SM   H8T10156   1.411   4.606   8.383 -0.9265  0.1876  0.5588
   7723SM   C9S10157   1.291   4.505   8.241  0.3222  0.2006 -0.2851
   7723SM   H9S10158   1.203   4.562   8.278  0.3450 -0.5002  0.9125
   7723SM   H9T10159   1.271   4.405   8.197  2.2157 -0.2497 -0.2122
   7723SM  C10S10160   1.347   4.590   8.130 -0.2338  0.3744 -0.3004
   7723SM  H10S10161   1.451   4.557   8.113  0.0982  0.8867  0.6771
   7723SM  H10T10162   1.351   4.698   8.155  1.2258  1.3764 -4.1855
   7723SM  C11S10163   1.276   4.582   7.997  0.1822  0.6609  0.0692
   7723SM  H11S10164   1.180   4.637   8.011  0.6498  1.6256 -0.4070
   7723SM  H11T10165   1.253   4.474   7.987 -1.2218  0.9851 -0.4739
   7723SM  C12S10166   1.353   4.644   7.883 -0.2080 -0.3552 -0.1661
   7723SM  H12S10167   1.456   4.601   7.880 -0.5261 -1.1632  0.3549
   7723SM  H12T10168   1.384   4.746   7.916 -0.9273  0.1915 -1.1260
   7723SM  C13S10169   1.274   4.651   7.758 -0.1428 -0.0146 -0.2231
   7723SM  H13S10170   1.195   4.729   7.765  0.5560  0.8016 -1.0274
   7723SM  H13T10171   1.224   4.553   7.744 -2.7303  1.3008 -0.7366
   7723SM  C14S10172   1.361   4.666   7.631  0.7804 -0.3303  0.5416
   7723SM  H14S10173   1.458   4.614   7.650  1.5287  1.7766  2.9219
   7723SM  H14T10174   1.387   4.771   7.609 -2.8663  0.1216 -2.5048
   7723SM  C15S10175   1.286   4.603   7.515  0.5072 -0.5228 -0.2057
   7723SM  H15S10176   1.207   4.672   7.478  0.4237 -0.5879 -0.1482
   7723SM  H15T10177   1.242   4.502   7.527  0.9439 -0.8269 -1.0283
   7723SM  C16S10178   1.379   4.592   7.396 -0.3031  0.0736  0.5420
   7723SM  H16S10179   1.467   4.528   7.418 -2.0740 -2.4052  0.7110
   7723SM  H16T10180   1.422   4.688   7.361  0.5747 -0.0653  1.1975
   7723SM  C17S10181   1.303   4.522   7.283  0.1166 -0.6826 -1.0601
   7723SM  H17S10182   1.214   4.583   7.256 -1.3329 -1.5062  1.5397
   7723SM  H17T10183   1.267   4.425   7.324  2.6309 -1.8745 -1.4847
   7723SM  C18S10184   1.382   4.498   7.157  0.2627  1.1295 -0.2027
   7723SM  H18S10185   1.431   4.591   7.121 -0.3704  1.2754 -0.7207
   7723SM  H18T10186   1.316   4.460   7.076 -0.0605 -1.2044  1.0676
   7723SM  H18U10187   1.457   4.418   7.174 -3.4204 -2.5226  0.3224
   7723SM   C1F10188   1.060   3.969   8.668 -0.1287  0.1161  0.0428
   7723SM    OF10189   0.948   4.006   8.702 -0.0353  0.4089  0.1378
   7723SM   C2F10190   1.087   3.866   8.561  0.5397  0.2693 -0.2831
   7723SM   H2F10191   1.023   3.779   8.589 -1.1648  1.5563 -0.0346
   7723SM   H2G10192   1.194   3.838   8.564  0.2453 -1.4835 -2.7626
   7723SM   C3F10193   1.046   3.910   8.418  0.2882  0.3016  0.3485
   7723SM   H3F10194   1.111   3.997   8.395  2.5256 -0.8733  1.9050
   7723SM   H3G10195   0.937   3.933   8.422  0.4905  1.3448  0.1340
   7723SM   C4F10196   1.079   3.804   8.308  0.1002  0.1589  0.1290
   7723SM   H4F10197   0.988   3.741   8.316 -1.5674  2.4060  0.0041
   7723SM   H4G10198   1.167   3.737   8.320  0.0176  0.3194  1.7811
   7723SM   C5F10199   1.079   3.846   8.164 -0.3015 -0.5148 -0.0513
   7723SM   H5F10200   1.127   3.765   8.105  0.5577 -0.2650  0.2890
   7723SM   H5G10201   1.145   3.934   8.150 -1.3413  0.2533 -0.1677
   7723SM   C6F10202   0.944   3.866   8.090 -0.1405 -0.4637  0.2620
   7723SM   H6F10203   0.878   3.934   8.149  0.3058 -0.2334  0.5010
   7723SM   H6G10204   0.891   3.769   8.085  0.2276 -0.9595  3.6891
   7723SM   C7F10205   0.963   3.931   7.954  0.3507  0.1943  0.6198
   7723SM   H7F10206   1.028   4.020   7.966 -0.7897  1.1889 -0.2825
   7723SM   H7G10207   0.870   3.962   7.901 -0.2225 -1.5955  0.5102
   7723SM   C8F10208   1.017   3.837   7.839 -0.3024 -0.0053 -0.4088
   7723SM   H8F10209   0.972   3.736   7.843 -0.4342  0.0821  2.0097
   7723SM   H8G10210   1.120   3.813   7.876 -0.3855 -1.0373 -0.8232
   7723SM   C9F10211   1.004   3.891   7.697 -0.2829  0.1887 -0.4701
   7723SM   H9F10212   1.089   3.963   7.692  1.6824 -2.0638 -1.1625
   7723SM   H9G10213   0.913   3.952   7.676  1.6681  2.5943 -2.7668
   7723SM  C10F10214   1.016   3.791   7.578 -0.3353 -0.5918 -0.3221
   7723SM  H10F10215   0.941   3.711   7.597  0.4416 -0.8176  2.1887
   7723SM  H10G10216   1.110   3.732   7.590 -0.3535 -0.6193 -0.3110
   7723SM  C11F10217   1.006   3.872   7.451  0.5621 -0.0594 -0.1490
   7723SM  H11F10218   1.100   3.929   7.441  0.8412  0.2412  3.1526
   7723SM  H11G10219   0.927   3.950   7.458 -0.7999 -1.4060  0.1621
   7723SM  C12F10220   0.976   3.777   7.338  0.4328  0.5119  0.9386
   7723SM  H12F10221   0.875   3.734   7.357  0.4671  0.3526  0.7623
   7723SM  H12G10222   1.045   3.690   7.342  1.2010  0.9428 -1.3064
   7723SM  C13F10223   0.978   3.844   7.197  0.1745  0.8690  0.4202
   7723SM  H13F10224   1.086   3.849   7.169  1.0268 -2.6049  2.3744
   7723SM  H13G10225   0.942   3.949   7.203 -1.3818  0.3180  1.4580
   7723SM  C14F10226   0.906   3.770   7.087  0.4172  0.8958 -0.4402
   7723SM  H14F10227   0.797   3.780   7.109  0.6072  3.9465 -0.5816
   7723SM  H14G10228   0.922   3.660   7.081 -1.1341  0.6547 -0.5042
   7723SM  C15F10229   0.926   3.823   6.945 -0.1646 -0.2813 -0.5035
   7723SM  H15F10230   0.867   3.758   6.877 -2.1170  0.4067  0.4510
   7723SM  H15G10231   1.036   3.827   6.928 -0.3707 -1.1990 -2.1873
   7723SM  C16F10232   0.873   3.975   6.925 -0.2985 -0.3583 -0.3953
   7723SM  H16F10233   0.936   4.040   6.990 -2.0335  1.7825 -0.7454
   7723SM  H16G10234   0.768   3.983   6.960  0.3581  0.6751  1.4592
   7723SM  C17F10235   0.886   4.023   6.781  0.0729  0.2541  0.6699
   7723SM  H17F10236   0.853   3.950   6.704 -0.0198  0.7598  0.2250
   7723SM  H17G10237   0.992   4.036   6.753  0.3059 -0.0066  1.4020
   7723SM  C18F10238   0.796   4.147   6.755  0.3548  0.0202 -0.1441
   7723SM  H18F10239   0.832   4.234   6.815 -1.6063  0.2994  0.6955
   7723SM  H18G10240   0.695   4.123   6.794 -0.0337 -0.1672 -1.2451
   7723SM  C19F10241   0.792   4.174   6.597 -0.1796  0.2574  0.8984
   7723SM  H19F10242   0.759   4.088   6.534  1.9249  1.2390 -1.7300
   7723SM  H19G10243   0.900   4.178   6.574  0.2255 -1.7192  2.2151
   7723SM  C20F10244   0.729   4.302   6.544 -0.1046  0.8189  0.0492
   7723SM  H20F10245   0.746   4.317   6.435 -0.0626 -0.8052 -0.2068
   7723SM  H20G10246   0.763   4.393   6.596 -0.3993  1.0520 -0.1606
   7723SM  C21F10247   0.586   4.324   6.570  0.1688 -0.0278  0.0620
   7723SM  H21F10248   0.573   4.328   6.680 -0.0423  1.9997  0.0062
   7723SM  H21G10249   0.522   4.238   6.541 -1.3505 -0.0414  3.0321
   7723SM  C22F10250   0.523   4.445   6.491  1.0480 -0.3300  0.6103
   7723SM  H22F10251   0.554   4.543   6.531 -0.7160 -0.3388  2.1697
   7723SM  H22G10252   0.412   4.435   6.502  1.1353 -1.1430  0.8286
   7723SM  C23F10253   0.547   4.433   6.335  0.4525 -0.5261 -1.1864
   7723SM  H23F10254   0.649   4.461   6.302  1.2148 -0.5219  1.0253
   7723SM  H23G10255   0.474   4.500   6.285 -1.2500 -0.2564  1.4330
   7723SM  H23H10256   0.527   4.328   6.306 -0.5057 -0.5721 -0.4303
   7823SM     N10257   2.022   3.317   8.802  0.4667 -0.5688 -0.1162
   7823SM   C1510258   1.998   3.195   8.714 -0.0930  0.0478  0.0152
   7823SM  H15A10259   2.066   3.184   8.631 -0.3901 -1.1707 -0.0803
   7823SM  H15B10260   1.896   3.190   8.677 -0.2519 -0.9655  0.5487
   7823SM  H15C10261   2.008   3.105   8.772 -2.9728 -0.1727  0.3253
   7823SM   C1410262   1.898   3.318   8.890  0.1615 -0.0276 -0.3008
   7823SM  H14A10263   1.812   3.323   8.824  0.8495  2.0807 -1.1364
   7823SM  H14B10264   1.905   3.394   8.966  2.3435 -0.1450 -0.3240
   7823SM  H14C10265   1.888   3.221   8.936 -2.5023 -0.0684 -0.8118
   7823SM   C1310266   2.139   3.300   8.888 -0.2734 -0.0989 -0.0628
   7823SM  H13A10267   2.128   3.202   8.934 -0.6668  0.1010  0.2794
   7823SM  H13B10268   2.144   3.382   8.958 -0.0595  0.4326 -0.6891
   7823SM  H13C10269   2.231   3.303   8.831 -0.1380  0.3102  0.1766
   7823SM   C1210270   2.037   3.442   8.714 -0.2160  1.2210 -0.0417
   7823SM  H12A10271   2.054   3.534   8.768  1.5193  0.8044  0.1766
   7823SM  H12B10272   1.940   3.461   8.669 -1.0053 -0.7705  0.7166
   7823SM   C1110273   2.129   3.432   8.589  0.4467  0.7830 -0.6649
   7823SM  H11A10274   2.132   3.536   8.549 -1.4042  0.5626 -1.4768
   7823SM  H11B10275   2.088   3.369   8.508  2.3663 -0.7138 -0.5385
   7823SM     P10276   2.391   3.449   8.602 -0.3864  0.4582 -0.2038
   7823SM   O1310277   2.402   3.552   8.705 -0.3081 -0.1310 -0.6573
   7823SM   O1410278   2.493   3.341   8.600  0.3397  0.1836 -0.2864
   7823SM   O1110279   2.394   3.524   8.461 -0.0578 -0.1971  0.2760
   7823SM   O1210280   2.256   3.373   8.619 -0.3312  0.1493 -0.6439
   7823SM   C1S10281   2.337   3.466   8.342 -0.3338 -1.1263 -0.4099
   7823SM   H1S10282   2.254   3.398   8.370 -2.3714  1.7472  1.1075
   7823SM   H1T10283   2.418   3.414   8.287  1.5506  1.0416  0.1853
   7823SM    NF10284   2.193   3.498   8.151 -0.2907 -0.0820 -0.9629
   7823SM   HNF10285   2.211   3.510   8.054  0.3390 -0.4098 -0.8917
   7823SM   C2S10286   2.269   3.576   8.251  0.7277 -0.4235 -0.4512
   7823SM   H2S10287   2.193   3.626   8.314 -0.0343 -2.6294  0.4812
   7823SM   C3S10288   2.385   3.669   8.202  0.0220 -0.2407  0.4790
   7823SM   H3S10289   2.455   3.601   8.149  0.9624  1.3767 -0.4491
   7823SM    O310290   2.466   3.729   8.302 -0.2396 -0.4136 -0.2398
   7823SM   HO310291   2.445   3.670   8.375 -2.1967 -0.4028 -0.7319
   7823SM   C4S10292   2.335   3.776   8.094  0.1523  1.0768  0.3750
   7823SM   H4S10293   2.325   3.736   7.992 -1.3583  1.0862  0.4980
   7823SM   C5S10294   2.303   3.900   8.108  0.3330 -1.3420  0.0593
   7823SM   H5S10295   2.314   3.952   8.204  1.9418 -0.5487 -0.5108
   7823SM   C6S10296   2.247   3.994   7.993  0.5374  0.2678 -0.2015
   7823SM   H6S10297   2.284   4.098   8.006 -2.6896  1.4132  0.9511
   7823SM   H6T10298   2.138   4.011   8.009  0.6865  3.1341 -1.6472
   7823SM   C7S10299   2.261   3.950   7.846  0.1243 -0.3517  0.1847
   7823SM   H7S10300   2.221   3.849   7.823 -0.7122  0.1487 -0.6064
   7823SM   H7T10301   2.367   3.947   7.815 -0.2264  0.6843 -1.2194
   7823SM   C8S10302   2.177   4.048   7.755 -0.1236 -0.0316 -0.5057
   7823SM   H8S10303   2.192   4.147   7.802  1.4949 -0.7872  0.6649
   7823SM   H8T10304   2.071   4.023   7.778 -0.3361  0.0481 -1.3758
   7823SM   C9S10305   2.207   4.039   7.604 -0.1364 -0.0741 -0.3049
   7823SM   H9S10306   2.303   4.086   7.572 -0.7664  0.1625 -1.9289
   7823SM   H9T10307   2.134   4.108   7.557 -0.4185 -0.1870 -0.0317
   7823SM  C10S10308   2.213   3.895   7.552 -0.1887  0.8445  0.1014
   7823SM  H10S10309   2.166   3.822   7.620  2.9666 -2.0013 -0.5292
   7823SM  H10T10310   2.320   3.869   7.539 -0.0823  1.7671 -1.1043
   7823SM  C11S10311   2.134   3.886   7.415  0.0457 -1.0252 -0.0583
   7823SM  H11S10312   2.046   3.954   7.418 -0.5773 -1.8468  1.6144
   7823SM  H11T10313   2.095   3.783   7.400  0.6631 -1.3079  0.2293
   7823SM  C12S10314   2.232   3.912   7.301  0.1469  0.1022  0.3485
   7823SM  H12S10315   2.316   3.840   7.313 -0.9784 -1.1402  1.0516
   7823SM  H12T10316   2.279   4.012   7.315 -1.1201  0.9068 -0.8994
   7823SM  C13S10317   2.172   3.916   7.164 -0.8888 -0.3497 -0.0464
   7823SM  H13S10318   2.105   4.004   7.158 -0.0529  0.3524  0.6331
   7823SM  H13T10319   2.110   3.826   7.142  0.5964 -0.7289 -3.1376
   7823SM  C14S10320   2.278   3.919   7.050 -1.0971 -0.0468  0.3753
   7823SM  H14S10321   2.344   3.830   7.055 -1.9026 -0.8476 -1.9714
   7823SM  H14T10322   2.348   4.005   7.063 -0.5653 -0.3884 -0.1824
   7823SM  C15S10323   2.207   3.921   6.915 -0.2404 -0.0256 -0.1184
   7823SM  H15S10324   2.128   3.999   6.926 -0.7899 -0.8304  2.2297
   7823SM  H15T10325   2.170   3.823   6.877  2.0331 -0.8186 -0.4226
   7823SM  C16S10326   2.302   3.970   6.805  0.1190  0.0752 -0.2272
   7823SM  H16S10327   2.378   3.890   6.789  1.4583  1.3911 -0.7654
   7823SM  H16T10328   2.371   4.050   6.840  2.4670 -2.0797  0.4030
   7823SM  C17S10329   2.229   3.984   6.672 -0.0073  0.6213  0.0823
   7823SM  H17S10330   2.161   4.071   6.681 -1.7854 -0.8533  2.3206
   7823SM  H17T10331   2.172   3.889   6.659 -0.1550  1.0494 -3.1388
   7823SM  C18S10332   2.329   4.008   6.557 -0.5512  0.3639  0.2593
   7823SM  H18S10333   2.277   4.033   6.462  1.2910 -0.9221 -1.1504
   7823SM  H18T10334   2.374   3.912   6.527  2.0787  1.5064  0.3010
   7823SM  H18U10335   2.409   4.082   6.580  0.6474 -0.8761  0.1953
   7823SM   C1F10336   2.086   3.428   8.178 -0.1153  0.4574  0.4691
   7823SM    OF10337   2.031   3.434   8.289  0.0571  0.0764  0.1578
   7823SM   C2F10338   2.013   3.352   8.070 -0.0143 -0.5518  0.1982
   7823SM   H2F10339   2.059   3.256   8.041  0.6157  0.3376 -1.9256
   7823SM   H2G10340   2.022   3.419   7.982 -3.3078  0.9415  0.8482
   7823SM   C3F10341   1.861   3.329   8.089 -0.5644 -0.6780  0.3857
   7823SM   H3F10342   1.804   3.425   8.092  0.0708 -0.2879  0.0867
   7823SM   H3G10343   1.842   3.284   8.189 -2.9946 -1.5726 -0.4153
   7823SM   C4F10344   1.799   3.240   7.978  0.1354  0.3915  0.3977
   7823SM   H4F10345   1.691   3.223   7.995 -0.2879 -0.6646 -2.6720
   7823SM   H4G10346   1.857   3.145   7.973  0.1732  0.3402  1.4946
   7823SM   C5F10347   1.828   3.304   7.836  0.2038  0.1549 -0.0563
   7823SM   H5F10348   1.936   3.301   7.809  0.2264  0.8694 -0.0644
   7823SM   H5G10349   1.797   3.409   7.854  0.6018  0.0890  1.1052
   7823SM   C6F10350   1.747   3.239   7.723  0.2711  0.5006 -0.7149
   7823SM   H6F10351   1.637   3.246   7.736  0.3807  2.2913 -0.4485
   7823SM   H6G10352   1.779   3.133   7.723  0.8445  0.6688 -1.1183
   7823SM   C7F10353   1.770   3.288   7.577 -0.0875  0.5786 -0.3302
   7823SM   H7F10354   1.880   3.291   7.563 -0.0149  0.8626  0.2628
   7823SM   H7G10355   1.736   3.393   7.564  0.6470  0.6749 -1.6266
   7823SM   C8F10356   1.714   3.196   7.469  0.1537 -0.5924  0.1279
   7823SM   H8F10357   1.604   3.191   7.485  0.1345  0.6631  0.4337
   7823SM   H8G10358   1.767   3.098   7.465  1.8890  0.0121  3.9572
   7823SM   C9F10359   1.728   3.266   7.331 -0.8751 -0.5706  0.3265
   7823SM   H9F10360   1.836   3.271   7.305 -0.7845  0.9933  0.9256
   7823SM   H9G10361   1.693   3.369   7.351 -1.6945 -0.6481 -0.6190
   7823SM  C10F10362   1.652   3.195   7.219  1.0400 -0.6269 -0.5617
   7823SM  H10F10363   1.553   3.177   7.264  1.1157  0.1549 -0.0475
   7823SM  H10G10364   1.708   3.102   7.198  0.8713 -1.0194  0.6651
   7823SM  C11F10365   1.652   3.277   7.087  0.1253 -0.2468  1.2071
   7823SM  H11F10366   1.759   3.300   7.069 -0.3458  1.1784  0.0921
   7823SM  H11G10367   1.588   3.368   7.095  0.4978  0.2287 -0.8649
   7823SM  C12F10368   1.592   3.194   6.974  0.8983  0.1122  0.1438
   7823SM  H12F10369   1.490   3.160   7.004  1.7455 -1.8059  1.0262
   7823SM  H12G10370   1.653   3.102   6.961  1.4149  0.3791  0.6550
   7823SM  C13F10371   1.588   3.258   6.836 -0.1745 -0.0292  0.5224
   7823SM  H13F10372   1.524   3.349   6.847  0.8599  0.7518  0.2358
   7823SM  H13G10373   1.547   3.183   6.765  0.9502  0.0655 -0.2417
   7823SM  C14F10374   1.727   3.307   6.790 -0.2651  0.4105 -0.4749
   7823SM  H14F10375   1.798   3.227   6.822 -0.4996  0.9695  1.5542
   7823SM  H14G10376   1.752   3.395   6.852  0.9304  0.7844 -1.4457
   7823SM  C15F10377   1.728   3.341   6.635 -0.0056  0.2014  0.0931
   7823SM  H15F10378   1.692   3.445   6.621 -0.2432  0.3626  1.7363
   7823SM  H15G10379   1.654   3.268   6.596  0.9362 -0.5774 -0.3009
   7823SM  C16F10380   1.862   3.314   6.559  0.4702  0.4741 -1.0719
   7823SM  H16F10381   1.899   3.214   6.587 -0.9995  0.3805  0.7299
   7823SM  H16G10382   1.938   3.390   6.588  1.5918 -0.3356 -1.8366
   7823SM  C17F10383   1.845   3.336   6.407  0.5549 -0.0669 -0.4204
   7823SM  H17F10384   1.934   3.391   6.370  1.1192 -0.7498 -0.0993
   7823SM  H17G10385   1.755   3.400   6.417  0.8802  0.0730  2.2003
   7823SM  C18F10386   1.816   3.216   6.326 -0.2343  0.3247  0.6845
   7823SM  H18F10387   1.745   3.148   6.377 -1.2499 -1.0218 -2.2849
   7823SM  H18G10388   1.910   3.161   6.306 -1.2378 -1.2615  0.1245
   7823SM  C19F10389   1.768   3.261   6.186 -0.2868  0.1696 -0.3367
   7823SM  H19F10390   1.833   3.343   6.149 -0.6644  0.7133  0.2014
   7823SM  H19G10391   1.663   3.295   6.193 -0.1256  0.3277  1.7137
   7823SM  C20F10392   1.794   3.155   6.083  0.1851  0.9177 -0.8072
   7823SM  H20F10393   1.904   3.147   6.070  0.4545 -2.9981  2.0451
   7823SM  H20G10394   1.743   3.178   5.987 -0.2872  2.6556 -0.1844
   7823SM  C21F10395   1.756   3.017   6.137  0.0254 -0.0315 -0.4178
   7823SM  H21F10396   1.654   3.023   6.178 -0.3621  0.9739 -1.4634
   7823SM  H21G10397   1.814   2.979   6.223 -1.5654 -0.7424  0.3776
   7823SM  C22F10398   1.763   2.903   6.029  0.1741  0.2126 -0.0564
   7823SM  H22F10399   1.867   2.912   5.993 -0.3038  0.0749 -1.5297
   7823SM  H22G10400   1.694   2.922   5.944 -0.9723 -2.5194  0.1504
   7823SM  C23F10401   1.736   2.767   6.095  0.0341 -0.9651 -0.0927
   7823SM  H23F10402   1.626   2.761   6.107 -0.0034 -1.8642 -0.7873
   7823SM  H23G10403   1.785   2.770   6.194  1.1245  1.5082 -0.6218
   7823SM  H23H10404   1.782   2.688   6.031  0.9238 -0.8037  0.3326
   7923SM     N10405   5.656   3.705   9.500 -0.3857 -0.2104 -0.0252
   7923SM   C1510406   5.695   3.562   9.489  0.5243  0.2663 -0.2878
   7923SM  H15A10407   5.798   3.552   9.458  0.1657 -0.1255 -1.4000
   7923SM  H15B10408   5.634   3.511   9.416  1.2721 -0.5473 -0.3652
   7923SM  H15C10409   5.692   3.510   9.584 -1.3596  1.0452  0.1121
   7923SM   C1410410   5.533   3.720   9.580 -0.4132 -0.0038  0.1724
   7923SM  H14A10411   5.503   3.823   9.592  0.3796  0.1918  0.4976
   7923SM  H14B10412   5.548   3.681   9.679  0.0884  0.3653  0.2461
   7923SM  H14C10413   5.450   3.666   9.537 -0.4966 -2.2457  2.8822
   7923SM   C1310414   5.760   3.772   9.581  1.1457  0.0996 -1.3938
   7923SM  H13A10415   5.711   3.868   9.593 -2.6470 -1.9168  1.3436
   7923SM  H13B10416   5.856   3.787   9.533  1.1711  0.5102 -1.2218
   7923SM  H13C10417   5.779   3.722   9.675  0.7724  3.6747  0.7761
   7923SM   C1210418   5.648   3.766   9.362  0.0650  0.4244 -0.0324
   7923SM  H12A10419   5.742   3.735   9.321 -0.8881 -2.4787 -0.2037
   7923SM  H12B10420   5.638   3.873   9.379  0.2857  0.5320 -0.5594
   7923SM   C1110421   5.536   3.720   9.263  0.7122 -0.0960  0.3009
   7923SM  H11A10422   5.539   3.791   9.178  0.5129 -1.2365 -0.6953
   7923SM  H11B10423   5.439   3.744   9.311  0.2707  1.8279 -1.4124
   7923SM     P10424   5.667   3.550   9.128 -0.2902 -0.1362 -0.3091
   7923SM   O1310425   5.752   3.662   9.085  0.3316 -0.0189  1.2278
   7923SM   O1410426   5.742   3.444   9.197  0.2260  0.4034 -0.4514
   7923SM   O1110427   5.602   3.482   9.002 -0.5049 -0.5160  0.1426
   7923SM   O1210428   5.550   3.585   9.220 -1.0627 -0.0739 -0.0410
   7923SM   C1S10429   5.491   3.516   8.932 -0.1854  0.3311  0.9017
   7923SM   H1S10430   5.486   3.627   8.935  1.9752  0.5606 -0.9840
   7923SM   H1T10431   5.392   3.487   8.972  0.1694 -1.3962  0.6068
   7923SM    NF10432   5.404   3.573   8.700 -0.1167  0.3902 -1.1063
   7923SM   HNF10433   5.323   3.544   8.650 -1.1014  2.3592 -0.7489
   7923SM   C2S10434   5.485   3.484   8.776 -0.8190  0.7367 -0.6432
   7923SM   H2S10435   5.589   3.504   8.743  0.1469 -0.5357  1.4099
   7923SM   C3S10436   5.470   3.330   8.751  0.0986  0.8180 -0.6743
   7923SM   H3S10437   5.364   3.306   8.773  0.5019 -1.0560 -0.6113
   7923SM    O310438   5.559   3.251   8.833  0.2878 -0.6197 -0.0448
   7923SM   HO310439   5.613   3.315   8.879 -0.9973  0.6466 -0.2367
   7923SM   C4S10440   5.499   3.301   8.606 -0.2383  0.0946  0.3769
   7923SM   H4S10441   5.605   3.293   8.578 -0.3765  0.1336 -0.1676
   7923SM   C5S10442   5.410   3.267   8.513 -0.2929 -0.1905  0.0679
   7923SM   H5S10443   5.304   3.276   8.538 -0.9521 -3.8676 -0.8260
   7923SM   C6S10444   5.449   3.238   8.370  0.2465  0.7485 -0.1348
   7923SM   H6S10445   5.411   3.138   8.340 -1.4785  1.1917  0.4230
   7923SM   H6T10446   5.559   3.243   8.356  0.7359 -3.2766  0.9366
   7923SM   C7S10447   5.392   3.340   8.273 -0.6063 -0.1465  0.4424
   7923SM   H7S10448   5.442   3.438   8.287  0.1003 -0.3040 -0.7788
   7923SM   H7T10449   5.284   3.363   8.278 -0.8821 -1.5374  1.5410
   7923SM   C8S10450   5.421   3.285   8.130  0.5944  0.1653  0.3509
   7923SM   H8S10451   5.361   3.193   8.114 -0.5728  1.2895 -2.3611
   7923SM   H8T10452   5.526   3.269   8.100  0.4717  0.7817 -0.4306
   7923SM   C9S10453   5.364   3.380   8.025 -0.0247 -0.4685  0.3553
   7923SM   H9S10454   5.400   3.482   8.050  0.0665 -0.7134  1.2551
   7923SM   H9T10455   5.253   3.388   8.028  0.1064  2.7118  0.7447
   7923SM  C10S10456   5.408   3.341   7.880 -0.1223 -0.1680 -0.1004
   7923SM  H10S10457   5.364   3.240   7.861  0.0882  0.2141 -3.1363
   7923SM  H10T10458   5.518   3.333   7.872 -0.1630  0.8542 -3.8593
   7923SM  C11S10459   5.355   3.445   7.778 -0.3030 -0.0351 -0.0527
   7923SM  H11S10460   5.391   3.550   7.783  0.6059 -0.3426 -0.0068
   7923SM  H11T10461   5.245   3.455   7.789 -0.1670  0.7384  0.6527
   7923SM  C12S10462   5.386   3.394   7.634 -0.5015  0.4895  0.2056
   7923SM  H12S10463   5.359   3.286   7.622 -0.3155  0.6815 -2.8019
   7923SM  H12T10464   5.496   3.391   7.618 -0.4068 -2.6521  0.7709
   7923SM  C13S10465   5.306   3.474   7.530 -0.0788  0.0590 -0.5987
   7923SM  H13S10466   5.342   3.578   7.543 -3.6339  1.1988  1.4944
   7923SM  H13T10467   5.201   3.475   7.565 -0.3129 -0.3843 -1.2710
   7923SM  C14S10468   5.330   3.425   7.391 -0.0191 -0.5889  0.0481
   7923SM  H14S10469   5.287   3.324   7.370  0.4752 -0.6199 -0.8996
   7923SM  H14T10470   5.440   3.416   7.379  0.0530  0.7331 -0.4014
   7923SM  C15S10471   5.286   3.527   7.279  0.5372  0.1849 -0.3027
   7923SM  H15S10472   5.358   3.611   7.271 -1.3071  1.7681 -1.4307
   7923SM  H15T10473   5.188   3.567   7.313  0.8476  1.8169 -1.1995
   7923SM  C16S10474   5.273   3.467   7.140  0.0653  0.5494 -0.0583
   7923SM  H16S10475   5.213   3.374   7.151  0.8090 -0.4484 -3.3772
   7923SM  H16T10476   5.363   3.440   7.081 -1.4226 -0.3074 -2.0667
   7923SM  C17S10477   5.195   3.554   7.037 -0.0969  0.0542  0.2255
   7923SM  H17S10478   5.256   3.642   7.009  1.9424 -1.6253 -0.9325
   7923SM  H17T10479   5.108   3.594   7.093  1.2690  0.9902  1.7959
   7923SM  C18S10480   5.157   3.478   6.909 -0.5177  0.2960  0.2884
   7923SM  H18S10481   5.240   3.452   6.840 -1.1648 -1.0305 -0.0346
   7923SM  H18T10482   5.094   3.550   6.852  1.1589  1.3800 -0.2525
   7923SM  H18U10483   5.092   3.389   6.925  1.0534 -0.8458  0.4764
   7923SM   C1F10484   5.433   3.704   8.687 -0.0535 -0.2207 -0.5119
   7923SM    OF10485   5.547   3.744   8.707  0.8746  0.2448 -0.4424
   7923SM   C2F10486   5.325   3.797   8.656 -0.1006 -0.0838 -0.4842
   7923SM   H2F10487   5.313   3.864   8.743 -0.4430  0.1356 -0.6950
   7923SM   H2G10488   5.233   3.739   8.631 -0.2430 -0.8669  1.6942
   7923SM   C3F10489   5.362   3.899   8.538  0.1258  0.4363  0.0300
   7923SM   H3F10490   5.443   3.963   8.580 -0.7046  1.4729  0.0944
   7923SM   H3G10491   5.274   3.965   8.519  0.3986  0.2455 -2.1678
   7923SM   C4F10492   5.396   3.829   8.405 -0.0815  0.2684 -0.3577
   7923SM   H4F10493   5.319   3.749   8.394  0.8295 -0.7311  0.3605
   7923SM   H4G10494   5.490   3.771   8.402 -0.7104 -0.7724 -0.3216
   7923SM   C5F10495   5.392   3.919   8.279 -0.0530 -0.4161  0.7748
   7923SM   H5F10496   5.483   3.983   8.278 -0.6211  0.6190  3.6620
   7923SM   H5G10497   5.307   3.990   8.287 -1.0265 -1.5814  0.9994
   7923SM   C6F10498   5.380   3.838   8.151 -0.8845  0.3874 -0.5790
   7923SM   H6F10499   5.292   3.771   8.163  0.1970 -0.8763  0.7101
   7923SM   H6G10500   5.464   3.767   8.137  0.3161  1.3122  1.5293
   7923SM   C7F10501   5.373   3.935   8.035  0.1641  0.9547  0.0326
   7923SM   H7F10502   5.468   3.993   8.032  0.6435  0.1577 -0.4968
   7923SM   H7G10503   5.278   3.992   8.028 -0.0517  0.4809 -1.0565
   7923SM   C8F10504   5.370   3.845   7.909  0.7807  0.2404 -0.4255
   7923SM   H8F10505   5.290   3.769   7.925  1.2549 -0.5666 -1.7578
   7923SM   H8G10506   5.466   3.792   7.891  0.2744  0.2663 -3.6994
   7923SM   C9F10507   5.335   3.920   7.779 -0.0579  0.1525  0.6949
   7923SM   H9F10508   5.405   4.006   7.786  0.5872 -0.4427  2.1349
   7923SM   H9G10509   5.229   3.948   7.768  0.0782  0.0399 -1.1421
   7923SM  C10F10510   5.359   3.840   7.641 -0.1069  0.1079  0.8491
   7923SM  H10F10511   5.279   3.764   7.631  1.0742 -1.1259  0.3136
   7923SM  H10G10512   5.457   3.788   7.632  0.2132  1.0176 -2.0507
   7923SM  C11F10513   5.352   3.935   7.517  0.3058  0.0717 -0.2167
   7923SM  H11F10514   5.445   3.996   7.521  0.0396  0.5337 -0.8607
   7923SM  H11G10515   5.268   4.000   7.548  1.9585  1.9721  0.4753
   7923SM  C12F10516   5.331   3.869   7.385 -0.4625 -0.4889  0.1846
   7923SM  H12F10517   5.244   3.800   7.385 -1.7574  1.0644 -1.9084
   7923SM  H12G10518   5.418   3.807   7.354  0.8218  1.9276 -1.2750
   7923SM  C13F10519   5.309   3.971   7.271  0.6783  0.8858 -0.3602
   7923SM  H13F10520   5.405   4.024   7.251  0.3068  1.1067 -1.6117
   7923SM  H13G10521   5.231   4.043   7.304  0.1857 -1.1437  3.4943
   7923SM  C14F10522   5.252   3.899   7.142 -0.4667 -1.2728  0.0585
   7923SM  H14F10523   5.156   3.848   7.168 -0.8302 -1.6912 -1.9760
   7923SM  H14G10524   5.324   3.820   7.112 -0.6061 -1.9442  1.3746
   7923SM  C15F10525   5.218   3.995   7.021 -0.5904 -0.5976  0.1354
   7923SM  H15F10526   5.302   4.065   7.000 -0.3991 -0.5904  0.9209
   7923SM  H15G10527   5.130   4.048   7.064 -1.1832 -1.4256 -0.0387
   7923SM  C16F10528   5.183   3.930   6.886  0.8396 -0.2142  0.1474
   7923SM  H16F10529   5.094   3.988   6.852 -0.5079  0.0206  3.6380
   7923SM  H16G10530   5.136   3.831   6.907 -1.2922  0.3797 -1.4035
   7923SM  C17F10531   5.310   3.931   6.794 -0.2576 -0.5280 -0.0283
   7923SM  H17F10532   5.398   3.886   6.846  1.1837  1.2628 -0.8124
   7923SM  H17G10533   5.349   4.034   6.792  2.0006 -1.3228  0.1433
   7923SM  C18F10534   5.288   3.892   6.651  0.2110  0.6708  0.3573
   7923SM  H18F10535   5.381   3.877   6.592  0.2276 -1.1305  0.7659
   7923SM  H18G10536   5.218   3.967   6.610  1.8834  0.8856 -2.3812
   7923SM  C19F10537   5.196   3.765   6.651 -0.7087 -0.3560  1.0849
   7923SM  H19F10538   5.091   3.790   6.679 -0.0813  3.3194  0.7303
   7923SM  H19G10539   5.227   3.682   6.718  1.7426 -0.1060  0.3769
   7923SM  C20F10540   5.179   3.720   6.501 -0.3563 -0.7509 -0.2143
   7923SM  H20F10541   5.281   3.695   6.464  1.0519  2.3145  1.2405
   7923SM  H20G10542   5.134   3.801   6.440 -0.2441 -0.3723  0.2007
   7923SM  C21F10543   5.091   3.595   6.506  0.4641  0.3697 -0.0923
   7923SM  H21F10544   5.002   3.620   6.569  1.7987 -0.0601  2.0531
   7923SM  H21G10545   5.148   3.518   6.561  1.3279  0.2130 -1.1756
   7923SM  C22F10546   5.043   3.543   6.373  0.0980  0.2598  1.0674
   7923SM  H22F10547   4.980   3.623   6.329  1.7650 -0.1238 -2.3011
   7923SM  H22G10548   4.981   3.455   6.400  1.4835 -1.0076  0.2660
   7923SM  C23F10549   5.153   3.497   6.281 -0.3621 -0.7061  0.4042
   7923SM  H23F10550   5.206   3.584   6.237 -1.0845 -0.7387 -0.5529
   7923SM  H23G10551   5.117   3.425   6.204  0.9421 -0.1522 -0.7841
   7923SM  H23H10552   5.230   3.451   6.347 -0.8498 -0.6559  1.0178
   8023SM     N10553   1.392   4.130   9.489  0.0295  0.2209 -0.7200
   8023SM   C1510554   1.423   4.002   9.556  0.2917  0.1184 -0.1120
   8023SM  H15A10555   1.505   3.948   9.510  0.6856 -0.3559  1.0999
   8023SM  H15B10556   1.340   3.934   9.552  0.4745 -0.2337  1.4709
   8023SM  H15C10557   1.442   4.013   9.662 -1.3847  1.5186  0.0897
   8023SM   C1410558   1.305   4.205   9.583 -0.5001 -0.0115  0.8854
   8023SM  H14A10559   1.202   4.173   9.585 -0.4685 -0.1809  0.1544
   8023SM  H14B10560   1.297   4.310   9.558 -0.0160  0.0550  0.9970
   8023SM  H14C10561   1.338   4.199   9.686 -2.2156 -0.5216  1.4370
   8023SM   C1310562   1.512   4.215   9.483 -0.4952 -0.2972  0.0785
   8023SM  H13A10563   1.498   4.307   9.429 -2.9806 -1.5081 -1.5332
   8023SM  H13B10564   1.595   4.160   9.441 -2.4827 -2.5818 -1.1188
   8023SM  H13C10565   1.531   4.236   9.587 -0.4269 -1.4787  0.3183
   8023SM   C1210566   1.332   4.108   9.356 -0.0920  0.8251  0.4999
   8023SM  H12A10567   1.282   4.200   9.328 -2.3114 -0.0568  1.2882
   8023SM  H12B10568   1.253   4.034   9.358  0.6089  0.0416 -0.3314
   8023SM   C1110569   1.427   4.053   9.245 -0.8940 -0.5819 -0.2074
   8023SM  H11A10570   1.512   4.124   9.235  0.5682 -2.2961 -0.6726
   8023SM  H11B10571   1.372   4.056   9.148 -1.1164  2.0331 -0.0673
   8023SM     P10572   1.625   3.901   9.271 -0.1304  0.1045 -0.2598
   8023SM   O1310573   1.685   3.957   9.397  1.1796  0.0362 -0.1541
   8023SM   O1410574   1.636   3.757   9.243  0.1974  0.2090  0.0605
   8023SM   O1110575   1.676   3.977   9.136  0.1367  0.9466 -0.3061
   8023SM   O1210576   1.467   3.921   9.272 -0.6588 -0.2732  0.5173
   8023SM   C1S10577   1.637   3.920   9.005  0.0075 -0.6652  0.4330
   8023SM   H1S10578   1.529   3.895   9.001 -0.5071  1.3356  0.4594
   8023SM   H1T10579   1.705   3.839   8.972  0.7094  0.6648 -1.5521
   8023SM    NF10580   1.626   3.952   8.767  0.0320 -0.8255 -0.1186
   8023SM   HNF10581   1.709   3.953   8.711  1.5693  0.9982  2.0544
   8023SM   C2S10582   1.655   4.020   8.889  0.2131 -0.3360 -0.2695
   8023SM   H2S10583   1.569   4.089   8.892  1.6908  1.5544  1.3755
   8023SM   C3S10584   1.790   4.097   8.901 -0.3963 -0.9067  0.2976
   8023SM   H3S10585   1.882   4.034   8.898  0.6775  0.6460 -1.1436
   8023SM    O310586   1.804   4.172   9.017 -0.4946  0.6457  0.0001
   8023SM   HO310587   1.765   4.106   9.074  3.1932 -0.9318  1.0419
   8023SM   C4S10588   1.806   4.188   8.781  0.1320  0.4535 -0.1710
   8023SM   H4S10589   1.858   4.131   8.703  1.3744 -0.9803  1.6005
   8023SM   C5S10590   1.744   4.306   8.761  0.0807  0.2288 -0.2886
   8023SM   H5S10591   1.688   4.349   8.846 -0.3376  0.2232 -0.5603
   8023SM   C6S10592   1.750   4.388   8.633 -0.1252  0.6074 -0.1250
   8023SM   H6S10593   1.813   4.473   8.666  1.4993 -0.4927 -0.2665
   8023SM   H6T10594   1.649   4.432   8.616 -0.7689 -0.1835  1.4117
   8023SM   C7S10595   1.801   4.315   8.512 -0.7421  0.3230  0.7230
   8023SM   H7S10596   1.729   4.233   8.490 -1.2228  1.2273 -1.3326
   8023SM   H7T10597   1.902   4.280   8.540  0.1442  2.3506  0.2436
   8023SM   C8S10598   1.816   4.392   8.382 -0.2218 -0.6145 -0.2053
   8023SM   H8S10599   1.895   4.470   8.391 -0.6815 -0.2911  1.2772
   8023SM   H8T10600   1.722   4.448   8.362  0.1517  0.1466  0.1270
   8023SM   C9S10601   1.851   4.304   8.262 -0.3977 -0.0557 -0.1211
   8023SM   H9S10602   1.787   4.214   8.264 -0.9974  0.3720  0.4195
   8023SM   H9T10603   1.956   4.271   8.275 -0.0097  0.9600 -0.5463
   8023SM  C10S10604   1.830   4.367   8.125 -0.5354 -0.4573 -1.0282
   8023SM  H10S10605   1.883   4.465   8.124  0.9041 -1.1211  1.4007
   8023SM  H10T10606   1.723   4.395   8.136 -0.7206 -0.9021 -1.6501
   8023SM  C11S10607   1.845   4.265   8.012  0.6762 -0.2804 -0.5485
   8023SM  H11S10608   1.774   4.184   8.039  0.4847 -0.0969 -0.4966
   8023SM  H11T10609   1.941   4.210   7.999 -0.0160 -2.2007  1.7573
   8023SM  C12S10610   1.798   4.329   7.876  0.0431 -0.1797 -0.0299
   8023SM  H12S10611   1.876   4.402   7.844 -1.8482  1.9871  0.0141
   8023SM  H12T10612   1.695   4.366   7.895 -0.5206 -2.7644  2.7129
   8023SM  C13S10613   1.789   4.226   7.764  0.1423 -0.0708 -0.4117
   8023SM  H13S10614   1.732   4.138   7.800  0.0044  0.1329 -0.1287
   8023SM  H13T10615   1.889   4.187   7.736 -0.8911 -1.1779 -2.8966
   8023SM  C14S10616   1.733   4.287   7.632 -0.8671 -0.2442  0.3174
   8023SM  H14S10617   1.779   4.388   7.633  1.8086 -1.3824  0.9230
   8023SM  H14T10618   1.623   4.297   7.632 -0.8161  1.5793 -2.6598
   8023SM  C15S10619   1.788   4.226   7.500 -0.2042 -0.1391 -0.1664
   8023SM  H15S10620   1.788   4.115   7.501  5.2406 -0.4018  1.3412
   8023SM  H15T10621   1.896   4.255   7.497 -0.3795  0.4650 -1.1117
   8023SM  C16S10622   1.730   4.286   7.372  0.6188  0.0699 -0.0921
   8023SM  H16S10623   1.742   4.396   7.368 -0.3502  0.2032  0.3045
   8023SM  H16T10624   1.619   4.279   7.377  0.6232  0.3425  0.4535
   8023SM  C17S10625   1.792   4.225   7.250 -0.1036 -0.1708 -0.0088
   8023SM  H17S10626   1.747   4.124   7.240 -1.6836  0.6456 -2.0201
   8023SM  H17T10627   1.902   4.231   7.261 -0.1070  2.0108 -0.6497
   8023SM  C18S10628   1.745   4.293   7.123  0.2907 -0.6875  0.6542
   8023SM  H18S10629   1.635   4.310   7.115  0.3770  0.8364  2.1087
   8023SM  H18T10630   1.776   4.240   7.031 -1.1713 -0.9319  0.2773
   8023SM  H18U10631   1.779   4.399   7.125  3.0626 -1.3211 -2.6198
   8023SM   C1F10632   1.521   3.892   8.719  0.0487 -0.1660 -0.4357
   8023SM    OF10633   1.412   3.882   8.775 -0.2413 -0.5604  0.4838
   8023SM   C2F10634   1.538   3.824   8.586  0.3979 -0.7505 -0.6612
   8023SM   H2F10635   1.444   3.766   8.575  0.5109 -1.3608  1.1762
   8023SM   H2G10636   1.621   3.750   8.583  0.2103 -1.1838  2.1107
   8023SM   C3F10637   1.539   3.929   8.473  0.3791  0.5798  0.7610
   8023SM   H3F10638   1.562   3.880   8.376  0.3102 -2.4894  2.1875
   8023SM   H3G10639   1.630   3.992   8.485  0.8649 -0.3413  2.1656
   8023SM   C4F10640   1.420   4.025   8.459  0.5720  0.2749 -0.2198
   8023SM   H4F10641   1.408   4.076   8.556 -4.3107  0.0507 -0.4499
   8023SM   H4G10642   1.326   3.969   8.443  0.1279  1.0629 -0.4071
   8023SM   C5F10643   1.437   4.130   8.346 -0.1095  0.2515  0.1345
   8023SM   H5F10644   1.533   4.185   8.358  0.1444  0.6507 -2.8550
   8023SM   H5G10645   1.355   4.204   8.358  0.2708  0.3774  2.3435
   8023SM   C6F10646   1.438   4.062   8.209 -0.9286 -0.0860 -0.0647
   8023SM   H6F10647   1.368   3.976   8.200 -1.7273  0.3574  1.4891
   8023SM   H6G10648   1.539   4.028   8.178  0.6946  3.3358  0.9758
   8023SM   C7F10649   1.407   4.159   8.096  0.7979 -0.6714 -0.5468
   8023SM   H7F10650   1.463   4.255   8.099 -1.3713  0.6805 -0.9596
   8023SM   H7G10651   1.305   4.203   8.100  0.5979 -1.2422  1.4518
   8023SM   C8F10652   1.411   4.089   7.958 -0.2177 -0.2720  0.2243
   8023SM   H8F10653   1.347   3.999   7.967  0.7733 -1.0560 -0.2897
   8023SM   H8G10654   1.514   4.048   7.947 -0.2734  0.0581 -2.0594
   8023SM   C9F10655   1.376   4.164   7.830  0.5581  1.3118 -0.1606
   8023SM   H9F10656   1.433   4.258   7.814 -1.0223  2.3503  0.1489
   8023SM   H9G10657   1.267   4.182   7.821  0.1486 -1.1589 -0.9326
   8023SM  C10F10658   1.407   4.076   7.699 -0.3217 -0.6641  0.1629
   8023SM  H10F10659   1.390   3.968   7.718  1.0578 -1.0310 -0.5278
   8023SM  H10G10660   1.518   4.079   7.687 -0.3265 -4.2678 -2.1196
   8023SM  C11F10661   1.349   4.139   7.573 -0.1345 -0.3173 -0.5621
   8023SM  H11F10662   1.395   4.239   7.564 -1.6967  0.4902  0.0725
   8023SM  H11G10663   1.238   4.140   7.583 -0.3465  0.1619 -2.6107
   8023SM  C12F10664   1.374   4.046   7.451  0.2276 -0.0073 -0.1986
   8023SM  H12F10665   1.326   3.947   7.471 -1.1124  0.4257 -1.1662
   8023SM  H12G10666   1.483   4.026   7.442  0.2735 -0.4301  1.0483
   8023SM  C13F10667   1.318   4.097   7.317 -0.3084 -0.0702 -0.6584
   8023SM  H13F10668   1.368   4.196   7.306  1.4720 -0.8628 -0.1407
   8023SM  H13G10669   1.207   4.098   7.320 -0.3588  1.1096 -2.1022
   8023SM  C14F10670   1.362   4.013   7.194 -0.6903 -0.4318 -0.4956
   8023SM  H14F10671   1.291   3.928   7.188 -1.3907 -0.1133  1.8795
   8023SM  H14G10672   1.459   3.962   7.213 -0.4841 -0.5968 -1.8806
   8023SM  C15F10673   1.366   4.088   7.066 -0.4166 -0.0480  0.7087
   8023SM  H15F10674   1.395   4.014   6.988 -0.3413 -0.4352  1.1025
   8023SM  H15G10675   1.446   4.164   7.083 -2.5607  2.2411  1.0881
   8023SM  C16F10676   1.233   4.145   7.027  0.8018 -0.0903 -0.3485
   8023SM  H16F10677   1.201   4.203   7.116  1.1689 -1.4400  0.7014
   8023SM  H16G10678   1.158   4.063   7.019 -3.1236  3.0182  1.1294
   8023SM  C17F10679   1.229   4.230   6.902  0.4317 -0.1034  0.0864
   8023SM  H17F10680   1.223   4.157   6.818  3.1568  0.9791 -1.1675
   8023SM  H17G10681   1.322   4.289   6.889 -0.4699  1.4520  0.4302
   8023SM  C18F10682   1.104   4.311   6.887 -0.1236 -0.1816  0.1562
   8023SM  H18F10683   1.096   4.382   6.972 -4.4141 -1.1229  0.8187
   8023SM  H18G10684   1.014   4.246   6.904 -0.9030  0.6056 -0.8273
   8023SM  C19F10685   1.085   4.386   6.755  0.4692  0.3061  0.4668
   8023SM  H19F10686   0.982   4.429   6.749  1.0682  1.7523  0.0849
   8023SM  H19G10687   1.095   4.306   6.680 -0.3875 -2.8897  3.4868
   8023SM  C20F10688   1.191   4.497   6.742 -0.4713  0.3640  0.1244
   8023SM  H20F10689   1.292   4.457   6.717  0.2340  1.4352  1.1655
   8023SM  H20G10690   1.194   4.549   6.840  1.2244 -1.3854  1.0659
   8023SM  C21F10691   1.166   4.599   6.637 -0.3585 -0.0975  1.3480
   8023SM  H21F10692   1.067   4.647   6.656 -0.1823  2.0926 -2.2011
   8023SM  H21G10693   1.133   4.546   6.545 -0.5140  1.5136  0.4304
   8023SM  C22F10694   1.283   4.692   6.599  0.4884  0.5731  0.4486
   8023SM  H22F10695   1.360   4.623   6.558 -0.6208 -1.7729  2.0466
   8023SM  H22G10696   1.325   4.723   6.697  0.9499 -0.8895  0.7435
   8023SM  C23F10697   1.255   4.813   6.511 -0.6782  0.0264 -0.4194
   8023SM  H23F10698   1.195   4.801   6.418  1.6358 -1.7008 -1.7881
   8023SM  H23G10699   1.353   4.859   6.488  0.5892 -2.0360  0.5631
   8023SM  H23H10700   1.196   4.882   6.576 -1.5717 -0.5300 -0.6295
   8123SM     N10701   3.451   6.382   4.006  0.2348  0.8512  0.1861
   8123SM   C1510702   3.565   6.373   3.910 -0.8075 -0.5042  0.4863
   8123SM  H15A10703   3.654   6.367   3.971 -0.5540  0.3919  0.2251
   8123SM  H15B10704   3.567   6.463   3.850  1.5855 -1.4445 -1.0325
   8123SM  H15C10705   3.556   6.288   3.844  1.8898 -0.8584  0.4264
   8123SM   C1410706   3.336   6.373   3.915  0.1087 -0.6523  1.0463
   8123SM  H14A10707   3.337   6.287   3.850  1.1246  0.1942 -0.1136
   8123SM  H14B10708   3.340   6.458   3.848 -1.1125  0.2358  2.0539
   8123SM  H14C10709   3.238   6.374   3.962  0.5100  0.2097  1.8926
   8123SM   C1310710   3.455   6.257   4.090  0.4169 -0.1468 -0.0568
   8123SM  H13A10711   3.511   6.272   4.181  0.9608  0.2245 -0.4514
   8123SM  H13B10712   3.509   6.182   4.035  0.5858  1.3572 -2.0242
   8123SM  H13C10713   3.356   6.232   4.126 -1.3254  2.1502 -2.8818
   8123SM   C1210714   3.445   6.517   4.077 -0.4037  0.5761 -0.6923
   8123SM  H12A10715   3.504   6.512   4.167 -1.5599  2.0126  0.1892
   8123SM  H12B10716   3.346   6.522   4.120 -0.7502  0.7032 -1.4826
   8123SM   C1110717   3.454   6.650   4.009 -0.0983 -0.6121  0.2631
   8123SM  H11A10718   3.550   6.662   3.954  1.7425 -3.8864  2.3654
   8123SM  H11B10719   3.435   6.731   4.082 -2.5332 -0.3718 -0.5523
   8123SM     P10720   3.217   6.743   3.911  0.1417 -0.0162  0.1572
   8123SM   O1310721   3.235   6.883   3.863  0.6703  0.8397 -0.0215
   8123SM   O1410722   3.120   6.670   3.830  0.2259  0.7398 -0.2824
   8123SM   O1110723   3.183   6.750   4.071 -0.0925  0.0641 -0.5077
   8123SM   O1210724   3.351   6.662   3.911  0.2965 -0.3432  0.2294
   8123SM   C1S10725   3.075   6.682   4.130  0.3212  0.5790  0.1027
   8123SM   H1S10726   3.102   6.575   4.136  2.7849  1.2125  1.9801
   8123SM   H1T10727   2.984   6.691   4.066  0.9803  0.6894 -0.8347
   8123SM    NF10728   2.933   6.666   4.330 -0.1079  0.0028  0.3170
   8123SM   HNF10729   2.841   6.704   4.328  0.4153  1.3452  0.3382
   8123SM   C2S10730   3.044   6.736   4.273  0.2714 -0.5509  0.1406
   8123SM   H2S10731   3.136   6.705   4.327 -0.0648 -4.0561 -1.0380
   8123SM   C3S10732   3.037   6.887   4.272 -0.9180  0.2267 -0.0115
   8123SM   H3S10733   2.963   6.924   4.198 -0.6001  2.5892  0.7661
   8123SM    O310734   3.153   6.959   4.224 -0.2215  0.0441  0.1335
   8123SM   HO310735   3.207   6.898   4.174 -1.2580  0.3494 -1.4429
   8123SM   C4S10736   3.005   6.925   4.409  0.0677 -0.1574 -0.2688
   8123SM   H4S10737   3.071   6.890   4.490 -0.8428  1.1955  1.1331
   8123SM   C5S10738   2.900   7.002   4.432  0.1572  0.9266  0.3704
   8123SM   H5S10739   2.835   7.038   4.350 -0.8080  0.6747  1.0045
   8123SM   C6S10740   2.859   7.054   4.571 -0.7078 -0.5575  0.3354
   8123SM   H6S10741   2.749   7.057   4.582 -1.0184 -0.5797 -2.1809
   8123SM   H6T10742   2.876   7.164   4.571  1.2700 -0.8135  0.1342
   8123SM   C7S10743   2.925   6.993   4.693 -0.3339  0.1415 -0.2521
   8123SM   H7S10744   3.032   6.966   4.682 -0.8562 -3.3639  1.7308
   8123SM   H7T10745   2.887   6.890   4.707 -0.0859  0.0917  0.0759
   8123SM   C8S10746   2.899   7.070   4.822  0.0129  0.2539 -0.1883
   8123SM   H8S10747   2.791   7.085   4.842 -0.6049 -1.6460 -1.7513
   8123SM   H8T10748   2.943   7.171   4.807  1.4008  0.0952  2.1861
   8123SM   C9S10749   2.965   6.999   4.945 -0.2003 -0.2459  0.1567
   8123SM   H9S10750   3.075   6.993   4.926  0.0398  2.6725  0.0820
   8123SM   H9T10751   2.928   6.895   4.948 -1.0907 -0.0317 -2.0595
   8123SM  C10S10752   2.932   7.067   5.082 -0.0450 -0.6141 -0.3826
   8123SM  H10S10753   2.823   7.089   5.079 -0.6830 -2.9758  1.5559
   8123SM  H10T10754   2.979   7.166   5.094 -1.4170  0.0325 -0.0735
   8123SM  C11S10755   2.953   6.975   5.204 -0.8662 -0.1357  0.4600
   8123SM  H11S10756   3.061   6.958   5.223 -0.7823  0.2753  0.3648
   8123SM  H11T10757   2.901   6.878   5.192 -3.0326  0.9712  0.2238
   8123SM  C12S10758   2.900   7.043   5.337 -0.6681 -0.2464 -0.0834
   8123SM  H12S10759   2.789   7.044   5.332 -0.7126 -1.3494  0.4934
   8123SM  H12T10760   2.937   7.147   5.325  0.2764 -0.5895 -0.2405
   8123SM  C13S10761   2.960   6.973   5.463  0.4162 -0.2107 -0.3635
   8123SM  H13S10762   3.070   6.980   5.452  0.3461  2.0707 -0.1445
   8123SM  H13T10763   2.925   6.868   5.468  1.3222 -0.4587  2.2687
   8123SM  C14S10764   2.918   7.043   5.593 -0.3478  0.4901 -0.0340
   8123SM  H14S10765   2.807   7.045   5.593 -0.3728  2.5057  2.0331
   8123SM  H14T10766   2.963   7.144   5.584  0.7544 -0.0956 -1.5430
   8123SM  C15S10767   2.970   6.967   5.725 -0.1727 -0.3709  0.2772
   8123SM  H15S10768   3.080   6.956   5.736 -0.2960 -1.8213  0.2042
   8123SM  H15T10769   2.927   6.865   5.732 -1.6747  0.3487  2.6891
   8123SM  C16S10770   2.913   7.033   5.859 -0.0996  0.5715 -0.4478
   8123SM  H16S10771   2.805   7.057   5.857  0.0450  1.8629  2.2351
   8123SM  H16T10772   2.965   7.130   5.877  0.1591  0.9167 -2.7896
   8123SM  C17S10773   2.943   6.949   5.982 -0.0990  0.0906 -0.1920
   8123SM  H17S10774   3.050   6.920   5.973 -0.5908 -2.0268  0.3392
   8123SM  H17T10775   2.881   6.857   5.977 -1.4566  0.9385  0.3705
   8123SM  C18S10776   2.921   7.008   6.118 -0.1084  0.4211  0.6501
   8123SM  H18S10777   2.812   7.008   6.139 -0.0981  2.6336  0.9261
   8123SM  H18T10778   2.958   7.112   6.128  2.1918 -0.1473 -1.1019
   8123SM  H18U10779   2.974   6.951   6.197  0.5695  2.3634  1.6400
   8123SM   C1F10780   2.947   6.540   4.365 -0.3689  0.5345  0.2946
   8123SM    OF10781   3.055   6.488   4.368 -0.1530  0.5089 -0.3624
   8123SM   C2F10782   2.830   6.461   4.408  0.3309  0.5411  0.1766
   8123SM   H2F10783   2.820   6.376   4.337  2.2552  2.2284 -2.3063
   8123SM   H2G10784   2.734   6.515   4.394 -0.9041 -1.7301 -0.5688
   8123SM   C3F10785   2.830   6.411   4.552 -1.3569  0.2094 -0.1695
   8123SM   H3F10786   2.917   6.345   4.576 -2.3002 -0.8533  0.3921
   8123SM   H3G10787   2.741   6.346   4.551  0.2324 -2.0843 -0.5672
   8123SM   C4F10788   2.802   6.506   4.672 -0.0163 -0.2173  0.3622
   8123SM   H4F10789   2.781   6.440   4.759 -1.5511  1.8331  1.6344
   8123SM   H4G10790   2.705   6.558   4.655  0.3183  0.6361  1.0027
   8123SM   C5F10791   2.908   6.607   4.701  0.7050  0.3425  0.2447
   8123SM   H5F10792   2.880   6.695   4.639 -0.2117 -1.3116 -1.8370
   8123SM   H5G10793   3.006   6.571   4.663  1.1590  0.4810  1.2737
   8123SM   C6F10794   2.919   6.646   4.841 -0.1864  0.5276 -0.7997
   8123SM   H6F10795   2.826   6.703   4.863 -0.5550  0.8079 -2.8769
   8123SM   H6G10796   3.000   6.722   4.845 -1.1197  1.5052  0.6379
   8123SM   C7F10797   2.943   6.536   4.954 -0.3243  0.5748 -0.1499
   8123SM   H7F10798   3.023   6.463   4.927 -0.3886  0.0811  0.9270
   8123SM   H7G10799   2.853   6.474   4.975  1.2046 -1.5342  0.5019
   8123SM   C8F10800   2.980   6.607   5.086 -0.0337  0.3221  0.3704
   8123SM   H8F10801   2.919   6.700   5.092 -0.8137 -0.1457  0.0167
   8123SM   H8G10802   3.084   6.644   5.078 -0.2230  0.6211 -0.9779
   8123SM   C9F10803   2.968   6.509   5.205  0.5749 -0.5721  0.3510
   8123SM   H9F10804   3.015   6.412   5.178 -2.1198 -1.1188 -3.2965
   8123SM   H9G10805   2.863   6.483   5.232  0.2283  1.4127  1.1107
   8123SM  C10F10806   3.019   6.585   5.327 -0.5257  0.0331 -0.5422
   8123SM  H10F10807   2.969   6.684   5.329 -2.1030 -0.7144 -1.1293
   8123SM  H10G10808   3.130   6.593   5.325 -0.4526 -0.4259  0.6518
   8123SM  C11F10809   2.990   6.516   5.461  0.2673 -0.1680  0.1526
   8123SM  H11F10810   3.023   6.410   5.467 -1.3168 -0.8252 -1.7769
   8123SM  H11G10811   2.881   6.504   5.475  0.3932  0.1832  1.6163
   8123SM  C12F10812   3.055   6.582   5.586 -0.3228 -0.0920 -0.3512
   8123SM  H12F10813   3.012   6.683   5.606  0.1315 -0.2675  1.6897
   8123SM  H12G10814   3.165   6.595   5.591 -0.2191 -0.8106 -0.6604
   8123SM  C13F10815   3.026   6.500   5.719  0.5892 -1.0328  0.6033
   8123SM  H13F10816   3.074   6.401   5.708  0.1403 -1.1443 -0.4192
   8123SM  H13G10817   2.917   6.481   5.716  0.6119 -1.0683 -0.1906
   8123SM  C14F10818   3.091   6.567   5.845 -0.7716  0.0743  0.0672
   8123SM  H14F10819   3.051   6.670   5.840  0.1854  0.3933 -3.0364
   8123SM  H14G10820   3.199   6.578   5.821 -1.6332 -0.1848 -4.8394
   8123SM  C15F10821   3.060   6.500   5.980 -0.5435  0.7951  0.1620
   8123SM  H15F10822   3.125   6.411   5.992 -0.3673  0.7831 -0.8126
   8123SM  H15G10823   2.960   6.453   5.974 -0.0128 -0.1965 -1.8689
   8123SM  C16F10824   3.066   6.595   6.100  0.1243 -0.1194  0.0086
   8123SM  H16F10825   2.990   6.674   6.082  0.1600 -0.2928 -0.9598
   8123SM  H16G10826   3.165   6.645   6.107  0.3976 -0.5955 -0.3697
   8123SM  C17F10827   3.016   6.534   6.235 -0.6480  0.9180  0.3025
   8123SM  H17F10828   2.912   6.495   6.227  0.0792 -1.3466  1.0196
   8123SM  H17G10829   3.010   6.614   6.312 -1.2815  0.5718  0.6255
   8123SM  C18F10830   3.092   6.401   6.281 -0.1816 -0.3434 -0.5369
   8123SM  H18F10831   3.201   6.426   6.285 -0.5001  1.0291  0.0601
   8123SM  H18G10832   3.073   6.330   6.198 -1.6112 -1.7624  0.9249
   8123SM  C19F10833   3.039   6.347   6.414  0.5174  0.2019  0.4330
   8123SM  H19F10834   2.929   6.331   6.414  0.5872 -0.3939  1.2177
   8123SM  H19G10835   3.057   6.406   6.506 -1.4136  0.6982  0.5398
   8123SM  C20F10836   3.090   6.203   6.443  0.4507  0.1226  0.5239
   8123SM  H20F10837   3.065   6.182   6.549 -0.7817  1.4711  0.5307
   8123SM  H20G10838   3.200   6.199   6.426  0.2844 -0.1683 -0.5537
   8123SM  C21F10839   3.038   6.091   6.353 -0.3864 -0.4224  0.3002
   8123SM  H21F10840   3.078   6.101   6.250  1.1364  0.7210  0.9488
   8123SM  H21G10841   2.927   6.095   6.350 -0.5008 -0.9631  2.2366
   8123SM  C22F10842   3.066   5.944   6.411  0.1004 -0.6727 -0.3605
   8123SM  H22F10843   3.014   5.941   6.509  0.0975  2.3458 -0.1856
   8123SM  H22G10844   3.176   5.940   6.425  0.1971 -1.2375 -1.2266
   8123SM  C23F10845   3.009   5.846   6.314 -0.5639  0.0790 -0.2900
   8123SM  H23F10846   3.073   5.828   6.225  1.0060 -0.5032  0.9095
   8123SM  H23G10847   2.907   5.869   6.276 -1.5111  0.2360  2.1121
   8123SM  H23H10848   3.019   5.751   6.372  1.7791  2.0285  2.8236
   8223SM     N10849   2.826   0.289   3.703 -0.0277 -0.5041  0.3821
   8223SM   C1510850   2.714   0.227   3.624  0.7521 -0.1981 -0.0075
   8223SM  H15A10851   2.618   0.268   3.651  0.2862 -1.6540  0.6018
   8223SM  H15B10852   2.713   0.121   3.644  0.8995 -0.2085 -0.0496
   8223SM  H15C10853   2.725   0.235   3.517 -1.3707 -2.1221 -0.4335
   8223SM   C1410854   2.962   0.247   3.647  0.0232 -0.0865  0.4452
   8223SM  H14A10855   3.034   0.272   3.722  1.0455 -0.3637 -0.4178
   8223SM  H14B10856   2.974   0.299   3.552  0.9019  0.4039  0.8112
   8223SM  H14C10857   2.964   0.139   3.641  1.0987 -0.0450 -0.3270
   8223SM   C1310858   2.818   0.438   3.689  0.0247 -0.0342  0.4511
   8223SM  H13A10859   2.748   0.486   3.756 -0.0244  1.0416 -0.3492
   8223SM  H13B10860   2.791   0.466   3.588 -0.8143  2.6375  1.3290
   8223SM  H13C10861   2.918   0.473   3.711  1.3062 -1.9155 -1.9471
   8223SM   C1210862   2.816   0.254   3.846 -0.2709 -0.2938 -0.2190
   8223SM  H12A10863   2.894   0.311   3.895 -0.7820  0.0461  0.2111
   8223SM  H12B10864   2.840   0.151   3.866  0.1690 -0.0114  0.7498
   8223SM   C1110865   2.690   0.286   3.925 -0.7572  0.1319 -0.3344
   8223SM  H11A10866   2.673   0.394   3.905  2.0093  0.7911  0.4317
   8223SM  H11B10867   2.716   0.265   4.031  0.1326  1.3710 -0.2854
   8223SM     P10868   2.565   0.051   3.927 -0.4378  0.0615 -0.1075
   8223SM   O1310869   2.465  -0.016   3.838 -0.0527 -0.3606 -0.4129
   8223SM   O1410870   2.694  -0.009   3.921 -0.3313  0.4124  0.3390
   8223SM   O1110871   2.516   0.054   4.074 -0.7323  1.0875 -0.5353
   8223SM   O1210872   2.574   0.206   3.889  0.0627 -0.1985 -0.1306
   8223SM   C1S10873   2.424   0.152   4.103 -0.5762  0.4178 -0.0074
   8223SM   H1S10874   2.328   0.134   4.050  0.1641 -0.7599 -0.9954
   8223SM   H1T10875   2.464   0.252   4.079 -0.7482  0.5727  0.3470
   8223SM    NF10876   2.280   0.239   4.289 -0.2656  0.2760  0.4155
   8223SM   HNF10877   2.305   0.330   4.320  2.4453 -0.5596  1.0130
   8223SM   C2S10878   2.394   0.149   4.259  0.0167  0.2026 -0.0744
   8223SM   H2S10879   2.367   0.044   4.284  1.9749 -0.4813 -0.6799
   8223SM   C3S10880   2.520   0.193   4.339 -0.9103  0.0528  0.0184
   8223SM   H3S10881   2.533   0.303   4.331  0.1863 -0.0479  0.2936
   8223SM    O310882   2.645   0.137   4.291  0.0413  0.1680  0.5244
   8223SM   HO310883   2.623   0.096   4.207  0.5359 -1.2732  1.0677
   8223SM   C4S10884   2.512   0.170   4.487 -0.0026  0.8473  0.2091
   8223SM   H4S10885   2.520   0.065   4.519 -1.2496  0.8903  0.7116
   8223SM   C5S10886   2.483   0.253   4.580 -0.4739  0.2115  0.2400
   8223SM   H5S10887   2.445   0.354   4.556 -0.0723 -0.2872 -2.8638
   8223SM   C6S10888   2.447   0.210   4.718  1.1465  0.0512 -0.1255
   8223SM   H6S10889   2.410   0.106   4.715 -0.5961  0.6359 -0.0135
   8223SM   H6T10890   2.362   0.268   4.759  0.0324 -0.7434 -1.2329
   8223SM   C7S10891   2.570   0.216   4.800 -0.6719 -0.2140  0.8224
   8223SM   H7S10892   2.619   0.313   4.820 -0.4487 -0.5396  1.9211
   8223SM   H7T10893   2.644   0.139   4.768 -1.7355 -2.2361  2.8710
   8223SM   C8S10894   2.541   0.168   4.943  0.4561  0.3891  0.1729
   8223SM   H8S10895   2.628   0.108   4.977  1.2111  1.4419  0.1686
   8223SM   H8T10896   2.459   0.093   4.944 -0.7979  1.7204  0.0667
   8223SM   C9S10897   2.523   0.266   5.053 -0.4408 -0.4410 -0.7236
   8223SM   H9S10898   2.443   0.327   5.005  1.5716  0.2486 -3.4656
   8223SM   H9T10899   2.607   0.337   5.069  0.7605 -1.9337 -0.1476
   8223SM  C10S10900   2.483   0.225   5.197 -0.0943 -0.6110 -0.6933
   8223SM  H10S10901   2.381   0.183   5.188 -0.8523  0.8432  0.6382
   8223SM  H10T10902   2.490   0.322   5.251 -1.8580  0.7662 -2.7624
   8223SM  C11S10903   2.589   0.131   5.256 -0.4803 -0.1636 -0.0783
   8223SM  H11S10904   2.691   0.173   5.238 -0.1731 -1.7901 -2.7597
   8223SM  H11T10905   2.582   0.032   5.205  1.1090 -0.5027  0.3104
   8223SM  C12S10906   2.569   0.094   5.399 -0.5158  0.2969  0.0982
   8223SM  H12S10907   2.641   0.014   5.427  0.5154  1.6326  1.5217
   8223SM  H12T10908   2.465   0.060   5.416 -0.3938  0.7798  2.1471
   8223SM  C13S10909   2.588   0.210   5.503  0.4176 -0.1001  0.4531
   8223SM  H13S10910   2.520   0.290   5.468 -0.8012 -0.8012  1.1355
   8223SM  H13T10911   2.696   0.238   5.497  0.1282  0.7838 -3.4944
   8223SM  C14S10912   2.541   0.168   5.644  0.6616  0.1527  0.6923
   8223SM  H14S10913   2.597   0.076   5.671 -0.9026 -1.0022  0.1097
   8223SM  H14T10914   2.435   0.137   5.639  0.5302  0.4303  1.5848
   8223SM  C15S10915   2.577   0.277   5.745  0.0076 -0.2073  0.2131
   8223SM  H15S10916   2.511   0.365   5.725  0.1309  0.0197  0.7576
   8223SM  H15T10917   2.684   0.306   5.745  0.1589 -0.7509  0.6848
   8223SM  C16S10918   2.541   0.230   5.889  0.2734 -0.9569  1.1710
   8223SM  H16S10919   2.628   0.182   5.939  2.1033 -0.1810 -1.0961
   8223SM  H16T10920   2.446   0.173   5.901 -1.0295  0.7283 -0.6590
   8223SM  C17S10921   2.514   0.356   5.980 -0.6095  0.5186 -0.7814
   8223SM  H17S10922   2.430   0.415   5.939 -1.2538  1.0896  1.2465
   8223SM  H17T10923   2.606   0.416   5.965  0.1556 -0.7953 -1.6460
   8223SM  C18S10924   2.491   0.312   6.118  0.3834  0.3858 -0.5726
   8223SM  H18S10925   2.580   0.269   6.170  0.2580 -1.4231 -1.7797
   8223SM  H18T10926   2.409   0.238   6.129  1.3300 -0.6284 -0.1304
   8223SM  H18U10927   2.455   0.404   6.168 -0.0997  2.1419 -3.8462
   8223SM   C1F10928   2.156   0.195   4.282 -0.6809  0.1075 -0.0558
   8223SM    OF10929   2.126   0.091   4.218  0.4550 -0.7087 -0.3074
   8223SM   C2F10930   2.047   0.270   4.354  0.1520  0.2169 -0.0287
   8223SM   H2F10931   2.019   0.359   4.293  3.3634  0.2467 -1.7041
   8223SM   H2G10932   2.102   0.317   4.438  2.2168 -0.5609 -0.8599
   8223SM   C3F10933   1.931   0.183   4.408  0.2749  0.3639  0.1810
   8223SM   H3F10934   1.890   0.125   4.323  3.1472 -1.4300 -0.1076
   8223SM   H3G10935   1.855   0.258   4.439  0.4709 -0.4748  2.8975
   8223SM   C4F10936   1.963   0.091   4.524 -0.2115 -0.2374 -0.1679
   8223SM   H4F10937   2.047   0.030   4.484 -0.6126 -0.7534 -0.2412
   8223SM   H4G10938   1.872   0.034   4.552 -0.2580 -0.3217 -0.4857
   8223SM   C5F10939   2.008   0.164   4.650  0.0127 -0.4382 -0.0237
   8223SM   H5F10940   1.929   0.236   4.681 -1.1507 -1.9689  0.7124
   8223SM   H5G10941   2.097   0.227   4.629  0.6072 -2.0542 -3.0003
   8223SM   C6F10942   2.056   0.055   4.755 -0.0753  0.2807  0.2983
   8223SM   H6F10943   2.153   0.020   4.713  0.5763  1.9465  0.3602
   8223SM   H6G10944   1.975  -0.022   4.753 -0.2590  0.4875 -0.5018
   8223SM   C7F10945   2.076   0.128   4.883  0.4673 -0.4315 -0.7781
   8223SM   H7F10946   1.979   0.168   4.920  0.6301 -1.6115  1.0596
   8223SM   H7G10947   2.153   0.207   4.871  1.4031 -0.8332  1.9501
   8223SM   C8F10948   2.145   0.026   4.979  0.3909 -0.4128 -0.4632
   8223SM   H8F10949   2.254   0.045   4.967  0.1452 -0.0853 -2.5621
   8223SM   H8G10950   2.123  -0.073   4.935 -0.6880  0.2830 -1.5724
   8223SM   C9F10951   2.089   0.033   5.119 -0.0943 -0.2900  0.5362
   8223SM   H9F10952   1.979   0.027   5.126 -0.2565  2.2149  0.9030
   8223SM   H9G10953   2.118   0.132   5.161 -3.6323  1.7760 -1.4524
   8223SM  C10F10954   2.140  -0.086   5.202 -0.2432  0.0727 -0.4981
   8223SM  H10F10955   2.241  -0.108   5.162 -0.5075 -1.6329 -0.2820
   8223SM  H10G10956   2.090  -0.184   5.190 -0.4540 -0.0220  1.0125
   8223SM  C11F10957   2.159  -0.061   5.350 -0.0727  0.1278 -0.4440
   8223SM  H11F10958   2.225   0.025   5.377  0.4234 -0.2521 -0.4249
   8223SM  H11G10959   2.207  -0.148   5.400  0.5527  0.2685 -0.7824
   8223SM  C12F10960   2.022  -0.066   5.418 -0.8448  0.5807  0.2283
   8223SM  H12F10961   1.993  -0.172   5.399 -0.8546  0.4213  1.1058
   8223SM  H12G10962   1.956   0.005   5.364 -2.7923 -0.9639  0.4553
   8223SM  C13F10963   2.037  -0.037   5.564 -0.0066 -0.4118 -0.0847
   8223SM  H13F10964   2.101   0.051   5.587 -0.4826 -0.8079  3.1465
   8223SM  H13G10965   2.097  -0.120   5.608 -0.5745  0.5388  2.6737
   8223SM  C14F10966   1.906  -0.031   5.645  0.3018  0.4738 -0.5726
   8223SM  H14F10967   1.873  -0.137   5.645  1.6434  0.0314  0.4061
   8223SM  H14G10968   1.835   0.027   5.583 -1.6189  0.3657  1.4220
   8223SM  C15F10969   1.922   0.023   5.791 -0.0873  0.4188  0.1338
   8223SM  H15F10970   1.823   0.009   5.838 -1.3886 -0.5975 -2.6760
   8223SM  H15G10971   1.937   0.133   5.802  0.9025  0.4130 -0.9112
   8223SM  C16F10972   2.028  -0.055   5.876  0.3666  0.0103 -0.8210
   8223SM  H16F10973   2.130  -0.056   5.831  0.8431 -1.5807  0.2287
   8223SM  H16G10974   2.012  -0.165   5.879  4.0638 -0.9493 -4.9549
   8223SM  C17F10975   2.035   0.008   6.014 -0.1255  0.1428 -0.0706
   8223SM  H17F10976   1.934  -0.029   6.044 -0.0762 -0.7564 -0.9605
   8223SM  H17G10977   2.044   0.118   6.000  0.4784 -0.0578 -1.4164
   8223SM  C18F10978   2.148  -0.034   6.105 -1.0399  0.2838  0.4382
   8223SM  H18F10979   2.235   0.025   6.071 -1.6588 -0.1842 -2.2349
   8223SM  H18G10980   2.169  -0.140   6.079 -0.2140  0.8831 -1.4743
   8223SM  C19F10981   2.128  -0.016   6.257 -0.7684  0.4071 -0.4778
   8223SM  H19F10982   2.214  -0.056   6.315 -2.0668  0.7901  1.8089
   8223SM  H19G10983   2.048  -0.089   6.283 -0.4851 -0.5985 -2.2845
   8223SM  C20F10984   2.098   0.117   6.300  0.4583 -0.4927 -0.7609
   8223SM  H20F10985   2.003   0.148   6.251 -0.1226 -0.3406  0.4249
   8223SM  H20G10986   2.183   0.187   6.286 -0.4787  1.3740  2.0264
   8223SM  C21F10987   2.056   0.134   6.452 -0.2423 -0.5337  0.2523
   8223SM  H21F10988   2.050   0.239   6.489  0.0432 -0.5006  0.2065
   8223SM  H21G10989   2.141   0.089   6.507  0.7158 -0.4995 -1.1455
   8223SM  C22F10990   1.938   0.048   6.490  0.0260 -0.2943  0.1114
   8223SM  H22F10991   1.936   0.044   6.601  2.8743  2.7133  0.4176
   8223SM  H22G10992   1.951  -0.056   6.453 -2.3859 -0.5963 -0.0495
   8223SM  C23F10993   1.804   0.113   6.456  0.2207  0.1282 -0.4955
   8223SM  H23F10994   1.804   0.223   6.472  1.3834  0.1456 -0.4829
   8223SM  H23G10995   1.718   0.060   6.502 -0.4973  1.0443 -0.7450
   8223SM  H23H10996   1.777   0.101   6.349  0.4842 -1.5190 -0.3949
   8323SM     N10997   4.219   0.762   3.746 -0.0699 -0.1471 -0.1942
   8323SM   C1510998   4.087   0.724   3.690  0.0617  0.0723  0.5177
   8323SM  H15A10999   4.076   0.617   3.701 -0.1153  0.0872  0.4777
   8323SM  H15B11000   4.082   0.741   3.583 -1.3343  0.2448  0.6009
   8323SM  H15C11001   4.006   0.783   3.728 -1.4460 -1.4209 -0.2449
   8323SM   C1411002   4.332   0.691   3.680  0.1658 -0.2080 -0.1716
   8323SM  H14A11003   4.351   0.733   3.583  3.8336 -0.2521  0.3889
   8323SM  H14B11004   4.320   0.584   3.671  1.3534 -0.3316 -0.5052
   8323SM  H14C11005   4.418   0.727   3.735 -1.1966  1.1205  1.2058
   8323SM   C1311006   4.223   0.910   3.731 -0.4258 -0.3945  0.5154
   8323SM  H13A11007   4.147   0.961   3.789 -0.3585 -0.4287  0.6339
   8323SM  H13B11008   4.199   0.937   3.629  1.3957  2.4270  0.7214
   8323SM  H13C11009   4.320   0.948   3.755 -0.2044 -2.2685  3.0548
   8323SM   C1211010   4.220   0.722   3.892 -0.4914 -0.5590  0.2111
   8323SM  H12A11011   4.311   0.765   3.931 -0.2955 -0.4777 -0.3190
   8323SM  H12B11012   4.235   0.615   3.893 -3.3902 -1.0919  2.5715
   8323SM   C1111013   4.112   0.773   3.987 -0.3436  0.3822 -0.0545
   8323SM  H11A11014   4.121   0.884   3.995  0.7109  0.1684  3.1714
   8323SM  H11B11015   4.129   0.744   4.093 -2.0127 -0.5047 -0.0110
   8323SM     P11016   3.927   0.590   3.991  0.4833  0.2188  0.0953
   8323SM   O1311017   3.820   0.565   3.893  0.3283  0.3834  0.2959
   8323SM   O1411018   4.037   0.490   3.995 -0.7554  0.1372  0.0089
   8323SM   O1111019   3.865   0.612   4.138 -0.0657  0.0782  0.0379
   8323SM   O1211020   3.981   0.733   3.950  0.5533  0.6390 -0.4226
   8323SM   C1S11021   3.735   0.673   4.155 -0.3183  0.8657 -0.0301
   8323SM   H1S11022   3.660   0.599   4.120 -0.9560  0.3101  2.3600
   8323SM   H1T11023   3.715   0.771   4.105  1.0348  1.2142  0.0563
   8323SM    NF11024   3.561   0.723   4.344 -0.5812  0.1422 -0.1931
   8323SM   HNF11025   3.533   0.817   4.362 -0.8594  0.0348 -0.0577
   8323SM   C2S11026   3.701   0.707   4.316 -0.0607  0.4034  1.0557
   8323SM   H2S11027   3.733   0.608   4.356 -1.0563 -1.3765 -2.1801
   8323SM   C3S11028   3.797   0.821   4.350  0.0577  0.2065 -0.3735
   8323SM   H3S11029   3.751   0.911   4.303 -0.4457 -0.3197 -0.9071
   8323SM    O311030   3.928   0.808   4.301 -1.1113 -0.2646  0.2476
   8323SM   HO311031   3.926   0.743   4.231  1.3732  0.6760 -0.8079
   8323SM   C4S11032   3.788   0.840   4.497 -0.0720 -0.1342  0.3493
   8323SM   H4S11033   3.698   0.897   4.527 -1.0112 -0.3118 -1.9115
   8323SM   C5S11034   3.861   0.783   4.595 -0.8578 -0.7628  0.1148
   8323SM   H5S11035   3.929   0.703   4.563  0.8623  1.1401 -1.2520
   8323SM   C6S11036   3.840   0.799   4.745  0.4456 -0.1023 -0.4275
   8323SM   H6S11037   3.736   0.835   4.762 -0.1914 -2.0968  0.2102
   8323SM   H6T11038   3.915   0.859   4.800 -2.2966  1.8242  1.4743
   8323SM   C7S11039   3.835   0.663   4.810 -0.8934 -0.1166 -0.2366
   8323SM   H7S11040   3.936   0.619   4.803 -1.7098 -1.8734 -1.9502
   8323SM   H7T11041   3.773   0.593   4.750 -0.6856  0.2798 -0.9337
   8323SM   C8S11042   3.789   0.653   4.954  0.2720 -0.7360  0.0134
   8323SM   H8S11043   3.801   0.546   4.981 -2.4672 -1.0215  0.3066
   8323SM   H8T11044   3.684   0.687   4.946  0.8246  0.8895 -1.0640
   8323SM   C9S11045   3.863   0.754   5.044 -0.2894  0.4415  0.2997
   8323SM   H9S11046   3.852   0.857   5.002 -0.1008 -0.0510 -0.9808
   8323SM   H9T11047   3.973   0.738   5.038 -0.4658 -0.7063 -0.0589
   8323SM  C10S11048   3.804   0.757   5.184  0.5062 -0.5846 -0.4389
   8323SM  H10S11049   3.802   0.657   5.232 -4.0775  0.9244  3.2086
   8323SM  H10T11050   3.696   0.781   5.186  0.4733 -0.6993 -0.8377
   8323SM  C11S11051   3.867   0.864   5.268 -0.0237 -0.4685  0.4590
   8323SM  H11S11052   3.882   0.962   5.218 -0.7794 -1.1065 -1.1070
   8323SM  H11T11053   3.973   0.834   5.283  0.6434  0.9403 -1.1603
   8323SM  C12S11054   3.806   0.884   5.404  0.1241 -0.2425 -0.6424
   8323SM  H12S11055   3.696   0.882   5.393  0.0856 -0.0390 -0.2825
   8323SM  H12T11056   3.825   0.989   5.435 -0.0995  0.0453 -1.4613
   8323SM  C13S11057   3.850   0.787   5.513  0.3400 -0.6204 -0.0163
   8323SM  H13S11058   3.957   0.812   5.533  0.3968  0.3864 -1.4274
   8323SM  H13T11059   3.847   0.684   5.470  0.2021 -0.7897  0.3896
   8323SM  C14S11060   3.775   0.800   5.642 -0.1557  0.3877  0.0648
   8323SM  H14S11061   3.671   0.766   5.627 -0.2385  1.9289 -4.1921
   8323SM  H14T11062   3.766   0.910   5.658 -2.7875  0.2651 -0.1989
   8323SM  C15S11063   3.835   0.729   5.763  0.5025  0.4248 -0.1016
   8323SM  H15S11064   3.945   0.736   5.777  0.3242 -0.0136  1.8397
   8323SM  H15T11065   3.812   0.621   5.754  1.2972  0.1317  1.0643
   8323SM  C16S11066   3.778   0.784   5.891  0.4527 -0.1034  0.3588
   8323SM  H16S11067   3.786   0.686   5.943  0.2944 -1.4982 -2.0786
   8323SM  H16T11068   3.668   0.798   5.880  0.3854  0.0534  1.1800
   8323SM  C17S11069   3.853   0.902   5.956 -0.1970 -0.7234 -0.0622
   8323SM  H17S11070   3.816   0.992   5.901  1.3050 -2.2982 -4.0586
   8323SM  H17T11071   3.963   0.899   5.947 -0.1475 -1.9687  0.7085
   8323SM  C18S11072   3.813   0.913   6.098  0.4640  0.5357 -0.4303
   8323SM  H18S11073   3.703   0.912   6.116  0.6548  1.4631  0.9481
   8323SM  H18T11074   3.850   1.005   6.148 -1.9669  0.2156  2.2665
   8323SM  H18U11075   3.867   0.841   6.164  0.5628  1.1385  0.1556
   8323SM   C1F11076   3.486   0.617   4.355 -0.4190 -0.2616  0.4186
   8323SM    OF11077   3.535   0.505   4.352 -0.5511 -0.1585  0.2812
   8323SM   C2F11078   3.338   0.643   4.381  0.0254 -0.3623 -0.3553
   8323SM   H2F11079   3.281   0.592   4.300 -0.8117 -0.0584  0.0358
   8323SM   H2G11080   3.315   0.752   4.379  2.0433  0.1170 -1.5730
   8323SM   C3F11081   3.292   0.568   4.508 -0.7186 -0.5365  0.3197
   8323SM   H3F11082   3.325   0.463   4.492  2.4249  0.6023 -1.5919
   8323SM   H3G11083   3.183   0.580   4.529 -0.5966 -0.4332  0.9162
   8323SM   C4F11084   3.365   0.627   4.633 -0.0682  0.0705 -0.1749
   8323SM   H4F11085   3.349   0.736   4.629  0.7210  0.1697 -1.0319
   8323SM   H4G11086   3.472   0.602   4.613  0.3635  1.7244 -0.0670
   8323SM   C5F11087   3.320   0.554   4.762 -0.1540 -0.2739  0.1825
   8323SM   H5F11088   3.338   0.446   4.745  0.4306 -0.1065 -0.2931
   8323SM   H5G11089   3.214   0.576   4.787  0.2965  2.1042  0.2299
   8323SM   C6F11090   3.391   0.605   4.884  0.0542  0.1642 -0.0019
   8323SM   H6F11091   3.383   0.716   4.892  1.7160  0.3427 -0.4179
   8323SM   H6G11092   3.498   0.578   4.873 -0.4087 -1.6010 -0.4215
   8323SM   C7F11093   3.328   0.544   5.007  0.5695  0.8127  0.0964
   8323SM   H7F11094   3.335   0.434   5.018 -0.9682  0.7680  1.0352
   8323SM   H7G11095   3.221   0.576   5.009  0.9061  1.9199  0.9367
   8323SM   C8F11096   3.381   0.608   5.134 -0.4838 -0.2266 -0.1815
   8323SM   H8F11097   3.383   0.718   5.120  1.6439 -0.3796 -1.5167
   8323SM   H8G11098   3.486   0.571   5.143  0.1095  1.5552  0.7177
   8323SM   C9F11099   3.308   0.557   5.261 -0.5713  0.0867  0.3783
   8323SM   H9F11100   3.324   0.449   5.285 -0.8630 -0.3497 -1.2568
   8323SM   H9G11101   3.199   0.573   5.257 -0.3174  2.8665  1.9515
   8323SM  C10F11102   3.362   0.640   5.383 -0.1523  0.4446  0.3770
   8323SM  H10F11103   3.343   0.740   5.340 -5.3033 -0.9389 -1.3228
   8323SM  H10G11104   3.466   0.606   5.402 -0.6160 -0.9169  0.5895
   8323SM  C11F11105   3.280   0.611   5.508 -0.2485  0.2523 -0.2338
   8323SM  H11F11106   3.293   0.505   5.541 -1.2682  0.1612 -0.0972
   8323SM  H11G11107   3.172   0.633   5.493 -0.6029  0.6932  2.4907
   8323SM  C12F11108   3.326   0.701   5.626 -0.1255  0.2735  0.4559
   8323SM  H12F11109   3.277   0.797   5.597  0.3926  0.2272 -0.6200
   8323SM  H12G11110   3.437   0.710   5.634  0.2292 -2.7436  0.0453
   8323SM  C13F11111   3.276   0.669   5.765  0.2476  0.1229  0.3784
   8323SM  H13F11112   3.165   0.673   5.775  0.0585 -0.7835 -0.9943
   8323SM  H13G11113   3.317   0.737   5.843 -0.3276  0.7680  0.1379
   8323SM  C14F11114   3.313   0.526   5.807  0.2513 -0.9105 -0.0331
   8323SM  H14F11115   3.422   0.518   5.786  0.5292  0.8621  0.5602
   8323SM  H14G11116   3.267   0.456   5.734 -2.0179  0.5631 -0.0743
   8323SM  C15F11117   3.279   0.495   5.952  0.2422 -0.2012 -0.0450
   8323SM  H15F11118   3.258   0.385   5.956  0.0723 -0.1915 -0.5062
   8323SM  H15G11119   3.186   0.537   5.995 -1.2743 -2.8288 -0.4940
   8323SM  C16F11120   3.385   0.541   6.051  0.7997 -0.2305 -0.6448
   8323SM  H16F11121   3.396   0.651   6.047  1.8534 -0.2923  0.1987
   8323SM  H16G11122   3.481   0.486   6.035  0.6230 -0.7556  0.0361
   8323SM  C17F11123   3.327   0.508   6.192 -1.3281 -0.1580 -0.2503
   8323SM  H17F11124   3.341   0.402   6.223 -3.3237 -0.5973 -0.7267
   8323SM  H17G11125   3.222   0.537   6.214 -1.7079 -1.8416  0.2759
   8323SM  C18F11126   3.422   0.578   6.298  0.0481 -0.2689  0.2083
   8323SM  H18F11127   3.525   0.542   6.276  0.2032  0.9812 -1.2293
   8323SM  H18G11128   3.382   0.521   6.385  2.3153 -1.2680  0.6825
   8323SM  C19F11129   3.409   0.724   6.310  0.3363 -0.3328  0.3653
   8323SM  H19F11130   3.303   0.757   6.305  0.1354 -1.1842 -2.4260
   8323SM  H19G11131   3.472   0.769   6.231  2.0993 -0.0803  1.8386
   8323SM  C20F11132   3.480   0.773   6.437  0.1937  0.0338 -0.0507
   8323SM  H20F11133   3.590   0.754   6.437  0.0355 -1.2040  2.2836
   8323SM  H20G11134   3.438   0.723   6.527 -1.7830 -0.0493 -0.9642
   8323SM  C21F11135   3.458   0.924   6.464  0.0395  0.1847  0.0968
   8323SM  H21F11136   3.486   0.942   6.569 -2.9179 -0.7059  1.1442
   8323SM  H21G11137   3.351   0.952   6.455  0.0480  0.2030  0.0524
   8323SM  C22F11138   3.550   1.006   6.374  0.0883 -0.0940  0.4911
   8323SM  H22F11139   3.523   1.113   6.382  0.2304  0.0464 -0.7291
   8323SM  H22G11140   3.537   0.978   6.268 -0.0101  1.5730  0.0385
   8323SM  C23F11141   3.696   0.992   6.413 -0.2536  0.0127  0.6848
   8323SM  H23F11142   3.737   0.899   6.367 -1.8280 -0.7467  0.7695
   8323SM  H23G11143   3.715   0.983   6.522 -0.1962 -0.8332  0.6142
   8323SM  H23H11144   3.754   1.077   6.370 -0.0052 -0.0912  0.8133
   8423SM     N11145   3.200   5.010   3.523 -0.0739  0.5149  0.1217
   8423SM   C1511146   3.073   4.934   3.518 -0.2214 -0.2534  0.3591
   8423SM  H15A11147   3.085   4.840   3.465 -0.8468  1.6639 -3.4794
   8423SM  H15B11148   3.003   4.994   3.463 -0.0334 -0.1920  0.1888
   8423SM  H15C11149   3.032   4.922   3.618  1.7837  1.1501  1.4109
   8423SM   C1411150   3.303   4.910   3.574  0.2327  0.3076 -0.1490
   8423SM  H14A11151   3.282   4.886   3.677  0.6005 -1.7449 -0.5148
   8423SM  H14B11152   3.402   4.954   3.575  0.4123 -0.0750 -0.6064
   8423SM  H14C11153   3.290   4.819   3.517 -1.1707  0.1496  0.3790
   8423SM   C1311154   3.225   5.045   3.380 -0.9111  0.3741  0.4011
   8423SM  H13A11155   3.318   5.097   3.367  1.1863 -3.4976 -1.8996
   8423SM  H13B11156   3.157   5.119   3.342  1.1663  2.0034 -0.3296
   8423SM  H13C11157   3.225   4.956   3.319 -0.4173  1.4455 -1.2302
   8423SM   C1211158   3.189   5.138   3.601  0.0985  0.6711 -0.2566
   8423SM  H12A11159   3.105   5.194   3.560  0.5598  0.5097 -1.4618
   8423SM  H12B11160   3.279   5.196   3.585  1.6485 -1.6627 -0.3766
   8423SM   C1111161   3.162   5.135   3.752  0.0269 -0.0316 -0.0878
   8423SM  H11A11162   3.192   5.230   3.802 -0.3706 -0.6290  1.3219
   8423SM  H11B11163   3.223   5.054   3.797  0.9129  0.8321  0.3144
   8423SM     P11164   2.915   5.210   3.786 -0.1784 -0.4342 -0.2395
   8423SM   O1311165   2.928   5.286   3.660 -0.2112 -0.1360 -0.8736
   8423SM   O1411166   2.778   5.152   3.798  0.3672 -0.1351  0.3304
   8423SM   O1111167   2.959   5.292   3.909 -0.1004 -0.1603  0.3874
   8423SM   O1211168   3.031   5.101   3.787 -0.6040 -0.0167  0.1882
   8423SM   C1S11169   2.858   5.320   4.012 -0.2392  0.1723 -0.6718
   8423SM   H1S11170   2.756   5.296   3.977  0.4884 -0.1092 -2.7378
   8423SM   H1T11171   2.860   5.427   4.044 -1.3601 -0.1809  0.6681
   8423SM    NF11172   2.766   5.251   4.246  0.0878  0.8710  0.1207
   8423SM   HNF11173   2.783   5.293   4.335 -0.4956 -0.3181  0.8128
   8423SM   C2S11174   2.877   5.250   4.156 -0.8626  0.4293  0.1172
   8423SM   H2S11175   2.895   5.141   4.138  1.9519  0.7659  0.3875
   8423SM   C3S11176   3.006   5.301   4.214 -0.1063 -0.3479  0.4113
   8423SM   H3S11177   2.987   5.410   4.229 -1.5976 -0.7287  1.5715
   8423SM    O311178   3.119   5.301   4.126 -0.1248 -0.0625  0.1024
   8423SM   HO311179   3.072   5.290   4.043  1.1960  0.2248 -0.7219
   8423SM   C4S11180   3.039   5.241   4.345 -0.0919  0.5205 -0.3322
   8423SM   H4S11181   3.062   5.133   4.346  0.6793  0.6494 -1.8972
   8423SM   C5S11182   3.061   5.309   4.465  0.1494  0.1559  0.1812
   8423SM   H5S11183   3.061   5.419   4.457 -3.1432  0.2030 -0.6350
   8423SM   C6S11184   3.087   5.259   4.602  0.4647  0.1750  0.5988
   8423SM   H6S11185   2.996   5.282   4.661 -1.2572 -0.3851 -1.6715
   8423SM   H6T11186   3.181   5.299   4.644  0.2239  0.7658  0.5835
   8423SM   C7S11187   3.114   5.106   4.616  0.2349  0.0561 -0.3033
   8423SM   H7S11188   3.218   5.072   4.596 -0.0055 -0.0850 -1.3971
   8423SM   H7T11189   3.046   5.048   4.550 -0.4114 -0.3547  0.6980
   8423SM   C8S11190   3.088   5.046   4.762 -0.1046  0.3304  0.0117
   8423SM   H8S11191   3.133   4.944   4.755 -1.0648 -0.0265 -1.3041
   8423SM   H8T11192   2.981   5.049   4.789  0.0448  1.3516  0.5520
   8423SM   C9S11193   3.160   5.121   4.868 -1.3570  0.0607 -0.4303
   8423SM   H9S11194   3.166   5.231   4.853 -1.9570 -0.0221 -1.3448
   8423SM   H9T11195   3.264   5.084   4.863 -1.3169  0.2175 -0.7639
   8423SM  C10S11196   3.092   5.097   5.005  0.2542  0.0628 -0.7421
   8423SM  H10S11197   3.121   5.006   5.063 -2.1853  0.3038  0.9842
   8423SM  H10T11198   2.982   5.097   4.989 -0.0036  0.2065  0.9314
   8423SM  C11S11199   3.130   5.205   5.104 -0.4450 -0.2744  0.5246
   8423SM  H11S11200   3.086   5.295   5.056 -0.1972 -1.2007 -1.5573
   8423SM  H11T11201   3.240   5.224   5.110 -0.4825 -0.2833  1.5095
   8423SM  C12S11202   3.081   5.177   5.244  1.0202  0.6362 -0.4302
   8423SM  H12S11203   3.110   5.070   5.258  1.4896  0.5873 -1.6838
   8423SM  H12T11204   2.970   5.180   5.244  0.9896  0.0266  0.6442
   8423SM  C13S11205   3.135   5.256   5.360  0.2437  0.1021 -0.4715
   8423SM  H13S11206   3.107   5.361   5.337 -0.8797 -0.4768 -1.8881
   8423SM  H13T11207   3.245   5.246   5.358  0.2947  0.3126  0.5595
   8423SM  C14S11208   3.075   5.200   5.493 -0.1495 -0.0817 -0.2502
   8423SM  H14S11209   3.121   5.104   5.524  1.2429  0.9518  0.9925
   8423SM  H14T11210   2.964   5.195   5.484 -0.3002  2.8142 -1.2511
   8423SM  C15S11211   3.099   5.307   5.604  0.0088 -0.5184 -0.0210
   8423SM  H15S11212   3.041   5.396   5.569  1.4643  0.4106 -0.1629
   8423SM  H15T11213   3.205   5.339   5.600  0.1920 -0.1458  4.0247
   8423SM  C16S11214   3.059   5.259   5.748 -0.1031 -0.2000 -0.1594
   8423SM  H16S11215   2.958   5.212   5.745 -1.4339  2.5108 -0.7278
   8423SM  H16T11216   3.062   5.339   5.825  2.4350 -1.4912  1.1940
   8423SM  C17S11217   3.146   5.138   5.795  0.0321  0.1764  0.2872
   8423SM  H17S11218   3.249   5.174   5.820  0.7948 -1.6664 -0.0432
   8423SM  H17T11219   3.155   5.054   5.723  2.7863 -1.0876  1.9208
   8423SM  C18S11220   3.084   5.073   5.918 -0.5678  0.1241 -0.5156
   8423SM  H18S11221   2.975   5.056   5.912 -0.6817  0.2464  0.9918
   8423SM  H18T11222   3.098   5.139   6.006 -0.6526 -1.0477  0.3968
   8423SM  H18U11223   3.131   4.975   5.940 -3.3472 -0.9924  0.9479
   8423SM   C1F11224   2.647   5.188   4.225  0.6100 -0.2499 -0.4681
   8423SM    OF11225   2.621   5.145   4.114 -0.2506  0.1812 -0.0890
   8423SM   C2F11226   2.550   5.170   4.345  0.3638  0.0474 -0.1905
   8423SM   H2F11227   2.467   5.102   4.319 -1.6069  2.0975  0.3624
   8423SM   H2G11228   2.510   5.273   4.362 -1.5261 -0.2479 -2.4035
   8423SM   C3F11229   2.624   5.116   4.470  0.4233 -0.3639  1.0625
   8423SM   H3F11230   2.710   5.180   4.502  0.9409 -0.0306 -0.8804
   8423SM   H3G11231   2.680   5.025   4.441  0.0951 -0.7437  1.6048
   8423SM   C4F11232   2.534   5.105   4.594 -0.3467  0.0160  0.2468
   8423SM   H4F11233   2.457   5.025   4.592  0.3184 -0.6265 -0.9573
   8423SM   H4G11234   2.491   5.205   4.614  0.2511 -0.1532  2.7636
   8423SM   C5F11235   2.621   5.065   4.716 -0.1365 -0.0973 -0.5715
   8423SM   H5F11236   2.702   5.136   4.743 -1.1556  0.3063  1.7051
   8423SM   H5G11237   2.665   4.967   4.687  0.2195 -0.1700  0.1980
   8423SM   C6F11238   2.549   5.052   4.847 -0.2121 -0.6320  0.2122
   8423SM   H6F11239   2.479   4.966   4.848  1.2232 -1.8844 -0.8616
   8423SM   H6G11240   2.487   5.141   4.870 -0.5844 -1.0256  0.7440
   8423SM   C7F11241   2.639   5.016   4.967 -0.5003 -0.1168  0.7337
   8423SM   H7F11242   2.713   5.098   4.969  0.3106 -0.8456  1.3182
   8423SM   H7G11243   2.689   4.918   4.949  0.4922  0.5237 -0.1261
   8423SM   C8F11244   2.583   5.010   5.108  0.3705  0.0590 -0.4750
   8423SM   H8F11245   2.535   4.912   5.124 -0.3270  0.3636 -0.6842
   8423SM   H8G11246   2.505   5.089   5.116 -0.6962 -0.9935 -0.2118
   8423SM   C9F11247   2.681   5.057   5.220 -0.5784  0.0092 -0.1328
   8423SM   H9F11248   2.700   5.164   5.195 -0.0523  0.1561  0.8415
   8423SM   H9G11249   2.780   5.007   5.228 -0.2055  0.8386  0.6590
   8423SM  C10F11250   2.603   5.041   5.352  0.8137  0.3426 -0.1276
   8423SM  H10F11251   2.535   4.954   5.361 -0.0057  1.1044  1.4057
   8423SM  H10G11252   2.514   5.107   5.344  1.1514  0.9279  0.7923
   8423SM  C11F11253   2.677   5.084   5.471  0.1757  0.0820 -0.0045
   8423SM  H11F11254   2.689   5.193   5.454  0.1114 -0.1152 -1.3815
   8423SM  H11G11255   2.783   5.051   5.472 -0.0758 -0.7439  0.4722
   8423SM  C12F11256   2.608   5.035   5.600  0.0172 -0.3593  0.2609
   8423SM  H12F11257   2.593   4.925   5.593 -1.9835 -0.0302 -1.7037
   8423SM  H12G11258   2.506   5.077   5.610 -0.2349 -1.1082  0.9369
   8423SM  C13F11259   2.700   5.075   5.720  0.2934  0.1873 -0.1220
   8423SM  H13F11260   2.708   5.186   5.715  0.6563  0.2470  1.3752
   8423SM  H13G11261   2.801   5.030   5.714 -0.3825 -1.3814 -0.1971
   8423SM  C14F11262   2.648   5.033   5.859  0.3940 -0.1005 -0.2288
   8423SM  H14F11263   2.544   5.065   5.880 -0.1308 -2.0299  0.3457
   8423SM  H14G11264   2.726   5.075   5.926 -0.3007  2.2855 -0.8277
   8423SM  C15F11265   2.647   4.879   5.879 -0.3123 -0.1149  0.2941
   8423SM  H15F11266   2.749   4.835   5.881 -0.5058 -0.6164 -0.4350
   8423SM  H15G11267   2.588   4.840   5.794 -0.2791 -0.3957  0.3981
   8423SM  C16F11268   2.584   4.850   6.009  0.9296  0.3149 -0.9492
   8423SM  H16F11269   2.583   4.739   6.021 -1.1575  0.5312  2.0300
   8423SM  H16G11270   2.478   4.883   6.000  1.2966  1.4107 -1.3323
   8423SM  C17F11271   2.638   4.918   6.138  0.5901  0.1219  0.7907
   8423SM  H17F11272   2.588   4.855   6.215 -0.1077  0.1291  0.3509
   8423SM  H17G11273   2.597   5.021   6.146  2.0782  0.7333  0.7913
   8423SM  C18F11274   2.791   4.902   6.158 -0.8195 -0.3628 -0.5738
   8423SM  H18F11275   2.856   4.943   6.079  1.0871 -1.4433  0.3696
   8423SM  H18G11276   2.814   4.794   6.158  1.5763  0.1006 -0.7369
   8423SM  C19F11277   2.837   4.961   6.294  0.4114 -0.4540  0.5275
   8423SM  H19F11278   2.770   4.920   6.372 -0.9921  1.2452  0.2859
   8423SM  H19G11279   2.830   5.072   6.288  2.0186 -0.1923  2.4584
   8423SM  C20F11280   2.982   4.935   6.317 -0.5586  0.6568 -0.1187
   8423SM  H20F11281   3.042   4.996   6.246 -0.2049  1.7433  1.0805
   8423SM  H20G11282   3.006   4.827   6.305 -1.6188  0.1314  2.0631
   8423SM  C21F11283   3.030   4.971   6.457  0.4596  0.1822  0.2560
   8423SM  H21F11284   2.970   4.934   6.544 -1.3184  2.0438 -0.1147
   8423SM  H21G11285   3.025   5.082   6.462 -0.1501  0.1292  1.1101
   8423SM  C22F11286   3.172   4.921   6.472  0.1620  0.0936  1.1067
   8423SM  H22F11287   3.233   4.963   6.389  0.0131 -3.6398 -1.1406
   8423SM  H22G11288   3.166   4.810   6.463 -0.4995  0.1716  0.4710
   8423SM  C23F11289   3.249   4.959   6.603  0.1797 -0.0221 -0.8173
   8423SM  H23F11290   3.213   4.892   6.684  1.4118 -3.0971 -2.6223
   8423SM  H23G11291   3.242   5.069   6.613 -0.8854 -0.1628  0.1409
   8423SM  H23H11292   3.357   4.931   6.602  0.1742 -0.1429  0.3742
   8523SM     N11293   5.876   0.876   3.825  0.3169 -0.2212  0.2909
   8523SM   C1511294   5.890   0.999   3.740  0.3813 -0.0631  0.2065
   8523SM  H15A11295   5.805   1.025   3.678  1.0898  1.2474 -0.2619
   8523SM  H15B11296   5.974   0.989   3.672 -0.3584 -1.3983 -0.5496
   8523SM  H15C11297   5.923   1.080   3.804 -0.8832  0.3517  0.3612
   8523SM   C1411298   5.816   0.766   3.736 -0.1365  0.0723 -0.5974
   8523SM  H14A11299   5.712   0.781   3.711 -0.0029  1.1084 -0.6106
   8523SM  H14B11300   5.815   0.673   3.791 -0.5125  0.3017 -0.2050
   8523SM  H14C11301   5.876   0.750   3.648 -0.6048 -0.4993 -0.8169
   8523SM   C1311302   6.010   0.832   3.885  0.3397 -0.8632  0.9458
   8523SM  H13A11303   6.087   0.815   3.812 -0.6122 -1.9105  0.1427
   8523SM  H13B11304   6.002   0.736   3.935  1.3216 -2.0472 -1.0267
   8523SM  H13C11305   6.038   0.913   3.950  1.2831  0.0887 -0.5991
   8523SM   C1211306   5.780   0.915   3.938 -0.1217 -0.1864 -0.0799
   8523SM  H12A11307   5.679   0.923   3.902  0.0012  1.4360 -0.1528
   8523SM  H12B11308   5.801   1.020   3.954 -1.0072  0.7793 -4.0808
   8523SM   C1111309   5.794   0.837   4.074 -0.1575  0.0761  0.6744
   8523SM  H11A11310   5.725   0.880   4.150 -0.3090  3.9527 -1.4271
   8523SM  H11B11311   5.897   0.856   4.110  0.1635 -0.1970 -0.0692
   8523SM     P11312   5.642   0.634   4.013 -0.2993  0.2200 -0.2493
   8523SM   O1311313   5.547   0.739   3.967  0.3705 -0.2083  0.2597
   8523SM   O1411314   5.663   0.513   3.929 -0.1498 -0.3283  0.4543
   8523SM   O1111315   5.607   0.586   4.159  0.0803  0.3485 -0.1477
   8523SM   O1211316   5.780   0.706   4.035 -0.0417  0.6117 -0.7435
   8523SM   C1S11317   5.709   0.528   4.242  0.5590 -0.5560 -0.9292
   8523SM   H1S11318   5.792   0.486   4.181 -2.7325 -1.6591 -5.0155
   8523SM   H1T11319   5.660   0.444   4.294 -1.4937  0.6745 -0.7761
   8523SM    NF11320   5.862   0.558   4.441  0.0392  0.4419 -0.1788
   8523SM   HNF11321   5.842   0.535   4.536 -1.4271  0.3069 -0.4996
   8523SM   C2S11322   5.761   0.624   4.356 -0.3536  0.4522  0.6426
   8523SM   H2S11323   5.814   0.710   4.309  1.7288 -0.7370  0.6924
   8523SM   C3S11324   5.644   0.682   4.438 -0.6067 -0.0748  0.3471
   8523SM   H3S11325   5.603   0.599   4.500 -2.3252 -1.2818 -2.2377
   8523SM    O311326   5.531   0.727   4.366  0.5356 -0.3477  0.0861
   8523SM   HO311327   5.540   0.692   4.276  1.1445  0.1601 -0.0575
   8523SM   C4S11328   5.693   0.785   4.536 -0.6790 -0.3604  0.4760
   8523SM   H4S11329   5.705   0.743   4.637 -0.9671 -1.5253  0.0421
   8523SM   C5S11330   5.698   0.921   4.523 -0.1103 -0.1596 -0.0012
   8523SM   H5S11331   5.679   0.975   4.428  1.4915  1.2224  0.4103
   8523SM   C6S11332   5.731   1.020   4.629 -0.6313  0.3291 -0.1762
   8523SM   H6S11333   5.645   1.089   4.636 -1.7767 -0.9519 -1.1566
   8523SM   H6T11334   5.817   1.081   4.595 -0.5210 -0.0185 -0.5303
   8523SM   C7S11335   5.756   0.959   4.769 -0.2398  0.2311  0.5262
   8523SM   H7S11336   5.841   0.888   4.760  0.4963  1.0640  0.7360
   8523SM   H7T11337   5.671   0.895   4.801 -0.3102  0.9411  1.8244
   8523SM   C8S11338   5.782   1.059   4.885 -0.2891  0.3696 -0.4212
   8523SM   H8S11339   5.710   1.142   4.867 -2.4662 -1.5415 -1.0503
   8523SM   H8T11340   5.884   1.103   4.881 -0.2690  0.2878 -0.8412
   8523SM   C9S11341   5.751   0.996   5.023  0.0429 -0.3751  0.3050
   8523SM   H9S11342   5.831   0.921   5.038  0.9965  1.0470  3.2194
   8523SM   H9T11343   5.655   0.941   5.023  1.0877 -2.3248  1.6648
   8523SM  C10S11344   5.761   1.099   5.134  0.4483  0.2025 -0.8657
   8523SM  H10S11345   5.682   1.177   5.140 -0.4854 -0.8402  2.5520
   8523SM  H10T11346   5.855   1.156   5.116 -0.3093  1.6026 -0.5449
   8523SM  C11S11347   5.773   1.032   5.276  0.2639  0.5204  0.0284
   8523SM  H11S11348   5.844   0.948   5.265 -1.6440 -1.3839  1.3502
   8523SM  H11T11349   5.676   0.989   5.310  0.2375 -0.0882 -0.8094
   8523SM  C12S11350   5.817   1.127   5.384  0.0491 -0.2918 -0.0426
   8523SM  H12S11351   5.757   1.220   5.377 -0.2078 -0.3439  1.2288
   8523SM  H12T11352   5.923   1.155   5.367  0.6479 -2.0480  0.6052
   8523SM  C13S11353   5.776   1.074   5.523  0.5457 -0.3194 -0.3342
   8523SM  H13S11354   5.830   0.980   5.548 -0.0182 -0.4575  0.3953
   8523SM  H13T11355   5.668   1.055   5.507  0.3086  1.4800 -0.9958
   8523SM  C14S11356   5.811   1.177   5.634 -0.0866 -0.0885 -0.5015
   8523SM  H14S11357   5.754   1.272   5.622 -0.6335 -0.3350  0.0773
   8523SM  H14T11358   5.918   1.206   5.627  0.3067 -1.5677 -0.9725
   8523SM  C15S11359   5.796   1.115   5.779  0.1399 -0.4534 -0.2054
   8523SM  H15S11360   5.880   1.043   5.792  0.5244  0.2280  1.2837
   8523SM  H15T11361   5.695   1.072   5.798  0.2206  0.1028  1.7405
   8523SM  C16S11362   5.824   1.232   5.878  0.2338 -0.1731 -0.3425
   8523SM  H16S11363   5.765   1.317   5.837  0.5644  0.0678 -0.3287
   8523SM  H16T11364   5.930   1.260   5.858 -0.4607  3.5483  0.3623
   8523SM  C17S11365   5.799   1.199   6.032  0.6646 -0.5316  0.5211
   8523SM  H17S11366   5.707   1.138   6.044  0.8919 -1.0010  0.0021
   8523SM  H17T11367   5.785   1.293   6.088 -2.1243 -2.5803  3.5988
   8523SM  C18S11368   5.911   1.129   6.114 -0.2391 -0.2506 -0.1362
   8523SM  H18S11369   5.886   1.098   6.217  0.3247  0.3072  0.1809
   8523SM  H18T11370   6.000   1.196   6.126  0.6354 -1.0314 -1.8497
   8523SM  H18U11371   5.942   1.041   6.053 -0.1003 -0.3208  0.0345
   8523SM   C1F11372   5.983   0.542   4.388 -0.1333 -0.0073  0.4292
   8523SM    OF11373   6.015   0.600   4.289  0.4486 -0.1879 -0.7583
   8523SM   C2F11374   6.072   0.432   4.445  0.1710  0.4318 -0.0178
   8523SM   H2F11375   6.086   0.375   4.350 -0.1609  4.1032 -2.4631
   8523SM   H2G11376   6.023   0.363   4.517  0.8944 -1.3080 -1.1065
   8523SM   C3F11377   6.211   0.478   4.494  0.4941  1.1835 -0.6386
   8523SM   H3F11378   6.269   0.500   4.401  2.1171 -0.3895 -0.0628
   8523SM   H3G11379   6.252   0.391   4.550  0.2514 -1.5372 -4.2606
   8523SM   C4F11380   6.220   0.610   4.579  0.0004  0.5092  0.3211
   8523SM   H4F11381   6.188   0.696   4.516 -4.6123  0.2024  1.8472
   8523SM   H4G11382   6.330   0.614   4.591 -0.0257  0.3694  0.6034
   8523SM   C5F11383   6.145   0.612   4.714 -0.7093 -0.1231  0.3864
   8523SM   H5F11384   6.206   0.546   4.779 -0.9930  0.1358  0.9179
   8523SM   H5G11385   6.041   0.576   4.700 -1.1548  1.1856  0.1955
   8523SM   C6F11386   6.126   0.750   4.787 -0.7189  0.1488  0.8336
   8523SM   H6F11387   6.065   0.821   4.727 -1.9549 -0.5056  1.2764
   8523SM   H6G11388   6.231   0.785   4.800  0.3548 -2.6610  0.4047
   8523SM   C7F11389   6.054   0.748   4.922 -0.1364  0.2633  0.1531
   8523SM   H7F11390   5.954   0.703   4.900  0.8073 -1.7259 -0.3288
   8523SM   H7G11391   6.026   0.852   4.950 -0.1714  0.5562 -0.9368
   8523SM   C8F11392   6.122   0.677   5.036  0.5841 -0.0066  0.2559
   8523SM   H8F11393   6.228   0.710   5.040  0.8542 -0.7811 -0.1902
   8523SM   H8G11394   6.120   0.566   5.028 -0.4606  0.0348 -0.2146
   8523SM   C9F11395   6.044   0.708   5.165  0.7661  0.4512 -0.5136
   8523SM   H9F11396   5.956   0.640   5.161  1.0426  0.0896 -0.4524
   8523SM   H9G11397   6.002   0.811   5.157 -2.4873 -0.3975  2.8000
   8523SM  C10F11398   6.115   0.695   5.290  0.4807 -0.3256 -0.0938
   8523SM  H10F11399   6.205   0.759   5.298  0.8591 -0.6024 -1.7663
   8523SM  H10G11400   6.149   0.589   5.295 -0.9620 -0.8166 -0.2031
   8523SM  C11F11401   6.023   0.728   5.411 -0.3064  0.2943  0.6528
   8523SM  H11F11402   5.942   0.652   5.416  0.8871 -1.1431 -0.7023
   8523SM  H11G11403   5.977   0.829   5.408  0.2808  0.6637  2.8172
   8523SM  C12F11404   6.103   0.718   5.545  0.0370 -0.3617 -0.2190
   8523SM  H12F11405   6.198   0.775   5.532  1.8023 -2.6853  1.6924
   8523SM  H12G11406   6.145   0.617   5.564  1.5773  0.0161 -1.3810
   8523SM  C13F11407   6.019   0.774   5.654  0.2968  0.2829  0.1561
   8523SM  H13F11408   5.922   0.720   5.650 -0.1842  1.0236  1.0788
   8523SM  H13G11409   5.991   0.882   5.648 -1.1375  0.0471  1.8373
   8523SM  C14F11410   6.068   0.771   5.804  0.0853  0.2403  0.2635
   8523SM  H14F11411   5.998   0.834   5.864 -0.1905  0.4840 -0.2960
   8523SM  H14G11412   6.168   0.818   5.803 -0.0018  0.4257  0.1630
   8523SM  C15F11413   6.081   0.629   5.854  0.1317 -0.3143 -0.9383
   8523SM  H15F11414   6.155   0.574   5.792 -0.0792 -0.2303 -1.2677
   8523SM  H15G11415   5.983   0.579   5.840  0.3237 -0.7154 -0.8671
   8523SM  C16F11416   6.124   0.617   6.005 -0.2175  0.6046  0.2971
   8523SM  H16F11417   6.220   0.670   6.026 -0.1463  0.3012  0.7573
   8523SM  H16G11418   6.145   0.509   6.023  0.0162  0.1165 -2.4811
   8523SM  C17F11419   6.011   0.660   6.099 -0.3832 -0.0384 -0.4961
   8523SM  H17F11420   5.925   0.590   6.090 -0.0335 -0.3515 -1.6103
   8523SM  H17G11421   5.965   0.757   6.070 -1.8849 -0.2541  1.0280
   8523SM  C18F11422   6.051   0.663   6.249 -0.7403 -0.3097 -0.2258
   8523SM  H18F11423   6.081   0.560   6.281  0.5009 -0.4229 -1.6440
   8523SM  H18G11424   5.975   0.711   6.315  0.1445  1.2166 -0.2691
   8523SM  C19F11425   6.172   0.757   6.270  0.1763 -0.2191 -0.1516
   8523SM  H19F11426   6.159   0.853   6.216  1.3560  1.8437  2.9314
   8523SM  H19G11427   6.262   0.701   6.238  0.7449 -0.1312  1.2377
   8523SM  C20F11428   6.184   0.804   6.420 -0.6805 -0.0090  0.1078
   8523SM  H20F11429   6.210   0.730   6.499  1.9415  1.2886  0.5832
   8523SM  H20G11430   6.090   0.862   6.436 -0.1282  0.6845  0.9316
   8523SM  C21F11431   6.306   0.901   6.433 -0.7059  0.6068  0.3388
   8523SM  H21F11432   6.310   0.969   6.346 -0.0546  1.1545  0.7831
   8523SM  H21G11433   6.400   0.842   6.428 -0.5795  0.8206  0.1921
   8523SM  C22F11434   6.313   1.000   6.557  0.0178 -0.5660 -0.3097
   8523SM  H22F11435   6.227   1.068   6.542  0.9950  0.4740 -1.4613
   8523SM  H22G11436   6.411   1.052   6.553  0.1356 -0.8526 -3.0660
   8523SM  C23F11437   6.293   0.929   6.688  0.1888  0.3683  0.0729
   8523SM  H23F11438   6.297   1.007   6.768 -0.2787 -1.5924  2.1248
   8523SM  H23G11439   6.357   0.840   6.707  0.0062  0.2225  0.0090
   8523SM  H23H11440   6.185   0.903   6.686 -0.4253  2.7816 -0.5034
   8623SM     N11441   3.937   5.115   3.422 -0.1767  0.2268 -0.6916
   8623SM   C1511442   3.849   5.204   3.334  0.1576 -0.0221 -0.0372
   8623SM  H15A11443   3.861   5.171   3.232  3.8279  0.1837  0.1883
   8623SM  H15B11444   3.893   5.302   3.343  3.0252 -1.2543  0.3042
   8623SM  H15C11445   3.743   5.197   3.358  0.3461  0.5120  1.0503
   8623SM   C1411446   3.891   4.970   3.409 -0.4069 -1.2090  0.3320
   8623SM  H14A11447   3.789   4.969   3.444  0.6814 -2.6336  3.9358
   8623SM  H14B11448   3.945   4.908   3.479 -1.3391  0.8591  3.0385
   8623SM  H14C11449   3.907   4.935   3.308  0.3283 -0.4026  0.1585
   8623SM   C1311450   4.084   5.130   3.379 -0.6942 -0.1733  0.1739
   8623SM  H13A11451   4.104   5.087   3.282 -1.3829  0.8224 -0.4265
   8623SM  H13B11452   4.153   5.086   3.450 -0.7542  0.0642  0.3781
   8623SM  H13C11453   4.106   5.235   3.377  0.7004 -0.4294  0.9755
   8623SM   C1211454   3.913   5.160   3.567 -0.7894 -0.2357 -0.3663
   8623SM  H12A11455   3.934   5.266   3.564  0.7584 -0.5413 -1.7815
   8623SM  H12B11456   3.988   5.111   3.628  0.9773 -1.8114 -3.5531
   8623SM   C1111457   3.777   5.139   3.640  0.1541  0.5340 -0.4538
   8623SM  H11A11458   3.779   5.155   3.750 -0.8393  1.2259 -0.5221
   8623SM  H11B11459   3.750   5.031   3.632  0.7779  0.4157 -1.0611
   8623SM     P11460   3.637   5.349   3.613  0.3200 -0.1419 -0.1292
   8623SM   O1311461   3.755   5.430   3.585 -0.4674 -0.3526  0.5463
   8623SM   O1411462   3.511   5.389   3.548 -0.0837 -0.0484  0.3273
   8623SM   O1111463   3.607   5.343   3.776 -0.7472 -0.2725  0.2718
   8623SM   O1211464   3.663   5.199   3.581 -0.0861 -0.3937  0.2546
   8623SM   C1S11465   3.497   5.275   3.837 -0.2674 -0.0486  0.0632
   8623SM   H1S11466   3.507   5.169   3.805 -0.4411 -0.2953  0.8155
   8623SM   H1T11467   3.405   5.321   3.792  0.7040 -0.5999 -2.6601
   8623SM    NF11468   3.391   5.199   4.043  0.4159  0.2239 -0.4591
   8623SM   HNF11469   3.305   5.227   4.085 -0.1707 -3.6340  1.2576
   8623SM   C2S11470   3.484   5.299   3.988  0.0609  0.5706 -0.7691
   8623SM   H2S11471   3.578   5.265   4.035 -0.2742  0.7080  0.0105
   8623SM   C3S11472   3.458   5.439   4.032 -0.1436  1.0451 -1.0873
   8623SM   H3S11473   3.350   5.460   4.018 -1.3286 -3.3954 -0.2176
   8623SM    O311474   3.533   5.525   3.951  0.2869 -0.2263  0.2281
   8623SM   HO311475   3.575   5.468   3.886 -0.1817 -2.5127  1.8264
   8623SM   C4S11476   3.485   5.449   4.182  0.2139  0.1375 -0.0540
   8623SM   H4S11477   3.573   5.509   4.209  0.5798 -0.8639  1.1121
   8623SM   C5S11478   3.411   5.410   4.281  0.2290  0.2807 -0.1403
   8623SM   H5S11479   3.312   5.371   4.254  0.1810  1.1046 -1.2028
   8623SM   C6S11480   3.438   5.429   4.430 -0.3005  0.1004  0.4950
   8623SM   H6S11481   3.344   5.462   4.479 -0.2680 -2.0016  2.0588
   8623SM   H6T11482   3.516   5.505   4.453 -0.4264  0.3949 -0.0241
   8623SM   C7S11483   3.493   5.300   4.495  0.5509  0.1191 -0.0394
   8623SM   H7S11484   3.577   5.257   4.435 -0.4022 -2.8069  0.5385
   8623SM   H7T11485   3.410   5.225   4.500 -0.4965  1.3555  2.5365
   8623SM   C8S11486   3.524   5.328   4.641 -0.1555  0.2068 -0.1255
   8623SM   H8S11487   3.442   5.381   4.695  0.5943  2.8513 -1.3738
   8623SM   H8T11488   3.611   5.396   4.630 -0.3668  0.3853 -0.7210
   8623SM   C9S11489   3.562   5.201   4.709  0.3098  0.2240  0.2877
   8623SM   H9S11490   3.617   5.132   4.641  1.9121  0.7876  0.9608
   8623SM   H9T11491   3.460   5.166   4.736 -0.6164  3.8951  2.1604
   8623SM  C10S11492   3.644   5.215   4.835  0.3369  0.1046  0.7674
   8623SM  H10S11493   3.719   5.297   4.827  1.4467 -1.0095 -0.7303
   8623SM  H10T11494   3.702   5.122   4.851  0.3508  0.2366  1.5167
   8623SM  C11S11495   3.560   5.216   4.963  0.1318 -0.3065  0.5116
   8623SM  H11S11496   3.509   5.117   4.971  1.4527 -1.1012 -0.4691
   8623SM  H11T11497   3.469   5.280   4.956  0.3404 -0.0731 -0.1365
   8623SM  C12S11498   3.638   5.258   5.088 -0.4463 -0.0928  0.0513
   8623SM  H12S11499   3.676   5.360   5.068 -4.0393  1.1890 -1.1764
   8623SM  H12T11500   3.723   5.188   5.101 -0.4039 -0.4146 -1.7027
   8623SM  C13S11501   3.551   5.255   5.212  0.4119 -0.1949  0.2410
   8623SM  H13S11502   3.511   5.152   5.229 -2.1182  0.3415 -1.7403
   8623SM  H13T11503   3.460   5.313   5.183  0.9200  1.0246  1.0011
   8623SM  C14S11504   3.618   5.302   5.342 -0.1802  0.6323 -0.0905
   8623SM  H14S11505   3.658   5.405   5.332  1.4108  0.2685  1.8303
   8623SM  H14T11506   3.708   5.236   5.348  0.7582  1.9464  0.8786
   8623SM  C15S11507   3.537   5.295   5.473 -0.1892  0.3573  0.4811
   8623SM  H15S11508   3.490   5.194   5.476 -1.5886  0.7945 -2.6718
   8623SM  H15T11509   3.457   5.369   5.455 -1.1682 -0.7174  0.2653
   8623SM  C16S11510   3.621   5.326   5.600 -0.5898 -0.3931 -0.3169
   8623SM  H16S11511   3.685   5.414   5.580 -2.7635  1.3441  0.0633
   8623SM  H16T11512   3.682   5.236   5.624 -1.8208 -2.2829 -3.6465
   8623SM  C17S11513   3.540   5.362   5.726  0.1264 -0.4909  0.0512
   8623SM  H17S11514   3.467   5.280   5.746  0.5148 -0.9949 -0.5527
   8623SM  H17T11515   3.481   5.453   5.704  0.0512 -0.8253 -1.2082
   8623SM  C18S11516   3.628   5.391   5.847 -0.0696 -0.3553 -0.1819
   8623SM  H18S11517   3.573   5.410   5.942  3.6930  0.8918  1.9920
   8623SM  H18T11518   3.700   5.471   5.820 -0.5378 -0.5635 -2.2257
   8623SM  H18U11519   3.694   5.302   5.860  0.9887 -0.1303 -3.2892
   8623SM   C1F11520   3.418   5.072   4.051  0.0941  0.0472 -0.2664
   8623SM    OF11521   3.523   5.026   4.001  0.4883 -0.2729  0.1588
   8623SM   C2F11522   3.312   4.984   4.118  0.5770 -0.2267 -0.2661
   8623SM   H2F11523   3.226   4.979   4.048  0.6402  1.6028 -0.5350
   8623SM   H2G11524   3.287   5.042   4.210 -0.5963 -0.8578 -0.1742
   8623SM   C3F11525   3.355   4.836   4.151  0.2588 -0.6575  0.4982
   8623SM   H3F11526   3.391   4.794   4.055  0.7994 -0.0330  0.4251
   8623SM   H3G11527   3.260   4.786   4.181 -0.5731  1.1549  1.0613
   8623SM   C4F11528   3.456   4.816   4.267  0.5707 -0.0067 -0.1500
   8623SM   H4F11529   3.548   4.877   4.252  0.3303  0.8389  1.5152
   8623SM   H4G11530   3.483   4.708   4.270  0.6867 -0.2248 -4.1138
   8623SM   C5F11531   3.397   4.868   4.403 -0.3426 -0.3809 -0.0514
   8623SM   H5F11532   3.302   4.811   4.410 -0.9443  0.6910  0.8711
   8623SM   H5G11533   3.378   4.978   4.403  2.0694  0.0967  0.1865
   8623SM   C6F11534   3.497   4.838   4.520  0.3502 -0.0357  0.5866
   8623SM   H6F11535   3.576   4.913   4.542 -0.0166  0.5939 -0.1756
   8623SM   H6G11536   3.545   4.739   4.501 -0.1673 -0.0783 -0.6048
   8623SM   C7F11537   3.412   4.839   4.651 -0.9790 -0.4883 -0.3311
   8623SM   H7F11538   3.332   4.764   4.632  0.0441 -1.9973  1.0741
   8623SM   H7G11539   3.377   4.942   4.674  0.6256  0.3286 -1.2822
   8623SM   C8F11540   3.481   4.777   4.775 -0.2582  0.4474 -0.4249
   8623SM   H8F11541   3.586   4.813   4.788  0.6765 -1.5319 -1.9512
   8623SM   H8G11542   3.483   4.667   4.761  0.2117  0.5212 -0.9633
   8623SM   C9F11543   3.399   4.799   4.912 -0.1181 -0.4920  0.0772
   8623SM   H9F11544   3.314   4.728   4.902  1.3171 -2.1967 -0.4092
   8623SM   H9G11545   3.359   4.902   4.898 -2.1138 -1.3374 -0.8920
   8623SM  C10F11546   3.470   4.762   5.040 -0.0450  0.7280  0.2959
   8623SM  H10F11547   3.571   4.806   5.050  0.3621 -0.0622 -0.2131
   8623SM  H10G11548   3.478   4.651   5.047 -2.9043  0.4839  1.2089
   8623SM  C11F11549   3.404   4.836   5.162 -0.2359  0.3396  0.1159
   8623SM  H11F11550   3.300   4.799   5.171 -0.9330  2.0631 -0.5514
   8623SM  H11G11551   3.393   4.946   5.152 -1.7862  0.3674  1.6981
   8623SM  C12F11552   3.493   4.819   5.279 -0.0611  0.6021  0.1237
   8623SM  H12F11553   3.578   4.889   5.277 -0.5593  1.2442  0.8831
   8623SM  H12G11554   3.539   4.718   5.274 -0.9410  0.0490  2.2969
   8623SM  C13F11555   3.409   4.836   5.407 -0.1440  0.2873 -0.6896
   8623SM  H13F11556   3.321   4.769   5.407 -0.5256  0.7707  0.2099
   8623SM  H13G11557   3.364   4.938   5.403  1.2581  0.8866 -2.6842
   8623SM  C14F11558   3.492   4.822   5.538 -0.2620  0.4442  0.2611
   8623SM  H14F11559   3.593   4.866   5.526 -0.7523  1.2385 -1.2442
   8623SM  H14G11560   3.516   4.716   5.562 -1.5716  0.5560  2.2813
   8623SM  C15F11561   3.433   4.889   5.663 -0.1639  0.2015 -0.2822
   8623SM  H15F11562   3.353   4.817   5.691  2.2037 -1.9896  1.2608
   8623SM  H15G11563   3.399   4.991   5.636 -3.0382 -1.0991 -2.0409
   8623SM  C16F11564   3.526   4.907   5.791 -0.0650 -0.1604  0.2841
   8623SM  H16F11565   3.604   4.976   5.753  2.6903 -3.1556  0.1654
   8623SM  H16G11566   3.574   4.812   5.820 -1.6468 -0.9456  0.4438
   8623SM  C17F11567   3.451   4.970   5.913  0.1687  0.0697 -0.1782
   8623SM  H17F11568   3.362   4.905   5.929 -0.6943  1.4717  0.9033
   8623SM  H17G11569   3.409   5.067   5.878  0.0562  0.2809  0.5318
   8623SM  C18F11570   3.543   4.981   6.033  0.4890 -0.6313 -0.2821
   8623SM  H18F11571   3.538   5.089   6.059  0.4719 -0.1852 -1.9953
   8623SM  H18G11572   3.647   4.951   6.008  0.6113 -1.1564  0.8212
   8623SM  C19F11573   3.486   4.901   6.147 -0.1666 -0.4486  0.0469
   8623SM  H19F11574   3.490   4.793   6.119 -2.8855  0.2291 -3.9341
   8623SM  H19G11575   3.378   4.926   6.161 -0.2248 -0.7967  0.2354
   8623SM  C20F11576   3.560   4.923   6.280 -0.4557 -0.0843 -0.9660
   8623SM  H20F11577   3.515   4.868   6.366 -0.5210  0.1934 -0.8197
   8623SM  H20G11578   3.545   5.030   6.306 -0.9037 -0.1610 -0.8910
   8623SM  C21F11579   3.710   4.903   6.267  0.2850 -0.2729 -0.0648
   8623SM  H21F11580   3.742   4.975   6.188  1.7356  0.8861  1.5005
   8623SM  H21G11581   3.738   4.807   6.218  3.2291  0.3609  0.1701
   8623SM  C22F11582   3.792   4.927   6.394 -0.7109  0.1793 -0.0089
   8623SM  H22F11583   3.795   5.037   6.405  2.3822  0.1005  0.8471
   8623SM  H22G11584   3.892   4.893   6.360  0.3317  2.4792  0.5880
   8623SM  C23F11585   3.754   4.839   6.518  0.6437 -0.6738 -0.2906
   8623SM  H23F11586   3.826   4.835   6.602  0.3135 -2.7860 -0.0564
   8623SM  H23G11587   3.751   4.735   6.480  0.1910 -0.3164 -1.2757
   8623SM  H23H11588   3.651   4.859   6.556  0.5575  0.5212 -1.0869
   8723SM     N11589   4.619   5.292   3.780 -0.0990  0.2075 -0.2049
   8723SM   C1511590   4.616   5.141   3.777 -0.8856 -0.2958 -0.2408
   8723SM  H15A11591   4.523   5.111   3.822 -0.3907  2.7314  3.2912
   8723SM  H15B11592   4.706   5.104   3.824 -1.5612 -0.6030  0.8399
   8723SM  H15C11593   4.610   5.089   3.683 -2.6954 -0.5632 -0.0086
   8723SM   C1411594   4.635   5.346   3.919  0.6642 -0.0095 -0.0156
   8723SM  H14A11595   4.635   5.454   3.913  0.6497 -0.0758 -1.6182
   8723SM  H14B11596   4.727   5.303   3.958 -0.1986 -0.8941  1.0929
   8723SM  H14C11597   4.564   5.313   3.993  1.9254  0.5020  1.4656
   8723SM   C1311598   4.740   5.341   3.705  0.4196 -0.6313 -0.3895
   8723SM  H13A11599   4.764   5.442   3.736 -2.8672 -0.1341  0.9675
   8723SM  H13B11600   4.734   5.346   3.598  2.3039  1.5094 -0.4706
   8723SM  H13C11601   4.827   5.282   3.733  0.1110 -1.3754 -0.9583
   8723SM   C1211602   4.491   5.348   3.720  0.7413  0.2964  0.3824
   8723SM  H12A11603   4.486   5.300   3.623  1.8478 -0.7981  0.8225
   8723SM  H12B11604   4.512   5.453   3.708  1.1306  0.0308 -1.7374
   8723SM   C1111605   4.353   5.328   3.805 -0.1563  0.7958  0.2761
   8723SM  H11A11606   4.274   5.373   3.742  0.7792  1.9803 -0.0962
   8723SM  H11B11607   4.354   5.394   3.895  0.3602  1.3982 -0.1591
   8723SM     P11608   4.279   5.092   3.724 -0.1755  0.1554  0.1833
   8723SM   O1311609   4.298   5.163   3.592  0.6100  0.3085  0.3898
   8723SM   O1411610   4.336   4.960   3.742  0.2384  0.3540 -0.0431
   8723SM   O1111611   4.129   5.093   3.758  0.3353 -0.0014 -0.3353
   8723SM   O1211612   4.333   5.190   3.835 -0.4378  0.3910 -0.3770
   8723SM   C1S11613   4.087   5.042   3.884 -0.3873  0.2608  0.1332
   8723SM   H1S11614   4.141   4.947   3.907 -2.2674 -0.9012 -0.0519
   8723SM   H1T11615   3.978   5.022   3.877 -0.8136  1.2929  2.5734
   8723SM    NF11616   4.067   5.045   4.135  0.1478  0.1347 -0.5168
   8723SM   HNF11617   3.978   5.068   4.174  0.1200  1.5258 -1.3186
   8723SM   C2S11618   4.090   5.124   4.019 -0.5370  0.0176  0.4481
   8723SM   H2S11619   4.189   5.173   4.031 -1.8655  2.7728  0.8214
   8723SM   C3S11620   3.994   5.248   4.006 -0.2297  0.4375  0.0407
   8723SM   H3S11621   3.892   5.204   3.996 -0.7074  1.5959 -0.2870
   8723SM    O311622   4.020   5.323   3.881 -0.3773 -0.2698 -0.2525
   8723SM   HO311623   4.081   5.270   3.828  0.4847  1.6179 -1.2568
   8723SM   C4S11624   4.004   5.332   4.133  0.2070 -0.3655 -0.0228
   8723SM   H4S11625   4.092   5.398   4.132  0.9040 -1.2002 -3.0257
   8723SM   C5S11626   3.900   5.348   4.208 -0.0180  0.0270 -0.4352
   8723SM   H5S11627   3.802   5.302   4.189  0.5429 -0.9763 -0.9867
   8723SM   C6S11628   3.896   5.440   4.326 -0.5361 -0.2330  0.3489
   8723SM   H6S11629   3.796   5.478   4.357  0.8923  1.5442  3.1389
   8723SM   H6T11630   3.961   5.530   4.316 -2.1763  0.8152 -1.5091
   8723SM   C7S11631   3.945   5.367   4.456  0.4938 -0.1647 -0.2803
   8723SM   H7S11632   4.053   5.342   4.441  0.5493  0.8389 -1.8693
   8723SM   H7T11633   3.887   5.277   4.482  1.1415 -0.6119 -0.3534
   8723SM   C8S11634   3.919   5.455   4.582 -0.0001 -0.0545 -0.3328
   8723SM   H8S11635   3.809   5.468   4.597  0.3362  2.7978  0.2735
   8723SM   H8T11636   3.942   5.562   4.562 -2.2528  0.5121 -0.2330
   8723SM   C9S11637   3.983   5.420   4.713 -0.3790  0.3083  0.1614
   8723SM   H9S11638   4.089   5.452   4.713 -0.1824 -0.3174  0.1410
   8723SM   H9T11639   3.978   5.311   4.738  1.0699  0.4415  1.1517
   8723SM  C10S11640   3.925   5.480   4.846  0.1721 -0.3203  0.4860
   8723SM  H10S11641   3.814   5.487   4.846  0.2231  0.8817 -0.1104
   8723SM  H10T11642   3.950   5.589   4.844 -1.5571  0.0854 -0.0537
   8723SM  C11S11643   3.981   5.413   4.973  0.3832  0.1779 -0.4775
   8723SM  H11S11644   4.092   5.414   4.973  0.3958  1.5178  0.4235
   8723SM  H11T11645   3.940   5.311   4.989  1.4783 -0.4168 -1.3076
   8723SM  C12S11646   3.948   5.496   5.101 -0.2188 -0.4105  0.1099
   8723SM  H12S11647   3.838   5.509   5.100 -0.0280  1.7931  1.2774
   8723SM  H12T11648   3.988   5.600   5.090  2.2727 -1.2318  0.8617
   8723SM  C13S11649   4.001   5.427   5.221  0.3851  0.2316  0.8676
   8723SM  H13S11650   4.111   5.421   5.202  0.1518  0.7122 -0.7560
   8723SM  H13T11651   3.961   5.324   5.234 -1.4910  0.9904  1.2799
   8723SM  C14S11652   3.969   5.494   5.357  0.0424 -0.4606  0.1726
   8723SM  H14S11653   3.862   5.473   5.380 -0.0073 -1.2632 -0.7363
   8723SM  H14T11654   3.988   5.604   5.352  1.1419 -0.6338  0.2708
   8723SM  C15S11655   4.045   5.436   5.472 -0.0868 -0.7896 -0.7820
   8723SM  H15S11656   4.156   5.435   5.461  0.1510 -2.6743  1.2619
   8723SM  H15T11657   4.027   5.328   5.458 -0.7475 -0.8581  0.4774
   8723SM  C16S11658   4.017   5.497   5.605 -0.2166  0.3177 -0.1610
   8723SM  H16S11659   3.909   5.478   5.626 -0.6809  2.6964 -0.1254
   8723SM  H16T11660   4.035   5.606   5.595  0.1692  0.2642 -0.0563
   8723SM  C17S11661   4.098   5.450   5.727  0.0021  0.1993 -0.3215
   8723SM  H17S11662   4.205   5.479   5.719  0.3644 -0.8513  0.4696
   8723SM  H17T11663   4.089   5.339   5.733  0.9557  0.1563  0.5534
   8723SM  C18S11664   4.053   5.521   5.856  0.0520  0.6799 -0.4265
   8723SM  H18S11665   3.949   5.492   5.881 -0.0138  0.3485 -1.0699
   8723SM  H18T11666   4.061   5.631   5.843 -0.5947  0.7804 -0.0216
   8723SM  H18U11667   4.112   5.488   5.945  0.6290 -1.2751 -1.4712
   8723SM   C1F11668   4.139   4.958   4.192 -0.9486  0.1592  0.4478
   8723SM    OF11669   4.247   4.928   4.147 -0.2812  0.7402  0.4395
   8723SM   C2F11670   4.082   4.895   4.318 -0.1213 -0.5229 -0.1567
   8723SM   H2F11671   4.170   4.834   4.351 -1.0000 -0.0833  3.4653
   8723SM   H2G11672   3.989   4.839   4.292 -0.5156  0.1268 -0.1583
   8723SM   C3F11673   4.051   4.991   4.433  0.4088 -0.1921 -0.1806
   8723SM   H3F11674   3.971   5.067   4.420  0.8640  0.1710 -0.8834
   8723SM   H3G11675   4.142   5.052   4.450 -1.3447  2.4982  0.1834
   8723SM   C4F11676   4.025   4.907   4.557  0.2961 -0.0797 -0.1374
   8723SM   H4F11677   4.091   4.817   4.554  0.3810 -0.0552 -3.5527
   8723SM   H4G11678   3.916   4.885   4.558  0.4261 -0.8970 -1.2977
   8723SM   C5F11679   4.049   4.980   4.695  0.0916  0.9019 -0.2356
   8723SM   H5F11680   4.045   5.087   4.665  1.4310  0.0417 -3.9994
   8723SM   H5G11681   4.157   4.972   4.722  0.0233 -1.1918 -0.4588
   8723SM   C6F11682   3.952   4.935   4.814 -0.3375  1.1473 -0.3636
   8723SM   H6F11683   3.955   4.825   4.834  0.1606  1.0297 -1.0655
   8723SM   H6G11684   3.848   4.956   4.781 -1.6349 -1.1315  1.8635
   8723SM   C7F11685   3.977   4.998   4.946 -0.4415  0.4018 -0.3471
   8723SM   H7F11686   3.942   5.102   4.931 -1.3689  0.2280  0.5005
   8723SM   H7G11687   4.085   5.001   4.972  0.1231  0.3398 -2.4730
   8723SM   C8F11688   3.889   4.942   5.054  0.6791  0.0751  0.5140
   8723SM   H8F11689   3.886   4.832   5.066  0.6740  0.0419  0.2009
   8723SM   H8G11690   3.785   4.972   5.033  1.1333  1.9615  0.7725
   8723SM   C9F11691   3.943   5.004   5.183  0.1545 -0.3137 -0.3653
   8723SM   H9F11692   3.955   5.114   5.175  3.1383 -0.2612  2.4319
   8723SM   H9G11693   4.047   4.968   5.197  0.1464 -0.1180  0.2224
   8723SM  C10F11694   3.871   4.972   5.310  0.1602 -0.2346  0.0138
   8723SM  H10F11695   3.867   4.864   5.332 -3.1780 -0.3042 -0.4061
   8723SM  H10G11696   3.769   5.015   5.304  0.9215  1.6065 -0.7643
   8723SM  C11F11697   3.932   5.041   5.433  0.1603  0.2711  0.3939
   8723SM  H11F11698   3.946   5.150   5.416 -0.6781  0.1055 -1.6285
   8723SM  H11G11699   4.032   4.993   5.443 -0.6037 -1.7320 -1.0015
   8723SM  C12F11700   3.868   5.014   5.569  0.0617  0.3383  0.6508
   8723SM  H12F11701   3.871   4.906   5.595  1.5760  0.0160 -0.7536
   8723SM  H12G11702   3.763   5.048   5.558 -0.1253 -0.2763  0.4975
   8723SM  C13F11703   3.940   5.069   5.689  0.3661  0.1819  0.2787
   8723SM  H13F11704   3.957   5.179   5.683 -3.8016  0.9578 -0.0115
   8723SM  H13G11705   4.038   5.016   5.682 -0.4688 -1.3450 -0.2240
   8723SM  C14F11706   3.875   5.036   5.827  0.3039 -0.5462  0.3627
   8723SM  H14F11707   3.843   4.930   5.818 -1.8685  0.1978 -1.9787
   8723SM  H14G11708   3.778   5.087   5.842  0.1305 -1.0563  0.9990
   8723SM  C15F11709   3.972   5.055   5.945  0.3499  0.4481  0.3971
   8723SM  H15F11710   4.061   4.991   5.929 -0.7067 -0.5392 -1.9977
   8723SM  H15G11711   3.927   5.020   6.040  1.4274  0.3922  0.9020
   8723SM  C16F11712   4.000   5.204   5.971  0.3697  0.8387  0.5430
   8723SM  H16F11713   3.961   5.268   5.890 -2.0333 -0.0437  0.9127
   8723SM  H16G11714   4.109   5.224   5.972  0.0818  2.8085 -1.1525
   8723SM  C17F11715   3.941   5.252   6.104  0.2633 -0.2663  0.0677
   8723SM  H17F11716   3.837   5.212   6.103  0.4734 -0.8213  0.1269
   8723SM  H17G11717   3.929   5.362   6.099 -0.1296 -0.3532 -1.2716
   8723SM  C18F11718   4.008   5.207   6.238  0.5620 -0.0724  0.2829
   8723SM  H18F11719   4.001   5.096   6.248  1.0721  0.0555  2.7272
   8723SM  H18G11720   3.959   5.258   6.323  1.7696 -1.2058  1.7143
   8723SM  C19F11721   4.157   5.228   6.255 -0.2434  0.0637  0.6596
   8723SM  H19F11722   4.171   5.338   6.265  0.3072 -0.1520  2.4949
   8723SM  H19G11723   4.198   5.195   6.157 -0.8831  0.1725  0.3482
   8723SM  C20F11724   4.213   5.160   6.380  0.3923  0.2544  0.5165
   8723SM  H20F11725   4.233   5.057   6.345  0.6273  1.2522 -2.6585
   8723SM  H20G11726   4.145   5.161   6.468  1.0978  1.5248  1.0794
   8723SM  C21F11727   4.355   5.219   6.424  0.5151 -0.0391  0.9548
   8723SM  H21F11728   4.351   5.322   6.466 -1.3040 -0.7584  2.7028
   8723SM  H21G11729   4.433   5.206   6.346  0.4901  0.8736  0.7783
   8723SM  C22F11730   4.414   5.149   6.549  0.6862  0.5066 -0.4309
   8723SM  H22F11731   4.394   5.040   6.546 -0.4326  0.6616  0.7522
   8723SM  H22G11732   4.351   5.179   6.635 -0.4252 -1.8300 -0.3619
   8723SM  C23F11733   4.563   5.180   6.579  0.3735 -0.1920 -0.6122
   8723SM  H23F11734   4.600   5.114   6.660 -2.4736 -0.9455  0.1775
   8723SM  H23G11735   4.588   5.285   6.605 -0.1332 -0.7513  2.4480
   8723SM  H23H11736   4.619   5.165   6.484  0.4284  2.2141 -1.0313
   8823SM     N11737   6.470   6.069   4.739 -0.9708  0.1025 -0.4631
   8823SM   C1511738   6.447   6.070   4.590 -0.0894  0.2410 -0.4654
   8823SM  H15A11739   6.345   6.095   4.563 -0.3690  0.6312  0.8704
   8823SM  H15B11740   6.474   5.974   4.548 -0.5372  0.0274 -0.2694
   8823SM  H15C11741   6.515   6.137   4.539 -0.9874  0.9536 -0.7769
   8823SM   C1411742   6.427   6.200   4.789  0.4222  0.3606  0.3899
   8823SM  H14A11743   6.485   6.277   4.740 -0.8081  1.6247  0.8342
   8823SM  H14B11744   6.433   6.209   4.897 -1.1410  0.5648  0.4893
   8823SM  H14C11745   6.321   6.214   4.769  0.3804 -0.4780  0.0175
   8823SM   C1311746   6.383   5.964   4.801  0.2259  0.5353 -0.3616
   8823SM  H13A11747   6.400   5.867   4.756 -1.4042 -0.2129  0.5902
   8823SM  H13B11748   6.277   5.980   4.805  0.3308  1.1808  0.0864
   8823SM  H13C11749   6.414   5.956   4.904 -0.0769 -1.1305 -0.3788
   8823SM   C1211750   6.618   6.043   4.774  0.2486 -0.2832  0.4442
   8823SM  H12A11751   6.629   6.062   4.880  2.2704  1.2609  0.0326
   8823SM  H12B11752   6.688   6.113   4.731 -1.2833  0.1016 -1.5484
   8823SM   C1111753   6.676   5.903   4.742 -0.7835 -0.0896 -0.3896
   8823SM  H11A11754   6.607   5.833   4.794 -0.5443 -0.1101 -0.0968
   8823SM  H11B11755   6.776   5.902   4.790 -1.1477  2.4189  0.5911
   8823SM     P11756   6.809   5.911   4.523  0.2224  0.1644  0.1480
   8823SM   O1311757   6.772   5.913   4.379  0.5226  0.4969 -0.0431
   8823SM   O1411758   6.871   6.032   4.576  0.4907 -0.8086  0.2255
   8823SM   O1111759   6.908   5.784   4.544 -0.0359 -0.4295 -0.1657
   8823SM   O1211760   6.683   5.867   4.606 -0.5293  0.3748  0.6297
   8823SM   C1S11761   7.045   5.794   4.565  0.1908  0.4346 -0.0156
   8823SM   H1S11762   7.093   5.877   4.508  0.3161  0.8503  0.6838
   8823SM   H1T11763   7.090   5.700   4.525  0.9933  2.0247 -3.2203
   8823SM    NF11764   7.229   5.840   4.721 -0.5734 -0.0841 -0.2771
   8823SM   HNF11765   7.283   5.764   4.758  1.0650  0.8619 -0.6135
   8823SM   C2S11766   7.082   5.814   4.716 -0.2374 -0.0281 -0.3323
   8823SM   H2S11767   7.027   5.905   4.749  1.9921  2.0445 -2.0072
   8823SM   C3S11768   7.026   5.694   4.802  0.3950  0.0993  0.2764
   8823SM   H3S11769   7.083   5.605   4.767 -0.0095 -0.2140  0.4031
   8823SM    O311770   6.887   5.671   4.791  0.5197 -0.5955  0.0282
   8823SM   HO311771   6.856   5.727   4.720 -1.9447 -1.6158  0.2034
   8823SM   C4S11772   7.064   5.710   4.954 -0.5766 -0.7518  0.5927
   8823SM   H4S11773   6.993   5.776   5.006 -0.7012 -1.0381  0.7830
   8823SM   C5S11774   7.160   5.639   5.022 -0.9714 -0.7789  0.0983
   8823SM   H5S11775   7.240   5.582   4.973  0.4326 -0.3164  1.7673
   8823SM   C6S11776   7.178   5.653   5.176 -0.2962 -0.1372  0.0474
   8823SM   H6S11777   7.252   5.734   5.196  1.2536 -1.5217  0.1887
   8823SM   H6T11778   7.222   5.557   5.213  0.7985 -0.1937 -1.2953
   8823SM   C7S11779   7.055   5.704   5.256 -0.2932 -0.7818  0.2315
   8823SM   H7S11780   6.959   5.654   5.232 -1.4770  1.0736  0.8835
   8823SM   H7T11781   7.031   5.809   5.226  0.8007 -0.2908  0.9964
   8823SM   C8S11782   7.088   5.679   5.397 -0.2836  0.0522  0.4228
   8823SM   H8S11783   7.187   5.729   5.411 -0.0523 -0.4825  0.7544
   8823SM   H8T11784   7.094   5.570   5.420  1.1714 -0.2437 -1.1539
   8823SM   C9S11785   7.001   5.742   5.500  0.2772 -0.5853  0.2156
   8823SM   H9S11786   6.900   5.696   5.487  0.5793 -1.3064  0.3657
   8823SM   H9T11787   6.993   5.851   5.482  1.6310  0.0400  2.8701
   8823SM  C10S11788   7.048   5.722   5.642 -0.4589 -0.2060 -0.1958
   8823SM  H10S11789   7.143   5.779   5.643 -0.1028 -0.7574  1.9938
   8823SM  H10T11790   7.071   5.618   5.675  0.4108  0.3693  1.0621
   8823SM  C11S11791   6.958   5.787   5.747  0.2725 -0.1391 -0.8594
   8823SM  H11S11792   6.853   5.756   5.737 -0.4892  2.2302 -0.9575
   8823SM  H11T11793   6.966   5.898   5.734 -1.3234  0.0478 -0.4184
   8823SM  C12S11794   6.997   5.748   5.893  0.2781 -0.2150 -0.0726
   8823SM  H12S11795   7.101   5.768   5.926  0.1734 -0.5881  0.4972
   8823SM  H12T11796   6.983   5.639   5.908  0.6123 -0.2333  0.1221
   8823SM  C13S11797   6.903   5.802   6.000  0.1705  0.3628 -0.1912
   8823SM  H13S11798   6.796   5.775   5.981  0.1475  1.2189 -1.4030
   8823SM  H13T11799   6.919   5.912   6.002 -0.3010  0.4344 -0.2179
   8823SM  C14S11800   6.942   5.750   6.145  0.1246  0.4884  0.6708
   8823SM  H14S11801   6.971   5.643   6.133  0.7294  0.5537  1.5505
   8823SM  H14T11802   6.859   5.750   6.218 -0.3986  0.4860  0.0885
   8823SM  C15S11803   7.050   5.841   6.206  0.2161  0.5720  0.5041
   8823SM  H15S11804   7.004   5.942   6.215 -2.0015 -0.4418  1.2480
   8823SM  H15T11805   7.131   5.861   6.133  1.1979  2.5090  2.0238
   8823SM  C16S11806   7.114   5.794   6.330 -0.0484  0.2229 -0.4969
   8823SM  H16S11807   7.152   5.689   6.332 -1.6924 -0.3882  1.0686
   8823SM  H16T11808   7.033   5.788   6.406  1.1448  0.4173  0.8296
   8823SM  C17S11809   7.206   5.889   6.404 -0.4055  0.2287  0.6868
   8823SM  H17S11810   7.158   5.989   6.410  0.1678  0.5348  0.2762
   8823SM  H17T11811   7.301   5.901   6.347 -1.1521  0.8002 -0.4932
   8823SM  C18S11812   7.244   5.840   6.539  0.0498  0.8368  0.3060
   8823SM  H18S11813   7.158   5.868   6.605 -0.7194 -0.3860 -0.1427
   8823SM  H18T11814   7.340   5.885   6.572  0.5144  0.3617 -0.3711
   8823SM  H18U11815   7.265   5.731   6.535 -1.3051  0.5918 -0.7217
   8823SM   C1F11816   7.289   5.946   4.663  1.1512  0.0058  0.3152
   8823SM    OF11817   7.227   6.049   4.626 -0.5080  0.4208 -0.2556
   8823SM   C2F11818   7.434   5.940   4.653  0.1226 -0.2257  0.4488
   8823SM   H2F11819   7.465   5.956   4.548  0.8870  1.2124  0.8695
   8823SM   H2G11820   7.469   5.839   4.684  3.3394  0.9312  0.8955
   8823SM   C3F11821   7.498   6.048   4.747 -0.5896  0.2417 -0.1852
   8823SM   H3F11822   7.467   6.150   4.715 -3.4163 -0.2737  0.6284
   8823SM   H3G11823   7.609   6.056   4.741 -0.7022  4.6734 -0.3634
   8823SM   C4F11824   7.472   6.023   4.895  0.1961  0.5162 -0.7804
   8823SM   H4F11825   7.373   5.980   4.921  0.1568  0.6946 -0.6370
   8823SM   H4G11826   7.460   6.121   4.946 -1.2025  0.8358 -1.6753
   8823SM   C5F11827   7.588   5.945   4.960 -0.0352 -0.3941 -0.4435
   8823SM   H5F11828   7.686   5.993   4.936 -0.0031 -0.5366 -0.6066
   8823SM   H5G11829   7.599   5.846   4.911 -0.7381  0.5512 -2.6400
   8823SM   C6F11830   7.573   5.917   5.105 -0.0494 -0.2795 -0.0457
   8823SM   H6F11831   7.494   5.840   5.117  1.1860 -1.2638  2.4354
   8823SM   H6G11832   7.542   6.007   5.162 -0.2933  0.0685 -0.7157
   8823SM   C7F11833   7.702   5.865   5.182 -0.4929  0.4724 -0.2668
   8823SM   H7F11834   7.771   5.952   5.193 -0.6328  0.4592  0.8845
   8823SM   H7G11835   7.740   5.777   5.127 -1.7750  0.5045 -1.2594
   8823SM   C8F11836   7.681   5.820   5.329  0.0779 -0.2498  0.0046
   8823SM   H8F11837   7.607   5.737   5.326  0.1147 -0.2803 -2.6118
   8823SM   H8G11838   7.634   5.908   5.378 -0.7160 -1.0424  0.6983
   8823SM   C9F11839   7.815   5.782   5.395 -0.6395  0.3483 -0.3202
   8823SM   H9F11840   7.879   5.873   5.393 -0.2039  0.0752  0.5823
   8823SM   H9G11841   7.867   5.700   5.342  0.8030 -0.5416  2.2704
   8823SM  C10F11842   7.802   5.737   5.541  0.0335  0.0987  0.8212
   8823SM  H10F11843   7.886   5.681   5.588  0.5673  1.5420  1.6481
   8823SM  H10G11844   7.722   5.659   5.542  0.5112 -0.4200  2.3978
   8823SM  C11F11845   7.776   5.858   5.636  0.0350  0.2684  0.4169
   8823SM  H11F11846   7.681   5.905   5.604 -0.9862 -0.1239  2.6986
   8823SM  H11G11847   7.853   5.937   5.622 -0.4720  0.6077 -0.5118
   8823SM  C12F11848   7.789   5.813   5.782  0.5033 -0.2871 -0.4338
   8823SM  H12F11849   7.893   5.774   5.785  1.1661  1.4602  0.7276
   8823SM  H12G11850   7.711   5.735   5.785  1.1650 -1.0065 -1.3284
   8823SM  C13F11851   7.747   5.927   5.884  0.3004  0.2716 -0.2319
   8823SM  H13F11852   7.648   5.967   5.855  0.2628  0.0003 -0.4830
   8823SM  H13G11853   7.814   6.015   5.873 -1.0295  1.1492 -1.6618
   8823SM  C14F11854   7.734   5.883   6.028 -0.1139  0.6354 -0.4553
   8823SM  H14F11855   7.833   5.846   6.061 -1.6616 -2.0596  1.5857
   8823SM  H14G11856   7.665   5.796   6.032  0.1854  0.4488  0.8854
   8823SM  C15F11857   7.681   5.997   6.107 -0.1883  0.1698  1.1852
   8823SM  H15F11858   7.575   6.015   6.082 -0.9162 -2.6462  1.8570
   8823SM  H15G11859   7.743   6.085   6.079  2.3304 -2.0118 -0.7136
   8823SM  C16F11860   7.693   5.978   6.259 -0.0983 -0.5759  0.8191
   8823SM  H16F11861   7.799   5.974   6.292  0.6152  0.3216 -1.2458
   8823SM  H16G11862   7.630   5.889   6.286  0.0824 -1.5066 -1.6142
   8823SM  C17F11863   7.637   6.101   6.327  0.3158  0.1365 -0.1337
   8823SM  H17F11864   7.540   6.121   6.277  0.5680 -0.9951 -1.1385
   8823SM  H17G11865   7.701   6.187   6.298  0.5022 -0.8288 -2.8414
   8823SM  C18F11866   7.589   6.086   6.474 -1.0103 -0.0094 -0.3998
   8823SM  H18F11867   7.508   6.012   6.486  1.0490 -2.0101  2.9009
   8823SM  H18G11868   7.555   6.191   6.487  1.2941  0.7553 -0.1158
   8823SM  C19F11869   7.707   6.060   6.567 -0.3224 -0.0995 -0.2107
   8823SM  H19F11870   7.794   6.118   6.530 -0.3696 -1.8251 -3.4021
   8823SM  H19G11871   7.752   5.959   6.560 -1.1301 -0.4542 -0.4689
   8823SM  C20F11872   7.672   6.081   6.713 -0.1051  0.1496  0.0143
   8823SM  H20F11873   7.660   6.191   6.724  1.4931  0.3324  0.2569
   8823SM  H20G11874   7.756   6.046   6.777 -1.1275 -2.1255  0.1939
   8823SM  C21F11875   7.544   6.019   6.755  0.9598 -0.0635 -0.5483
   8823SM  H21F11876   7.558   5.908   6.749  0.4529 -0.1173 -0.7893
   8823SM  H21G11877   7.464   6.049   6.683 -0.7691  0.7811  1.6082
   8823SM  C22F11878   7.507   6.049   6.906  0.1496  0.5600 -0.2260
   8823SM  H22F11879   7.489   6.157   6.923  1.7054  0.7836  0.1223
   8823SM  H22G11880   7.596   6.008   6.958  1.0706 -1.9979 -3.4744
   8823SM  C23F11881   7.380   5.971   6.949 -0.5682  0.1156  0.6147
   8823SM  H23F11882   7.381   5.862   6.927 -0.8759 -0.1377  1.7689
   8823SM  H23G11883   7.286   6.017   6.911 -0.0942 -0.8017 -1.8196
   8823SM  H23H11884   7.374   6.000   7.056  0.2681  0.8539  0.4735
   8923SM     N11885   4.778   6.607   4.174 -0.9460 -0.3030 -0.3319
   8923SM   C1511886   4.752   6.636   4.318 -0.0499 -0.4125  0.5342
   8923SM  H15A11887   4.834   6.691   4.360 -2.1790  2.3257  1.4029
   8923SM  H15B11888   4.732   6.543   4.369  1.1313 -0.8260  0.2742
   8923SM  H15C11889   4.670   6.706   4.322  1.1285  1.0736 -0.0456
   8923SM   C1411890   4.789   6.741   4.111 -0.5828 -0.0032  0.1000
   8923SM  H14A11891   4.845   6.740   4.019  2.6093  1.2876  1.8593
   8923SM  H14B11892   4.848   6.799   4.181 -0.0735 -2.0597  1.4822
   8923SM  H14C11893   4.696   6.792   4.094 -1.2539 -1.6153 -1.4145
   8923SM   C1311894   4.911   6.538   4.157 -0.1699  0.3555  1.0424
   8923SM  H13A11895   4.924   6.526   4.051 -1.9405 -3.4608  1.0768
   8923SM  H13B11896   4.903   6.435   4.191  0.5691  0.5079  1.7029
   8923SM  H13C11897   4.985   6.598   4.208 -0.2459  2.1838 -0.8748
   8923SM   C1211898   4.666   6.527   4.104 -1.1578 -0.3262 -0.1302
   8923SM  H12A11899   4.699   6.516   4.002  1.4322 -3.3504  0.8857
   8923SM  H12B11900   4.571   6.579   4.097 -0.3188  1.0744 -2.1649
   8923SM   C1111901   4.638   6.385   4.149 -0.2206 -0.6145 -0.2010
   8923SM  H11A11902   4.543   6.351   4.102 -0.8767 -0.9813  1.3287
   8923SM  H11B11903   4.624   6.395   4.259 -0.6299  0.3414 -0.3306
   8923SM     P11904   4.731   6.152   4.118 -0.1302  0.0073  0.4384
   8923SM   O1311905   4.602   6.109   4.057  0.1484 -0.4676 -0.0696
   8923SM   O1411906   4.853   6.097   4.062  0.2790  0.4607 -0.0537
   8923SM   O1111907   4.725   6.119   4.271  0.0940 -0.5748  0.3014
   8923SM   O1211908   4.744   6.308   4.108  0.0620 -0.3213  0.5466
   8923SM   C1S11909   4.801   6.195   4.367  0.0095  0.0214  0.5099
   8923SM   H1S11910   4.810   6.302   4.339 -0.5106 -0.4534 -1.6419
   8923SM   H1T11911   4.904   6.157   4.351 -0.8098 -1.5752 -1.5930
   8923SM    NF11912   4.834   6.241   4.599 -0.2692 -0.4512 -0.2492
   8923SM   HNF11913   4.889   6.208   4.676  1.0918  2.0621 -0.0336
   8923SM   C2S11914   4.756   6.158   4.510  0.2539 -0.0462  0.1754
   8923SM   H2S11915   4.649   6.186   4.513  0.3229  0.2058  0.3302
   8923SM   C3S11916   4.781   6.003   4.534  0.5070 -0.1733  0.0486
   8923SM   H3S11917   4.890   5.982   4.534  0.3046 -1.2314 -0.4280
   8923SM    O311918   4.719   5.916   4.441 -0.1723  0.2218  0.2959
   8923SM   HO311919   4.702   5.970   4.363  1.2064 -0.7102 -0.6902
   8923SM   C4S11920   4.719   5.978   4.670 -0.3112 -0.7649 -0.0261
   8923SM   H4S11921   4.611   5.993   4.682 -0.1547 -0.8731  1.7683
   8923SM   C5S11922   4.776   5.910   4.769  0.0571 -0.5775 -0.4920
   8923SM   H5S11923   4.872   5.859   4.754 -0.6173 -2.8689  2.1254
   8923SM   C6S11924   4.701   5.868   4.890  0.7643 -0.4086 -0.5904
   8923SM   H6S11925   4.729   5.765   4.921  0.1762 -0.0997  1.0454
   8923SM   H6T11926   4.590   5.869   4.876  0.9110 -2.1960 -2.3461
   8923SM   C7S11927   4.746   5.959   5.004  0.0729  0.4363 -0.6708
   8923SM   H7S11928   4.736   6.068   4.987  1.8569  1.1315  2.1015
   8923SM   H7T11929   4.855   5.946   5.019  0.4170  1.1532 -2.4259
   8923SM   C8S11930   4.683   5.918   5.137 -0.3356 -0.0608  0.3750
   8923SM   H8S11931   4.680   5.808   5.154  0.6997 -0.2683 -0.6320
   8923SM   H8T11932   4.577   5.951   5.131  0.5610  3.0597 -0.0386
   8923SM   C9S11933   4.750   5.996   5.249 -0.2666  0.4381  0.2799
   8923SM   H9S11934   4.755   6.103   5.220  1.5478 -0.2376 -2.2546
   8923SM   H9T11935   4.854   5.956   5.253 -0.5035 -0.3106 -0.7048
   8923SM  C10S11936   4.683   5.979   5.382 -0.3168  0.4981 -0.3119
   8923SM  H10S11937   4.681   5.870   5.402 -0.3013  0.9932  2.9087
   8923SM  H10T11938   4.578   6.015   5.388 -0.4596 -0.0938  1.1891
   8923SM  C11S11939   4.746   6.048   5.495  0.1498 -0.0008 -1.1751
   8923SM  H11S11940   4.721   6.155   5.511 -0.0360 -0.1346 -0.5240
   8923SM  H11T11941   4.854   6.025   5.498 -0.4104 -3.3374 -1.8097
   8923SM  C12S11942   4.698   5.978   5.626  0.0111 -0.1267 -0.2497
   8923SM  H12S11943   4.713   5.868   5.620 -0.2908 -0.1517 -0.5636
   8923SM  H12T11944   4.591   6.004   5.641  0.3133  1.4368 -0.6478
   8923SM  C13S11945   4.789   6.017   5.746 -0.3994  0.3876  0.4331
   8923SM  H13S11946   4.780   6.125   5.771 -0.6272  0.6875 -0.8813
   8923SM  H13T11947   4.891   5.993   5.708 -2.1668 -3.2069 -2.8663
   8923SM  C14S11948   4.761   5.929   5.863 -0.2398 -0.5370 -0.6358
   8923SM  H14S11949   4.784   5.826   5.831  0.0978 -0.4024 -0.8339
   8923SM  H14T11950   4.656   5.938   5.900  0.3216 -2.3053  1.6238
   8923SM  C15S11951   4.859   5.963   5.981 -0.4581 -0.3467 -0.7854
   8923SM  H15S11952   4.834   6.057   6.035 -1.7950 -1.8541  1.3918
   8923SM  H15T11953   4.959   5.966   5.932  0.2711 -2.4279  0.4466
   8923SM  C16S11954   4.853   5.862   6.097  0.5526  0.3044 -0.1113
   8923SM  H16S11955   4.850   5.762   6.049 -1.6383  1.6619 -3.1559
   8923SM  H16T11956   4.758   5.876   6.152  1.4226 -0.3122  1.6354
   8923SM  C17S11957   4.959   5.882   6.198 -0.1085  0.5499  0.0983
   8923SM  H17S11958   4.955   5.984   6.241 -2.3309  1.2613 -1.6541
   8923SM  H17T11959   5.045   5.871   6.129 -0.8545  1.4586 -1.0029
   8923SM  C18S11960   4.969   5.773   6.303 -0.6129 -0.4056 -0.0969
   8923SM  H18S11961   4.939   5.676   6.258 -1.0280  0.2618 -1.2882
   8923SM  H18T11962   4.903   5.789   6.391  0.3365 -2.6648  1.1087
   8923SM  H18U11963   5.075   5.771   6.336 -0.1768 -1.8062 -1.4814
   8923SM   C1F11964   4.819   6.376   4.608  0.0096  0.2890  0.3881
   8923SM    OF11965   4.729   6.430   4.552  0.2067 -0.1579  0.3168
   8923SM   C2F11966   4.911   6.449   4.704  1.2331 -0.2103  1.3532
   8923SM   H2F11967   5.009   6.426   4.657  0.5004 -1.9755  0.6242
   8923SM   H2G11968   4.895   6.402   4.804  1.6395 -1.3458  0.8952
   8923SM   C3F11969   4.903   6.599   4.705 -0.6473 -0.0029  0.1264
   8923SM   H3F11970   4.803   6.646   4.719 -0.4348  0.2930  0.7193
   8923SM   H3G11971   4.929   6.649   4.609 -3.1485  0.8171 -0.1942
   8923SM   C4F11972   4.986   6.659   4.825  0.7161  0.2115  0.6796
   8923SM   H4F11973   5.001   6.768   4.809  0.9305  0.2181  0.9186
   8923SM   H4G11974   5.087   6.615   4.813  0.2425 -0.5345 -0.9043
   8923SM   C5F11975   4.921   6.637   4.961  0.4196  0.0060 -0.5022
   8923SM   H5F11976   4.924   6.530   4.992  0.0527  0.9242  3.1266
   8923SM   H5G11977   4.811   6.652   4.963  0.6553  1.9266  0.4007
   8923SM   C6F11978   4.984   6.725   5.069 -0.3586  0.1687 -0.4545
   8923SM   H6F11979   5.003   6.831   5.043 -0.8489  1.0164  2.3030
   8923SM   H6G11980   5.087   6.688   5.088 -0.4791 -0.5474 -1.1643
   8923SM   C7F11981   4.903   6.722   5.198 -0.4299 -0.4706 -0.4431
   8923SM   H7F11982   4.862   6.621   5.217 -0.2658 -0.2657  1.0803
   8923SM   H7G11983   4.823   6.798   5.182  2.5779  2.5940 -2.4732
   8923SM   C8F11984   4.981   6.762   5.328 -0.2154 -0.2183 -0.3370
   8923SM   H8F11985   5.008   6.869   5.318 -1.7336  0.1097 -1.2770
   8923SM   H8G11986   5.080   6.711   5.330  0.5411  1.2022 -0.3862
   8923SM   C9F11987   4.908   6.730   5.462 -0.2172  0.7606 -0.5160
   8923SM   H9F11988   4.902   6.623   5.490  0.4386  1.1665  1.2856
   8923SM   H9G11989   4.802   6.760   5.443 -0.2975 -0.5216 -2.4078
   8923SM  C10F11990   4.991   6.785   5.582 -0.2430 -0.5288 -0.0106
   8923SM  H10F11991   5.015   6.891   5.560  0.3676 -0.1275  2.3156
   8923SM  H10G11992   5.088   6.731   5.585  0.7302  0.9066 -2.5119
   8923SM  C11F11993   4.921   6.781   5.720 -0.4210  0.0613  1.2291
   8923SM  H11F11994   4.825   6.836   5.707 -0.3373  0.1712  1.0675
   8923SM  H11G11995   4.985   6.839   5.789  0.1886  0.9156 -0.0135
   8923SM  C12F11996   4.914   6.644   5.791  0.4281  0.4501 -0.1540
   8923SM  H12F11997   5.017   6.603   5.792  0.5913  0.7302 -1.8084
   8923SM  H12G11998   4.850   6.583   5.724  1.5526 -0.5637 -0.3468
   8923SM  C13F11999   4.852   6.641   5.935  0.1053  0.1443  0.1602
   8923SM  H13F12000   4.746   6.667   5.918 -1.0569 -2.9667  1.9187
   8923SM  H13G12001   4.892   6.720   6.002  1.2331  0.5352 -0.9221
   8923SM  C14F12002   4.846   6.493   5.994  0.3339 -0.5308  0.5081
   8923SM  H14F12003   4.949   6.452   5.982  0.0973 -1.2481  0.8675
   8923SM  H14G12004   4.780   6.442   5.921 -0.1838 -0.6656  1.0596
   8923SM  C15F12005   4.777   6.485   6.129 -0.3293 -0.2810  0.2001
   8923SM  H15F12006   4.689   6.553   6.132 -0.5585 -0.6175  1.4803
   8923SM  H15G12007   4.844   6.537   6.202 -1.0055  1.8324 -0.6044
   8923SM  C16F12008   4.752   6.342   6.170 -0.0695  0.2581  0.4011
   8923SM  H16F12009   4.837   6.273   6.148 -0.5893 -0.2764  0.0218
   8923SM  H16G12010   4.676   6.288   6.109  2.1025 -0.6758 -1.6527
   8923SM  C17F12011   4.717   6.319   6.319  0.2690  0.2334  0.3188
   8923SM  H17F12012   4.809   6.338   6.379 -0.1487  2.4885  0.3207
   8923SM  H17G12013   4.694   6.216   6.354  1.7528  0.6630  2.8934
   8923SM  C18F12014   4.615   6.422   6.371  0.8979 -0.1074  0.2405
   8923SM  H18F12015   4.524   6.431   6.307  1.5679  0.9760 -0.5982
   8923SM  H18G12016   4.655   6.525   6.368 -0.3213  0.3737 -0.7080
   8923SM  C19F12017   4.576   6.378   6.515  0.1643  0.1985 -0.5027
   8923SM  H19F12018   4.670   6.343   6.563 -0.0873 -0.4977 -0.5006
   8923SM  H19G12019   4.509   6.289   6.510  0.3256 -0.1406  2.0537
   8923SM  C20F12020   4.523   6.494   6.591  0.5064 -0.4729  0.7115
   8923SM  H20F12021   4.439   6.541   6.536  1.3471 -0.4618 -0.6018
   8923SM  H20G12022   4.591   6.579   6.608 -1.5641  1.7756 -1.3937
   8923SM  C21F12023   4.481   6.458   6.731  0.3055 -0.2513 -0.7530
   8923SM  H21F12024   4.561   6.436   6.804 -1.0445 -0.0229  0.8365
   8923SM  H21G12025   4.409   6.373   6.730 -0.8080  0.6541  0.2641
   8923SM  C22F12026   4.398   6.570   6.806 -0.5562 -0.1020  0.1323
   8923SM  H22F12027   4.305   6.586   6.747 -0.6434 -0.7645  0.0800
   8923SM  H22G12028   4.456   6.664   6.801 -0.6318  0.1891  3.2794
   8923SM  C23F12029   4.338   6.530   6.948  0.4471 -0.8909  0.3703
   8923SM  H23F12030   4.418   6.487   7.012  0.9819  0.1151  0.3932
   8923SM  H23G12031   4.247   6.466   6.943 -1.2237  1.4604 -1.3339
   8923SM  H23H12032   4.299   6.622   6.995 -0.4018 -2.2055  2.3589
   9023SM     N12033   4.272   5.869   3.577  0.1095  0.4030 -0.3738
   9023SM   C1512034   4.187   5.764   3.508 -0.2723 -0.0853 -0.1281
   9023SM  H15A12035   4.199   5.787   3.403 -0.1416 -1.1503 -0.3636
   9023SM  H15B12036   4.085   5.775   3.541 -0.6778 -0.7987 -1.0724
   9023SM  H15C12037   4.221   5.665   3.534  0.1955  0.0668 -0.1611
   9023SM   C1412038   4.410   5.867   3.503 -0.1223  0.5877 -0.2305
   9023SM  H14A12039   4.468   5.951   3.538 -0.3758  1.3451 -1.5716
   9023SM  H14B12040   4.399   5.867   3.396 -0.6181  2.3290 -0.2231
   9023SM  H14C12041   4.454   5.774   3.533  0.1723  0.4447 -1.0934
   9023SM   C1312042   4.213   6.007   3.563 -0.7459  0.1562 -0.3335
   9023SM  H13A12043   4.282   6.074   3.612 -0.1545  0.0567 -1.0041
   9023SM  H13B12044   4.119   6.006   3.616  0.5139 -1.9838  2.0837
   9023SM  H13C12045   4.210   6.038   3.459  1.4900  0.0374 -0.4887
   9023SM   C1212046   4.290   5.843   3.720  0.0924  0.6607 -0.7470
   9023SM  H12A12047   4.199   5.873   3.771  1.0352  1.5086  0.5097
   9023SM  H12B12048   4.350   5.919   3.769  2.9253 -1.8566 -0.0038
   9023SM   C1112049   4.338   5.701   3.767 -1.0779 -0.1200  0.0401
   9023SM  H11A12050   4.287   5.618   3.714  0.8625 -0.6920 -1.0126
   9023SM  H11B12051   4.317   5.705   3.876 -0.4573  2.1368  0.1239
   9023SM     P12052   4.599   5.717   3.799  0.3394 -0.2162 -0.1696
   9023SM   O1312053   4.711   5.642   3.739  0.5236 -0.0161 -0.4106
   9023SM   O1412054   4.602   5.863   3.795 -0.1249  0.1618 -0.4802
   9023SM   O1112055   4.576   5.667   3.941 -0.3419 -0.6298 -0.3343
   9023SM   O1212056   4.468   5.677   3.727 -0.2098  0.3186  0.0819
   9023SM   C1S12057   4.557   5.758   4.054 -0.0835 -0.0155 -0.5107
   9023SM   H1S12058   4.446   5.764   4.058 -0.0355  1.0088 -0.4250
   9023SM   H1T12059   4.595   5.862   4.047  0.3985  0.1452  2.7362
   9023SM    NF12060   4.556   5.740   4.300  0.8297  0.5588 -0.4633
   9023SM   HNF12061   4.626   5.795   4.346  1.5170 -0.3789 -0.3544
   9023SM   C2S12062   4.609   5.681   4.179 -0.3656 -0.2759 -0.1926
   9023SM   H2S12063   4.566   5.578   4.182  3.9809 -2.2940  0.8350
   9023SM   C3S12064   4.767   5.674   4.176  0.3362 -0.1623 -0.3538
   9023SM   H3S12065   4.813   5.774   4.165 -1.3009  0.5018 -1.7404
   9023SM    O312066   4.832   5.613   4.067  0.3793 -0.5683  0.1078
   9023SM   HO312067   4.755   5.611   4.011  0.2822  0.2141  0.1958
   9023SM   C4S12068   4.806   5.613   4.309 -0.0100 -0.6344 -0.1898
   9023SM   H4S12069   4.799   5.691   4.387 -2.0649  3.0302 -3.6370
   9023SM   C5S12070   4.853   5.490   4.333  0.3276 -0.3758 -0.2469
   9023SM   H5S12071   4.859   5.430   4.241  0.9441 -0.2539 -0.2918
   9023SM   C6S12072   4.905   5.445   4.465  0.0704 -0.6941  0.7536
   9023SM   H6S12073   5.016   5.455   4.473 -0.0614 -0.2014  2.1431
   9023SM   H6T12074   4.884   5.336   4.458  1.8979 -1.0892  0.8013
   9023SM   C7S12075   4.846   5.502   4.592  0.6181 -0.8183 -0.0803
   9023SM   H7S12076   4.736   5.515   4.583  0.9222  0.8800 -2.3028
   9023SM   H7T12077   4.879   5.609   4.590 -0.0986 -0.6029 -1.1025
   9023SM   C8S12078   4.902   5.425   4.710  0.3495  0.0759 -0.6528
   9023SM   H8S12079   5.012   5.422   4.698  0.6906 -2.1000  2.1225
   9023SM   H8T12080   4.859   5.322   4.717 -1.1505  0.6105 -1.5709
   9023SM   C9S12081   4.872   5.487   4.848 -0.1943  0.5403 -0.5057
   9023SM   H9S12082   4.912   5.590   4.857  1.7428 -0.0184 -2.0147
   9023SM   H9T12083   4.937   5.427   4.916  1.8639  1.8718 -1.2155
   9023SM  C10S12084   4.729   5.476   4.892  0.2578 -0.0157  0.1657
   9023SM  H10S12085   4.679   5.377   4.880 -2.0204  1.0095  0.6820
   9023SM  H10T12086   4.666   5.542   4.830  0.0943 -1.4074 -1.2032
   9023SM  C11S12087   4.724   5.509   5.039  0.5845 -0.2249  0.5205
   9023SM  H11S12088   4.618   5.527   5.067  0.3856 -1.1033  0.3422
   9023SM  H11T12089   4.786   5.599   5.060 -0.4481  0.9250 -1.0970
   9023SM  C12S12090   4.766   5.394   5.137  0.6880 -0.8414 -0.8536
   9023SM  H12S12091   4.874   5.373   5.120  1.0641  1.0329 -1.0817
   9023SM  H12T12092   4.705   5.304   5.114 -1.2262  0.2010 -0.0681
   9023SM  C13S12093   4.747   5.431   5.289 -0.3127  0.9912 -0.0943
   9023SM  H13S12094   4.637   5.438   5.304 -0.2391 -0.7852  1.8009
   9023SM  H13T12095   4.796   5.529   5.300 -1.7612  1.8802 -1.1829
   9023SM  C14S12096   4.800   5.321   5.378  0.0546  0.6462 -0.5784
   9023SM  H14S12097   4.907   5.335   5.403  0.3779 -0.6452 -1.1606
   9023SM  H14T12098   4.799   5.217   5.338  0.9683  1.5923 -3.3427
   9023SM  C15S12099   4.717   5.308   5.515 -0.0019  0.0697  0.3965
   9023SM  H15S12100   4.617   5.266   5.493  0.6100 -1.6475  0.7513
   9023SM  H15T12101   4.703   5.413   5.547 -0.7205  0.0120  0.2799
   9023SM  C16S12102   4.784   5.223   5.616 -0.7029  0.2537  0.3833
   9023SM  H16S12103   4.877   5.270   5.654  0.1804 -1.3931  0.3308
   9023SM  H16T12104   4.821   5.133   5.564 -1.5282  1.2749 -2.1352
   9023SM  C17S12105   4.689   5.197   5.732  0.1529  0.2456  0.1933
   9023SM  H17S12106   4.587   5.192   5.689  0.5629 -0.1254 -0.7746
   9023SM  H17T12107   4.691   5.292   5.789 -0.2522 -0.1635  0.8922
   9023SM  C18S12108   4.731   5.070   5.805 -0.5136  0.1963  0.7157
   9023SM  H18S12109   4.814   5.089   5.877 -0.9636  0.9841  1.0285
   9023SM  H18T12110   4.772   4.987   5.742  1.1787  1.2740  0.3225
   9023SM  H18U12111   4.647   5.021   5.859  0.3699 -1.0197  1.0355
   9023SM   C1F12112   4.431   5.723   4.343 -0.8240  0.4408 -0.3757
   9023SM    OF12113   4.356   5.645   4.281 -0.6488  0.4287  0.4016
   9023SM   C2F12114   4.389   5.786   4.474 -0.6462  0.0461 -0.1088
   9023SM   H2F12115   4.392   5.896   4.464 -1.0093  0.2536  1.6772
   9023SM   H2G12116   4.458   5.759   4.557 -1.9461 -1.2133  0.6198
   9023SM   C3F12117   4.248   5.735   4.515 -0.0116 -0.0210  0.7246
   9023SM   H3F12118   4.240   5.627   4.490 -0.9818 -0.1343  1.4210
   9023SM   H3G12119   4.173   5.797   4.461  1.2252  0.7915 -0.0822
   9023SM   C4F12120   4.215   5.755   4.662 -0.3235  0.3228  0.8247
   9023SM   H4F12121   4.124   5.698   4.691 -0.2007 -0.4075 -0.2046
   9023SM   H4G12122   4.208   5.863   4.690  1.1032  0.7670 -0.4093
   9023SM   C5F12123   4.313   5.686   4.757 -0.7302 -0.2675  0.3392
   9023SM   H5F12124   4.416   5.727   4.746 -0.0107 -2.4331 -1.8808
   9023SM   H5G12125   4.324   5.580   4.728 -0.8063 -0.1077 -0.2944
   9023SM   C6F12126   4.272   5.688   4.908  0.0823 -0.0684  0.6341
   9023SM   H6F12127   4.187   5.618   4.910 -1.1545  1.3023 -1.0011
   9023SM   H6G12128   4.231   5.788   4.936  1.5873  0.0540  2.6917
   9023SM   C7F12129   4.379   5.649   5.008 -0.2270 -0.1598 -0.9888
   9023SM   H7F12130   4.469   5.711   4.990 -0.3730  0.4071  0.1879
   9023SM   H7G12131   4.403   5.543   4.984  0.9291  0.1277 -1.1319
   9023SM   C8F12132   4.334   5.670   5.153 -0.2189 -0.1507 -0.1404
   9023SM   H8F12133   4.232   5.632   5.175  0.4467 -0.8358  2.0284
   9023SM   H8G12134   4.341   5.780   5.169 -0.7092 -0.0331 -0.6908
   9023SM   C9F12135   4.417   5.593   5.256 -0.2209 -0.1559  0.4025
   9023SM   H9F12136   4.522   5.621   5.234 -0.9981  1.9682 -1.0158
   9023SM   H9G12137   4.403   5.484   5.237 -0.4193 -0.0623 -0.0181
   9023SM  C10F12138   4.411   5.657   5.396 -0.3226  0.1758  0.1902
   9023SM  H10F12139   4.303   5.660   5.422 -0.1913 -0.2564  0.8152
   9023SM  H10G12140   4.448   5.761   5.395  2.8006 -0.8171  1.2778
   9023SM  C11F12141   4.486   5.577   5.493 -0.3856  0.4698 -0.8482
   9023SM  H11F12142   4.596   5.587   5.476 -0.0234 -0.7954  0.5805
   9023SM  H11G12143   4.446   5.474   5.485 -0.2934 -0.1367  3.9406
   9023SM  C12F12144   4.462   5.621   5.633 -0.2556 -0.0709  0.1872
   9023SM  H12F12145   4.352   5.620   5.646 -0.4312 -2.7275 -0.8924
   9023SM  H12G12146   4.497   5.725   5.652  0.8514 -0.3515 -0.2280
   9023SM  C13F12147   4.526   5.515   5.737  0.3569 -0.9519 -0.6204
   9023SM  H13F12148   4.636   5.503   5.721  1.1802 -0.1302  3.3259
   9023SM  H13G12149   4.478   5.419   5.712 -0.3678 -0.4432 -1.2190
   9023SM  C14F12150   4.503   5.534   5.888 -0.1628  0.3378  0.1688
   9023SM  H14F12151   4.408   5.593   5.891 -1.3077 -1.2717 -1.9853
   9023SM  H14G12152   4.579   5.607   5.926 -0.7964  1.6714 -1.0172
   9023SM  C15F12153   4.485   5.411   5.978  0.4791 -0.0880 -0.2978
   9023SM  H15F12154   4.576   5.347   5.973  1.7784  1.6996 -0.3343
   9023SM  H15G12155   4.389   5.369   5.942  0.4142  1.2212 -1.7187
   9023SM  C16F12156   4.470   5.441   6.131  0.1434  0.3355 -0.5025
   9023SM  H16F12157   4.432   5.347   6.177  0.3101  0.1417 -0.7608
   9023SM  H16G12158   4.382   5.507   6.144 -0.8516 -0.9261 -0.6095
   9023SM  C17F12159   4.591   5.508   6.200 -0.6703  0.7614  0.5889
   9023SM  H17F12160   4.622   5.588   6.130  0.9230 -0.8357 -0.6108
   9023SM  H17G12161   4.681   5.444   6.208  0.1585  1.9844  1.4205
   9023SM  C18F12162   4.539   5.568   6.332 -0.2990  0.3660  0.5386
   9023SM  H18F12163   4.511   5.492   6.408  1.6676 -0.8644  0.0927
   9023SM  H18G12164   4.460   5.639   6.298 -0.2818  0.5541  0.8944
   9023SM  C19F12165   4.640   5.667   6.392 -0.2570 -0.1897  0.0411
   9023SM  H19F12166   4.667   5.733   6.307 -0.9742 -0.0715 -0.0988
   9023SM  H19G12167   4.740   5.621   6.407 -0.4705 -0.5734  0.2981
   9023SM  C20F12168   4.590   5.737   6.521 -0.3552  0.3093 -0.2173
   9023SM  H20F12169   4.578   5.663   6.603 -0.4754 -1.6561 -1.8982
   9023SM  H20G12170   4.489   5.775   6.496 -0.5336  0.2618  0.4301
   9023SM  C21F12171   4.674   5.855   6.570  0.4216 -0.2502 -0.6048
   9023SM  H21F12172   4.685   5.924   6.483  2.1138  1.6567  1.0135
   9023SM  H21G12173   4.773   5.826   6.611  1.0911  1.5971 -0.8099
   9023SM  C22F12174   4.604   5.933   6.684  0.4066  0.6594 -0.0094
   9023SM  H22F12175   4.612   5.863   6.770 -0.6814 -0.6368 -0.9059
   9023SM  H22G12176   4.495   5.946   6.670  0.6825  1.6691 -1.4182
   9023SM  C23F12177   4.669   6.065   6.716 -0.2562 -0.4292 -0.4417
   9023SM  H23F12178   4.641   6.115   6.812  0.1026  1.3105 -1.2035
   9023SM  H23G12179   4.641   6.140   6.639 -2.1495 -0.8360 -0.1993
   9023SM  H23H12180   4.779   6.054   6.703 -0.2255 -0.3271 -0.2786
   9123SM     N12181   6.604   1.684   3.539  0.4115 -0.3771  0.0412
   9123SM   C1512182   6.641   1.667   3.672  0.7558  1.4826 -0.4785
   9123SM  H15A12183   6.740   1.635   3.698  0.2813 -0.5993 -1.0380
   9123SM  H15B12184   6.581   1.594   3.724 -0.6471  2.1639 -1.0652
   9123SM  H15C12185   6.621   1.759   3.725 -1.5301  0.1797  1.0990
   9123SM   C1412186   6.663   1.568   3.446 -0.1717 -0.2584  0.2625
   9123SM  H14A12187   6.765   1.556   3.476  0.1052  0.1807 -0.4721
   9123SM  H14B12188   6.657   1.603   3.344 -2.2563  1.0764  0.7661
   9123SM  H14C12189   6.618   1.471   3.458  0.4452 -0.4824  0.8282
   9123SM   C1312190   6.452   1.682   3.532  0.4687 -0.0074 -0.6383
   9123SM  H13A12191   6.422   1.583   3.564  4.2300 -1.3545 -0.8163
   9123SM  H13B12192   6.418   1.698   3.430  0.8019  0.5789 -0.6604
   9123SM  H13C12193   6.415   1.760   3.597  1.4372 -0.3961  0.4014
   9123SM   C1212194   6.651   1.812   3.482  0.9603 -0.1821  0.7870
   9123SM  H12A12195   6.624   1.817   3.378  0.0074  0.8346  1.0614
   9123SM  H12B12196   6.759   1.817   3.491  1.0354 -1.6754  0.9335
   9123SM   C1112197   6.585   1.943   3.548  0.1431  0.2433 -0.4772
   9123SM  H11A12198   6.483   1.961   3.509  0.6904  1.4040 -1.4607
   9123SM  H11B12199   6.651   2.017   3.498 -0.9085  1.1684 -0.5449
   9123SM     P12200   6.721   2.010   3.748 -0.3244  0.3389 -0.2822
   9123SM   O1312201   6.835   1.915   3.735 -0.4591  0.0953 -0.1434
   9123SM   O1412202   6.735   2.139   3.687 -0.5708 -0.3275  0.3530
   9123SM   O1112203   6.677   2.014   3.895  0.4283 -0.0173 -0.5397
   9123SM   O1212204   6.590   1.944   3.688 -0.3832  0.3005  0.0585
   9123SM   C1S12205   6.611   1.895   3.958  0.3485 -1.0555 -0.1998
   9123SM   H1S12206   6.617   1.802   3.897  1.5254  0.1813 -2.0930
   9123SM   H1T12207   6.500   1.902   3.966 -0.0189 -2.3885 -2.8960
   9123SM    NF12208   6.653   1.731   4.141  0.0621 -0.2987  0.5121
   9123SM   HNF12209   6.589   1.717   4.216 -2.2404 -0.0029 -1.2544
   9123SM   C2S12210   6.667   1.875   4.099  0.2234  0.0193  0.9832
   9123SM   H2S12211   6.772   1.910   4.096  0.9306 -1.9249  1.5834
   9123SM   C3S12212   6.590   1.975   4.192  0.0679 -1.1448  0.4881
   9123SM   H3S12213   6.483   1.949   4.174  0.0073 -0.1328 -0.7509
   9123SM    O312214   6.605   2.111   4.147 -0.2907  0.0365 -0.1029
   9123SM   HO312215   6.632   2.108   4.055  1.0873 -0.2582  0.2826
   9123SM   C4S12216   6.618   1.957   4.338  0.3560  0.3693 -0.6238
   9123SM   H4S12217   6.702   2.011   4.384  0.0243  0.4559 -0.1034
   9123SM   C5S12218   6.529   1.891   4.417 -0.5506  0.4481  0.3887
   9123SM   H5S12219   6.438   1.848   4.373 -1.1979  0.8034  1.3441
   9123SM   C6S12220   6.543   1.850   4.564  0.6447  0.5628 -0.1161
   9123SM   H6S12221   6.530   1.741   4.577 -1.0481  0.7493  0.0034
   9123SM   H6T12222   6.456   1.899   4.613  0.4252 -2.3662  2.7422
   9123SM   C7S12223   6.652   1.907   4.649 -0.1226 -0.1658 -0.5396
   9123SM   H7S12224   6.641   2.017   4.652  3.2685  0.2851 -0.3181
   9123SM   H7T12225   6.754   1.889   4.609 -0.8404  1.3263 -3.2653
   9123SM   C8S12226   6.643   1.857   4.795  0.0263 -0.4142  0.7008
   9123SM   H8S12227   6.649   1.747   4.782 -0.9641 -0.2607 -1.8066
   9123SM   H8T12228   6.539   1.879   4.827 -0.1842 -0.0639 -0.1874
   9123SM   C9S12229   6.741   1.908   4.898  0.1009 -0.6240 -0.4633
   9123SM   H9S12230   6.751   2.019   4.892  2.9820 -0.8283 -1.3224
   9123SM   H9T12231   6.843   1.868   4.879  0.4445 -0.1400  0.3281
   9123SM  C10S12232   6.706   1.849   5.033 -0.3413  0.2454 -0.8252
   9123SM  H10S12233   6.718   1.738   5.025  4.0120  0.5975 -1.5688
   9123SM  H10T12234   6.600   1.866   5.062 -0.5694 -0.9154 -0.8990
   9123SM  C11S12235   6.802   1.902   5.145  0.0013 -0.5237  0.4334
   9123SM  H11S12236   6.779   2.009   5.164  0.6849 -0.5107  1.2721
   9123SM  H11T12237   6.907   1.896   5.108 -0.3856 -0.4073 -0.7410
   9123SM  C12S12238   6.799   1.820   5.275  0.2816 -0.0811 -0.0048
   9123SM  H12S12239   6.825   1.714   5.251  0.7930  0.1626 -0.5689
   9123SM  H12T12240   6.692   1.825   5.301 -0.1923 -0.4774 -1.7377
   9123SM  C13S12241   6.881   1.873   5.390  0.1097 -0.0290  0.2451
   9123SM  H13S12242   6.850   1.980   5.397 -1.0304 -0.3038 -0.3199
   9123SM  H13T12243   6.990   1.855   5.374 -0.0287  0.9865 -2.3802
   9123SM  C14S12244   6.847   1.820   5.534 -0.1598  0.4569  0.5075
   9123SM  H14S12245   6.882   1.715   5.544  2.0526  1.0276 -0.5321
   9123SM  H14T12246   6.739   1.816   5.561 -0.6102 -2.4652 -1.3651
   9123SM  C15S12247   6.928   1.901   5.640  0.1048  0.4004 -0.0096
   9123SM  H15S12248   6.898   2.007   5.620 -0.5249  0.7609  2.4350
   9123SM  H15T12249   7.036   1.883   5.623 -0.3633 -4.6200  0.7848
   9123SM  C16S12250   6.871   1.870   5.782  0.2596  0.6269  0.5476
   9123SM  H16S12251   6.875   1.760   5.790 -2.1491  0.2867 -1.6761
   9123SM  H16T12252   6.762   1.889   5.785 -0.1300 -1.3964  0.3737
   9123SM  C17S12253   6.938   1.944   5.898  0.7157 -0.5568  0.1646
   9123SM  H17S12254   6.902   1.885   5.985 -1.9287 -2.8688 -2.2961
   9123SM  H17T12255   6.898   2.047   5.894  1.5871 -0.2313 -3.3031
   9123SM  C18S12256   7.094   1.967   5.907  0.1652  0.5308  0.8236
   9123SM  H18S12257   7.159   1.887   5.866  0.5997  1.2438  0.0973
   9123SM  H18T12258   7.123   1.991   6.012  2.3430  1.1139  0.1362
   9123SM  H18U12259   7.122   2.063   5.858 -3.1397  1.3633  0.3409
   9123SM   C1F12260   6.722   1.632   4.089  0.7715  0.2926  0.3169
   9123SM    OF12261   6.816   1.665   4.019 -0.3945  0.0944  0.8945
   9123SM   C2F12262   6.692   1.485   4.109 -0.0268  0.5549 -0.6661
   9123SM   H2F12263   6.789   1.432   4.122 -1.0783 -1.1798  0.6518
   9123SM   H2G12264   6.644   1.440   4.020 -2.2576  0.3148  0.5864
   9123SM   C3F12265   6.605   1.456   4.236 -0.2665 -0.3481 -0.7200
   9123SM   H3F12266   6.588   1.346   4.234 -2.7564 -0.0123 -2.4644
   9123SM   H3G12267   6.510   1.512   4.227 -0.3757 -0.2700  0.8117
   9123SM   C4F12268   6.688   1.480   4.367  0.1583 -0.1993  0.3489
   9123SM   H4F12269   6.727   1.584   4.375  1.9192 -0.7120 -0.9607
   9123SM   H4G12270   6.784   1.424   4.364 -0.3852 -1.1920  0.9626
   9123SM   C5F12271   6.607   1.452   4.498  0.4142 -0.3317  0.2352
   9123SM   H5F12272   6.565   1.353   4.471 -1.3600  0.8095 -1.4321
   9123SM   H5G12273   6.517   1.514   4.520  0.9085  0.0831  1.1814
   9123SM   C6F12274   6.701   1.458   4.620 -0.3386 -0.0537  1.1378
   9123SM   H6F12275   6.747   1.560   4.617  2.4036 -1.1951  0.7300
   9123SM   H6G12276   6.784   1.384   4.621 -1.3821 -1.2946 -0.5604
   9123SM   C7F12277   6.624   1.443   4.752  0.1460  0.5008 -0.5322
   9123SM   H7F12278   6.578   1.343   4.756  1.1620 -0.1206 -2.7303
   9123SM   H7G12279   6.542   1.518   4.748 -0.7598 -0.5101 -3.3735
   9123SM   C8F12280   6.709   1.462   4.876  0.2072 -0.1658 -0.1154
   9123SM   H8F12281   6.719   1.571   4.894 -0.4039 -0.0612 -0.3781
   9123SM   H8G12282   6.810   1.415   4.869  1.2407  1.7080  1.4182
   9123SM   C9F12283   6.648   1.411   5.001  0.2751  0.0228 -0.2923
   9123SM   H9F12284   6.671   1.303   5.014 -0.5692 -0.2402 -0.9297
   9123SM   H9G12285   6.538   1.426   5.011  0.4594  0.4775  1.4845
   9123SM  C10F12286   6.708   1.474   5.134  0.1373  0.3916  0.1586
   9123SM  H10F12287   6.686   1.582   5.140 -0.5508  0.2089  1.2414
   9123SM  H10G12288   6.817   1.456   5.132  0.1318  0.3109  0.4321
   9123SM  C11F12289   6.662   1.399   5.264  0.3418 -0.0959 -0.2781
   9123SM  H11F12290   6.689   1.292   5.253 -1.3541 -0.4471 -1.6366
   9123SM  H11G12291   6.551   1.388   5.261  0.4460 -1.0639 -1.3888
   9123SM  C12F12292   6.726   1.444   5.400  0.2270  0.4305  0.0794
   9123SM  H12F12293   6.693   1.547   5.425 -0.6306 -0.0865  1.1461
   9123SM  H12G12294   6.833   1.449   5.370  0.2588 -2.2912 -0.5214
   9123SM  C13F12295   6.701   1.339   5.511 -0.0516  0.0806 -0.0174
   9123SM  H13F12296   6.716   1.234   5.479 -0.0740 -0.0879  0.5105
   9123SM  H13G12297   6.593   1.342   5.536 -0.3626  1.1621 -1.3998
   9123SM  C14F12298   6.782   1.360   5.644  1.2400 -0.4179  0.2531
   9123SM  H14F12299   6.800   1.468   5.661 -2.5205  0.4952 -0.5713
   9123SM  H14G12300   6.879   1.306   5.634  0.6383 -1.4562 -0.2512
   9123SM  C15F12301   6.717   1.300   5.762 -0.6807  0.0244 -0.4856
   9123SM  H15F12302   6.711   1.189   5.748  0.9093  0.0268 -1.3718
   9123SM  H15G12303   6.611   1.330   5.774 -0.6766 -0.8612  2.7378
   9123SM  C16F12304   6.796   1.323   5.899  0.8030 -0.2124  0.3004
   9123SM  H16F12305   6.815   1.431   5.918  0.7111 -0.2064  0.3596
   9123SM  H16G12306   6.901   1.291   5.880  0.9798  1.1896 -1.2487
   9123SM  C17F12307   6.716   1.260   6.022 -0.0243 -0.7501 -0.2067
   9123SM  H17F12308   6.723   1.149   6.022 -1.9862 -0.9095 -0.9216
   9123SM  H17G12309   6.607   1.281   6.021 -0.0037 -0.2702  1.9685
   9123SM  C18F12310   6.770   1.316   6.157 -0.1670 -0.2519 -0.4300
   9123SM  H18F12311   6.757   1.427   6.157  0.0066 -0.1816  2.3198
   9123SM  H18G12312   6.878   1.293   6.168 -0.1589 -0.2800 -0.5586
   9123SM  C19F12313   6.702   1.257   6.278 -0.4284  0.5310 -0.0577
   9123SM  H19F12314   6.707   1.149   6.255 -2.4197  0.3539  0.1925
   9123SM  H19G12315   6.593   1.277   6.279 -1.0139 -2.2958  1.4743
   9123SM  C20F12316   6.771   1.305   6.402 -0.8173  0.3764 -0.4966
   9123SM  H20F12317   6.755   1.414   6.419  0.1628  0.4229  0.2741
   9123SM  H20G12318   6.879   1.289   6.381 -1.3173 -1.4558 -1.9181
   9123SM  C21F12319   6.723   1.229   6.524  0.4354  0.2226  0.0398
   9123SM  H21F12320   6.619   1.257   6.551 -0.2137 -1.2295 -0.7755
   9123SM  H21G12321   6.781   1.255   6.615  1.9399 -1.7829 -0.2576
   9123SM  C22F12322   6.732   1.075   6.504  0.4862 -0.4789 -0.5270
   9123SM  H22F12323   6.836   1.043   6.482  1.0782 -0.0435  1.4142
   9123SM  H22G12324   6.661   1.043   6.425 -2.1962  2.4684  0.4510
   9123SM  C23F12325   6.699   0.999   6.635  0.3778  0.3348 -0.0081
   9123SM  H23F12326   6.667   0.895   6.613  0.5050 -0.2233  2.2700
   9123SM  H23G12327   6.609   1.052   6.674 -0.3175  0.2587 -1.4286
   9123SM  H23H12328   6.778   0.999   6.713 -0.2109 -1.1920  0.6173
   9223SM     N12329   5.144   4.802   3.470 -0.7915 -0.4551  0.7334
   9223SM   C1512330   5.026   4.774   3.383  0.3647  0.4931 -0.5223
   9223SM  H15A12331   4.943   4.738   3.442  1.7162 -1.2264  0.4301
   9223SM  H15B12332   5.043   4.688   3.319 -1.1358 -0.7984  0.7165
   9223SM  H15C12333   5.001   4.864   3.329  0.0223  0.5408 -0.2884
   9223SM   C1412334   5.197   4.673   3.531  0.1039 -0.6555 -0.6901
   9223SM  H14A12335   5.214   4.593   3.461  1.3441  0.2088 -1.4177
   9223SM  H14B12336   5.124   4.637   3.603  1.8614 -0.0055  1.5409
   9223SM  H14C12337   5.284   4.700   3.589 -1.0733  0.5113  0.6151
   9223SM   C1312338   5.256   4.860   3.384 -0.3271  0.5066 -0.4576
   9223SM  H13A12339   5.279   4.793   3.302  0.3594 -1.0547  0.9488
   9223SM  H13B12340   5.351   4.871   3.435  0.0723 -3.8022  0.0856
   9223SM  H13C12341   5.217   4.954   3.350  0.2987  0.4847 -1.2525
   9223SM   C1212342   5.103   4.907   3.574 -0.0291 -0.3665 -0.3337
   9223SM  H12A12343   5.061   4.987   3.515  3.8360  2.3571  0.1873
   9223SM  H12B12344   5.192   4.944   3.624  1.0380  0.2006 -2.5137
   9223SM   C1112345   5.002   4.880   3.694  0.6095  0.5036  0.5174
   9223SM  H11A12346   4.903   4.860   3.646  0.7711  0.8648  0.0204
   9223SM  H11B12347   4.990   4.980   3.741 -3.4907 -0.1013  1.1510
   9223SM     P12348   5.133   4.820   3.910 -0.0599 -0.0057 -0.0703
   9223SM   O1312349   5.222   4.702   3.936 -0.1542 -0.5476  0.4283
   9223SM   O1412350   5.195   4.949   3.881 -0.0053  0.0431 -0.4330
   9223SM   O1112351   5.029   4.848   4.028 -0.2902 -0.2331  0.0630
   9223SM   O1212352   5.036   4.783   3.789  0.3589 -0.2016  0.1189
   9223SM   C1S12353   4.898   4.808   4.014  0.3699 -0.2112 -0.0467
   9223SM   H1S12354   4.895   4.697   4.011  0.1916 -0.2160  0.3116
   9223SM   H1T12355   4.845   4.852   3.927 -1.0242 -0.7991  0.4717
   9223SM    NF12356   4.688   4.791   4.146 -0.1686 -1.0271  0.0813
   9223SM   HNF12357   4.609   4.823   4.094  1.5657  1.1057 -1.4190
   9223SM   C2S12358   4.804   4.867   4.129 -0.5047 -0.3355  0.4448
   9223SM   H2S12359   4.855   4.871   4.227 -0.9791 -1.4819  0.7463
   9223SM   C3S12360   4.789   5.018   4.091  0.4666 -0.0377  0.1865
   9223SM   H3S12361   4.757   5.039   3.987  1.9316  1.1170 -0.0674
   9223SM    O312362   4.920   5.083   4.102 -0.2850 -0.2211  0.5714
   9223SM   HO312363   4.989   5.017   4.093  0.3509  0.6387 -1.6039
   9223SM   C4S12364   4.700   5.092   4.185  0.3264 -0.3748 -0.6399
   9223SM   H4S12365   4.745   5.127   4.279  0.4618 -0.4933 -0.6610
   9223SM   C5S12366   4.569   5.115   4.154  0.3888  0.1874  0.2760
   9223SM   H5S12367   4.522   5.088   4.058  0.7143  2.7471 -0.6830
   9223SM   C6S12368   4.472   5.186   4.244  0.3499  0.1528  0.2103
   9223SM   H6S12369   4.394   5.121   4.290 -1.4936  2.4553  0.5052
   9223SM   H6T12370   4.425   5.269   4.187  0.8569 -0.1474 -0.6759
   9223SM   C7S12371   4.538   5.254   4.368 -0.0858  0.3126 -0.1496
   9223SM   H7S12372   4.629   5.310   4.340 -0.4765  1.7836  1.3378
   9223SM   H7T12373   4.566   5.169   4.434  0.8229  0.1166 -0.7750
   9223SM   C8S12374   4.454   5.368   4.436 -0.2963  0.2576 -0.1653
   9223SM   H8S12375   4.385   5.404   4.357 -3.0894 -2.4766  0.8156
   9223SM   H8T12376   4.525   5.442   4.477 -1.2809 -0.0158  2.1943
   9223SM   C9S12377   4.373   5.323   4.560 -0.2942 -0.2987  0.1356
   9223SM   H9S12378   4.311   5.238   4.525  0.6619 -0.8197 -0.3281
   9223SM   H9T12379   4.310   5.404   4.602  0.6608 -0.2476  1.5573
   9223SM  C10S12380   4.456   5.265   4.679  0.3625 -0.1872  0.5659
   9223SM  H10S12381   4.547   5.327   4.691 -0.2595  1.0020 -0.6175
   9223SM  H10T12382   4.483   5.160   4.655 -3.2464 -1.0071 -0.6642
   9223SM  C11S12383   4.364   5.243   4.797  0.2943  0.0611  0.2578
   9223SM  H11S12384   4.288   5.165   4.776  0.8673 -0.5920  0.5570
   9223SM  H11T12385   4.313   5.336   4.832 -1.8080 -0.8424 -0.2411
   9223SM  C12S12386   4.435   5.182   4.928  0.4720 -0.5155  0.9560
   9223SM  H12S12387   4.528   5.239   4.943  0.2023 -0.2127  1.5248
   9223SM  H12T12388   4.451   5.075   4.902 -0.8321 -0.8420  1.3932
   9223SM  C13S12389   4.351   5.181   5.055  0.2784  0.1650  0.1279
   9223SM  H13S12390   4.250   5.143   5.029  0.9101 -0.9313 -0.8142
   9223SM  H13T12391   4.343   5.289   5.079  0.0807  0.2404 -0.2711
   9223SM  C14S12392   4.419   5.112   5.170  0.9697 -0.3854  0.3080
   9223SM  H14S12393   4.521   5.155   5.174 -0.0337  2.1306  0.9310
   9223SM  H14T12394   4.415   5.003   5.151 -0.0934 -0.5526  1.3296
   9223SM  C15S12395   4.343   5.157   5.297 -0.4915 -0.8188 -0.0020
   9223SM  H15S12396   4.234   5.151   5.277 -0.6242 -1.5288  0.8625
   9223SM  H15T12397   4.372   5.261   5.319 -0.0449 -0.5459 -1.7422
   9223SM  C16S12398   4.362   5.063   5.418 -0.1591  0.3645 -0.3642
   9223SM  H16S12399   4.471   5.043   5.418 -0.4165 -1.2004 -0.0789
   9223SM  H16T12400   4.310   4.967   5.401 -0.8501  0.3542  1.5622
   9223SM  C17S12401   4.310   5.112   5.556 -0.4627  0.4936 -0.0830
   9223SM  H17S12402   4.201   5.114   5.540 -0.5811  1.8363  0.7719
   9223SM  H17T12403   4.337   5.220   5.565 -0.5912  0.5366 -0.1957
   9223SM  C18S12404   4.349   5.021   5.672 -0.1052 -0.2373 -0.7651
   9223SM  H18S12405   4.329   4.914   5.648 -2.5227  0.1979 -0.9658
   9223SM  H18T12406   4.285   5.050   5.758 -1.0415 -0.0377 -1.5138
   9223SM  H18U12407   4.456   5.040   5.695 -0.9317  3.1679  0.8824
   9223SM   C1F12408   4.692   4.663   4.193  0.1909 -0.3379  0.1779
   9223SM    OF12409   4.795   4.607   4.231  0.4565 -0.4019  0.2941
   9223SM   C2F12410   4.561   4.593   4.175 -0.1354  0.0961 -0.0147
   9223SM   H2F12411   4.585   4.498   4.122 -2.6486 -0.8792  0.4503
   9223SM   H2G12412   4.493   4.641   4.101  0.2272  0.1795 -0.2965
   9223SM   C3F12413   4.497   4.559   4.314  0.1018  0.2350  0.0292
   9223SM   H3F12414   4.548   4.468   4.351 -2.1153 -1.2707 -0.4250
   9223SM   H3G12415   4.394   4.530   4.285 -0.4515  2.2486 -0.2230
   9223SM   C4F12416   4.495   4.666   4.425  1.0283 -0.7316 -1.2778
   9223SM   H4F12417   4.440   4.752   4.383  3.2922  0.8558 -1.1627
   9223SM   H4G12418   4.599   4.700   4.447 -0.4349  1.7654  3.0677
   9223SM   C5F12419   4.435   4.617   4.560 -0.4952 -0.1854  0.5400
   9223SM   H5F12420   4.490   4.524   4.587 -1.2477 -0.8134 -0.0356
   9223SM   H5G12421   4.326   4.593   4.553 -1.0484  0.7567  4.1630
   9223SM   C6F12422   4.456   4.716   4.675 -0.1650 -0.1168 -0.1566
   9223SM   H6F12423   4.393   4.804   4.652 -0.7067 -0.8681 -1.7309
   9223SM   H6G12424   4.561   4.743   4.699  0.2876 -0.5437 -1.5306
   9223SM   C7F12425   4.410   4.657   4.813 -0.4581  0.7725  0.9882
   9223SM   H7F12426   4.468   4.566   4.840  2.5320  2.3080  0.1616
   9223SM   H7G12427   4.301   4.644   4.797 -0.0000 -1.5386 -0.9242
   9223SM   C8F12428   4.454   4.749   4.929  0.7346  0.0286  0.1619
   9223SM   H8F12429   4.411   4.850   4.909 -3.7362 -1.8127 -0.5795
   9223SM   H8G12430   4.565   4.756   4.924  0.6315  1.1850 -1.5413
   9223SM   C9F12431   4.404   4.706   5.068 -0.3104 -0.6117 -1.0065
   9223SM   H9F12432   4.423   4.791   5.136 -0.2160 -0.7582 -0.8496
   9223SM   H9G12433   4.464   4.621   5.107 -0.5454 -0.3129  0.0265
   9223SM  C10F12434   4.251   4.672   5.065 -0.4386 -1.0197  0.0655
   9223SM  H10F12435   4.249   4.564   5.037 -0.9207 -1.1552  0.6027
   9223SM  H10G12436   4.208   4.730   4.982 -1.6310 -0.7665  0.8405
   9223SM  C11F12437   4.189   4.712   5.197 -0.3746 -0.3380 -0.4234
   9223SM  H11F12438   4.078   4.719   5.189 -0.6144  3.2668  3.0362
   9223SM  H11G12439   4.220   4.816   5.217  1.7531 -1.2887  1.6038
   9223SM  C12F12440   4.238   4.638   5.319  0.1168 -0.3488 -0.4795
   9223SM  H12F12441   4.347   4.652   5.335 -0.0011 -0.6556  0.6532
   9223SM  H12G12442   4.229   4.528   5.308  1.8208 -0.3496 -2.4757
   9223SM  C13F12443   4.175   4.689   5.455  0.0978  0.2302 -0.1044
   9223SM  H13F12444   4.068   4.703   5.429 -0.0335 -1.0062 -0.2803
   9223SM  H13G12445   4.214   4.792   5.471  1.9808 -0.4269 -0.2765
   9223SM  C14F12446   4.206   4.606   5.585  0.3196  0.1515 -0.0635
   9223SM  H14F12447   4.317   4.607   5.590  0.3994 -0.0242 -1.3828
   9223SM  H14G12448   4.174   4.500   5.574 -1.0393  0.2076  2.5993
   9223SM  C15F12449   4.146   4.671   5.716 -0.2386  0.3357 -0.0774
   9223SM  H15F12450   4.040   4.638   5.727 -0.0503  0.6027  4.9225
   9223SM  H15G12451   4.155   4.781   5.707  0.4369  0.3607  0.7734
   9223SM  C16F12452   4.208   4.625   5.846  0.8176 -0.3965  0.1356
   9223SM  H16F12453   4.319   4.630   5.839  0.9568 -1.1113  1.4046
   9223SM  H16G12454   4.173   4.519   5.846 -0.5054  0.0151  0.4776
   9223SM  C17F12455   4.163   4.704   5.964  0.1908  0.2457 -0.2352
   9223SM  H17F12456   4.054   4.719   5.950  0.4714  2.0109 -0.6966
   9223SM  H17G12457   4.212   4.803   5.966 -0.0286  0.3769 -0.9598
   9223SM  C18F12458   4.175   4.612   6.086  0.2058  0.1500 -0.0307
   9223SM  H18F12459   4.280   4.576   6.085 -0.2583 -1.2267 -0.7399
   9223SM  H18G12460   4.105   4.526   6.079 -0.4246  0.7606 -1.7432
   9223SM  C19F12461   4.154   4.693   6.206  0.3826 -0.6556 -0.5969
   9223SM  H19F12462   4.047   4.723   6.214 -0.1016 -2.1114 -1.3510
   9223SM  H19G12463   4.222   4.780   6.194 -1.5361  0.7905 -1.6342
   9223SM  C20F12464   4.191   4.624   6.337  0.1655 -0.0934  0.3474
   9223SM  H20F12465   4.301   4.612   6.339  0.1302 -1.1085 -1.4919
   9223SM  H20G12466   4.151   4.522   6.352  0.3231 -0.0488  1.1079
   9223SM  C21F12467   4.144   4.710   6.460  0.7845 -0.3216  0.4330
   9223SM  H21F12468   4.051   4.665   6.500  0.9759 -1.0203  0.1103
   9223SM  H21G12469   4.123   4.813   6.423 -1.3288 -1.0031 -0.4219
   9223SM  C22F12470   4.245   4.710   6.573  0.0159  1.1819 -0.6980
   9223SM  H22F12471   4.348   4.733   6.539  0.6900 -0.5479  0.0673
   9223SM  H22G12472   4.252   4.608   6.618  1.4690  1.2402 -0.7673
   9223SM  C23F12473   4.208   4.803   6.687 -0.3060  0.7869  0.3255
   9223SM  H23F12474   4.297   4.818   6.751  0.9606 -0.5726 -1.0372
   9223SM  H23G12475   4.122   4.758   6.742 -1.2214  0.8888 -0.9792
   9223SM  H23H12476   4.176   4.905   6.659 -1.3272  1.3563  3.2031
   9323SM     N12477   5.757   1.465   3.651 -0.6910 -0.0838 -0.3974
   9323SM   C1512478   5.739   1.533   3.519 -0.0492  0.2191  0.2947
   9323SM  H15A12479   5.680   1.624   3.517  2.0614  1.6697 -2.0202
   9323SM  H15B12480   5.707   1.461   3.446 -0.2123  0.7163 -0.1331
   9323SM  H15C12481   5.832   1.573   3.482 -0.1448  1.8179  1.6113
   9323SM   C1412482   5.641   1.386   3.691  0.4471  0.1712 -0.0874
   9323SM  H14A12483   5.628   1.295   3.636  0.2291  1.2473 -1.8969
   9323SM  H14B12484   5.547   1.436   3.672  0.8966  1.1626  0.2033
   9323SM  H14C12485   5.641   1.353   3.794  0.1789 -2.2873 -0.8334
   9323SM   C1312486   5.877   1.376   3.652 -0.4675 -0.9155 -0.3968
   9323SM  H13A12487   5.898   1.342   3.752 -0.2322  1.3502  0.3849
   9323SM  H13B12488   5.964   1.427   3.615  0.2018 -1.5038  0.3374
   9323SM  H13C12489   5.859   1.292   3.587 -1.3588 -2.4193  1.6922
   9323SM   C1212490   5.773   1.572   3.760 -0.1768 -0.3251 -0.6185
   9323SM  H12A12491   5.685   1.633   3.769  0.8917  1.2204 -0.3385
   9323SM  H12B12492   5.843   1.647   3.727 -0.1765  0.2384  0.6222
   9323SM   C1112493   5.822   1.527   3.902 -0.2312  0.1056 -0.4624
   9323SM  H11A12494   5.807   1.620   3.960 -2.4387 -0.4348 -0.0867
   9323SM  H11B12495   5.931   1.502   3.905 -0.3457 -0.6523 -1.8788
   9323SM     P12496   5.801   1.307   4.032 -0.5816  0.3115 -0.5661
   9323SM   O1312497   5.705   1.201   4.071 -0.2841  0.1293  0.4032
   9323SM   O1412498   5.912   1.265   3.943 -0.2702  0.4308  0.1462
   9323SM   O1112499   5.863   1.378   4.162  0.3256 -0.6833  0.2207
   9323SM   O1212500   5.728   1.425   3.955 -0.3637 -0.3718 -0.5636
   9323SM   C1S12501   5.799   1.482   4.235 -0.4035  0.3833  0.3142
   9323SM   H1S12502   5.696   1.447   4.256 -0.6146  1.4776  1.2281
   9323SM   H1T12503   5.795   1.570   4.168  0.5351 -1.1420 -1.8601
   9323SM    NF12504   5.769   1.550   4.462 -0.3557 -0.2703  0.3394
   9323SM   HNF12505   5.764   1.645   4.493 -0.0317  0.0567 -0.5772
   9323SM   C2S12506   5.873   1.502   4.371 -0.2156 -0.9763 -0.6067
   9323SM   H2S12507   5.898   1.404   4.417 -1.2998 -0.2311  1.7142
   9323SM   C3S12508   5.997   1.583   4.349 -0.3664 -0.1983  0.1905
   9323SM   H3S12509   5.985   1.677   4.291 -1.0570 -0.9405 -0.9109
   9323SM    O312510   6.081   1.511   4.254 -0.3983 -0.1138  0.5569
   9323SM   HO312511   6.022   1.439   4.229 -0.8902  1.1578 -2.4180
   9323SM   C4S12512   6.063   1.621   4.478  0.4379  0.5708  0.2648
   9323SM   H4S12513   6.007   1.697   4.534  1.6120  1.6950 -0.0167
   9323SM   C5S12514   6.172   1.562   4.532  0.0100 -0.1036  0.8145
   9323SM   H5S12515   6.231   1.488   4.476 -0.4917 -1.5963  2.1882
   9323SM   C6S12516   6.231   1.599   4.665 -0.1462  0.2034  0.2842
   9323SM   H6S12517   6.341   1.604   4.647 -0.0749  1.7841  0.9514
   9323SM   H6T12518   6.231   1.519   4.742 -0.0688 -1.0622 -0.9886
   9323SM   C7S12519   6.185   1.729   4.740 -0.0300  0.3278 -0.8610
   9323SM   H7S12520   6.080   1.710   4.771  0.4032 -0.7722 -0.0331
   9323SM   H7T12521   6.198   1.817   4.672  1.6568 -1.1664 -2.5724
   9323SM   C8S12522   6.266   1.754   4.865 -0.0270 -0.0496 -0.3342
   9323SM   H8S12523   6.206   1.832   4.918 -1.7108 -0.3246 -1.7246
   9323SM   H8T12524   6.369   1.792   4.852  0.2770 -0.2318  1.3494
   9323SM   C9S12525   6.272   1.648   4.969 -0.6884 -0.2132 -0.4116
   9323SM   H9S12526   6.357   1.582   4.941 -2.3739 -1.5986 -2.6901
   9323SM   H9T12527   6.180   1.586   4.976 -0.8339  0.1381  0.9198
   9323SM  C10S12528   6.296   1.715   5.109  0.2326 -0.6258 -0.4504
   9323SM  H10S12529   6.222   1.793   5.136  0.9023 -0.6993  1.7382
   9323SM  H10T12530   6.394   1.767   5.098 -0.0631  0.7458  2.5060
   9323SM  C11S12531   6.307   1.617   5.228  0.0622  0.2502  0.0185
   9323SM  H11S12532   6.401   1.559   5.214 -0.2146  0.2928 -2.6479
   9323SM  H11T12533   6.231   1.536   5.233  0.1739  0.1895  0.8744
   9323SM  C12S12534   6.311   1.692   5.362  0.6520  0.0971  0.4944
   9323SM  H12S12535   6.210   1.737   5.370 -0.0057 -1.3434  0.6828
   9323SM  H12T12536   6.388   1.769   5.339 -0.4117  1.2094  0.5180
   9323SM  C13S12537   6.347   1.609   5.488 -0.2396  0.0356  0.5905
   9323SM  H13S12538   6.445   1.561   5.468 -0.5135 -0.3149  0.0824
   9323SM  H13T12539   6.274   1.527   5.505  0.4890 -0.6738  0.3627
   9323SM  C14S12540   6.369   1.699   5.610 -1.0212 -0.6336 -0.6798
   9323SM  H14S12541   6.274   1.742   5.648  0.6283  2.9802 -0.2461
   9323SM  H14T12542   6.436   1.785   5.589 -1.5923  0.6004  2.1593
   9323SM  C15S12543   6.433   1.610   5.724  0.1462 -1.0054 -0.9705
   9323SM  H15S12544   6.350   1.549   5.763  1.2872 -0.5807  2.4671
   9323SM  H15T12545   6.510   1.545   5.676  2.8949  1.2601  0.0691
   9323SM  C16S12546   6.485   1.692   5.842  0.6543  0.1916 -0.9116
   9323SM  H16S12547   6.390   1.729   5.885 -0.8907 -1.4641 -2.7117
   9323SM  H16T12548   6.528   1.791   5.817 -0.3533  1.5437  2.2566
   9323SM  C17S12549   6.566   1.610   5.943 -0.1878 -0.5306  0.0139
   9323SM  H17S12550   6.652   1.554   5.899  0.7285  0.3310  0.6633
   9323SM  H17T12551   6.494   1.537   5.985 -0.2650 -1.3077 -1.3908
   9323SM  C18S12552   6.623   1.700   6.054 -0.3479 -0.1141 -0.4318
   9323SM  H18S12553   6.665   1.637   6.136 -0.8248 -1.5170 -1.2275
   9323SM  H18T12554   6.545   1.758   6.107  0.8991  0.8156  0.4712
   9323SM  H18U12555   6.703   1.768   6.016 -1.2057  1.1309 -0.0466
   9323SM   C1F12556   5.674   1.469   4.510 -0.8664 -0.3018 -0.0636
   9323SM    OF12557   5.661   1.352   4.485 -0.1554  0.1136  0.0032
   9323SM   C2F12558   5.578   1.532   4.606  0.4574  0.2514  0.5876
   9323SM   H2F12559   5.486   1.470   4.596  0.2008  0.4960  1.3413
   9323SM   H2G12560   5.564   1.638   4.576 -0.2559 -0.1173 -0.4284
   9323SM   C3F12561   5.635   1.529   4.752  0.4725  0.6316  0.0559
   9323SM   H3F12562   5.636   1.425   4.789  1.2236  0.7095  0.2627
   9323SM   H3G12563   5.562   1.568   4.826  1.8535 -1.5273  2.6919
   9323SM   C4F12564   5.777   1.591   4.779 -0.2905  0.2429 -0.2506
   9323SM   H4F12565   5.783   1.689   4.726  0.0866  0.9538  1.0716
   9323SM   H4G12566   5.854   1.528   4.730  0.7976  2.1881 -1.1620
   9323SM   C5F12567   5.812   1.624   4.928 -0.2026 -0.5586 -0.6004
   9323SM   H5F12568   5.725   1.676   4.974  0.7432 -0.4392  1.1665
   9323SM   H5G12569   5.891   1.703   4.928 -2.0144  1.4114  1.2539
   9323SM   C6F12570   5.853   1.496   5.015 -0.1900  0.5123 -0.6073
   9323SM   H6F12571   5.913   1.430   4.950  0.3033  1.0748 -0.7302
   9323SM   H6G12572   5.765   1.432   5.037 -0.9951  0.6902 -3.0142
   9323SM   C7F12573   5.937   1.526   5.141  0.9941 -0.1308 -0.6754
   9323SM   H7F12574   6.011   1.607   5.124 -0.3170  1.3064  0.1820
   9323SM   H7G12575   6.000   1.434   5.142 -0.2612 -1.0075  0.2380
   9323SM   C8F12576   5.859   1.535   5.280 -0.1087 -0.1335 -0.2959
   9323SM   H8F12577   5.799   1.443   5.295  2.4653 -2.0345 -1.1332
   9323SM   H8G12578   5.793   1.625   5.286 -1.0353 -0.8474  0.4904
   9323SM   C9F12579   5.970   1.540   5.389 -0.6579 -0.0710 -0.7527
   9323SM   H9F12580   6.030   1.629   5.359 -2.9863  2.6247  2.0340
   9323SM   H9G12581   6.017   1.439   5.385 -2.6624 -1.1153  0.5655
   9323SM  C10F12582   5.913   1.565   5.525 -0.1076  0.7986  0.6929
   9323SM  H10F12583   5.845   1.480   5.548 -2.3189  1.5952 -2.2252
   9323SM  H10G12584   5.856   1.660   5.512  0.1835  0.8157 -0.6719
   9323SM  C11F12585   6.015   1.588   5.645 -0.0823 -0.4529 -0.2453
   9323SM  H11F12586   6.089   1.666   5.619 -0.1653 -0.1620  0.3849
   9323SM  H11G12587   6.057   1.488   5.668 -1.7876 -1.2079 -0.2317
   9323SM  C12F12588   5.953   1.618   5.787  0.1610  0.0308  0.5876
   9323SM  H12F12589   5.861   1.556   5.778 -0.1582  0.7513 -1.6194
   9323SM  H12G12590   5.918   1.723   5.790  1.0577  0.3887 -0.8068
   9323SM  C13F12591   6.053   1.588   5.898  0.2748  0.6924  0.1295
   9323SM  H13F12592   6.134   1.664   5.891 -0.8258  1.7405 -2.0406
   9323SM  H13G12593   6.106   1.494   5.872 -1.4624  0.5309 -3.3017
   9323SM  C14F12594   5.985   1.583   6.036  0.2852 -0.4869  0.3483
   9323SM  H14F12595   5.899   1.513   6.029 -1.2303  1.0348  2.2954
   9323SM  H14G12596   5.931   1.678   6.057 -0.3813 -0.7735 -0.0479
   9323SM  C15F12597   6.073   1.552   6.160  0.0320  0.0327  0.3238
   9323SM  H15F12598   6.131   1.639   6.196 -0.1701 -0.4107  1.8021
   9323SM  H15G12599   6.146   1.472   6.138 -0.8648 -0.2112 -1.9765
   9323SM  C16F12600   5.991   1.502   6.276  0.1533 -0.2158 -0.7619
   9323SM  H16F12601   5.971   1.394   6.257 -4.3287  0.5645 -1.7045
   9323SM  H16G12602   5.892   1.552   6.266 -0.0465 -0.3259  0.5283
   9323SM  C17F12603   6.060   1.531   6.418  0.2686  0.4529 -0.0245
   9323SM  H17F12604   5.985   1.512   6.497  0.1201  0.5774 -0.1348
   9323SM  H17G12605   6.084   1.639   6.429  2.5793 -0.1202  1.1673
   9323SM  C18F12606   6.180   1.439   6.436  0.0250  0.1527 -0.0105
   9323SM  H18F12607   6.242   1.442   6.344 -0.5141  0.1476 -0.3805
   9323SM  H18G12608   6.147   1.333   6.439  0.2134  0.1100  1.1370
   9323SM  C19F12609   6.269   1.475   6.560  0.2151  0.0383  0.0860
   9323SM  H19F12610   6.297   1.582   6.561  0.8920 -0.0690 -1.8726
   9323SM  H19G12611   6.359   1.412   6.544  0.0243 -0.4123  0.7566
   9323SM  C20F12612   6.204   1.423   6.682  0.1198  0.4382 -0.2338
   9323SM  H20F12613   6.117   1.355   6.668  1.3006 -1.6026  1.6743
   9323SM  H20G12614   6.174   1.518   6.732 -1.2638 -0.1738  0.1482
   9323SM  C21F12615   6.308   1.352   6.772 -0.3824 -0.2599 -0.0399
   9323SM  H21F12616   6.359   1.277   6.707 -1.8325 -1.4397  0.1076
   9323SM  H21G12617   6.255   1.294   6.851  1.8482  1.5419  2.9877
   9323SM  C22F12618   6.410   1.445   6.827  0.6835 -0.5947  0.1501
   9323SM  H22F12619   6.362   1.514   6.900 -0.1362  0.4337 -1.3087
   9323SM  H22G12620   6.445   1.528   6.762  0.3728 -0.4010  0.2266
   9323SM  C23F12621   6.531   1.374   6.897  0.1339  0.0595 -0.7226
   9323SM  H23F12622   6.514   1.279   6.951  0.4728  0.7977  0.7464
   9323SM  H23G12623   6.565   1.445   6.975 -1.3225 -0.8639  0.8177
   9323SM  H23H12624   6.614   1.355   6.826  1.7809 -1.3851  1.4644
   9423SM     N12625   4.415   1.551   3.487  0.0221  0.5198  0.0044
   9423SM   C1512626   4.512   1.596   3.379  0.2522  0.4608  0.0595
   9423SM  H15A12627   4.606   1.546   3.394  0.0918  0.4046  0.9773
   9423SM  H15B12628   4.516   1.704   3.373  1.1899  0.5597  1.8356
   9423SM  H15C12629   4.472   1.563   3.284 -0.1263  2.1695 -0.4069
   9423SM   C1412630   4.274   1.588   3.438 -0.8305  0.1610  0.3842
   9423SM  H14A12631   4.249   1.547   3.342 -0.7742 -0.4083  0.6096
   9423SM  H14B12632   4.251   1.693   3.435  0.1239  0.4172  1.4419
   9423SM  H14C12633   4.208   1.545   3.512 -2.3112  3.4456  1.1384
   9423SM   C1312634   4.426   1.398   3.505  0.6096  0.0150 -0.0874
   9423SM  H13A12635   4.400   1.343   3.416 -1.5998  0.4691  0.2136
   9423SM  H13B12636   4.350   1.369   3.575  1.6123 -0.9636  0.6260
   9423SM  H13C12637   4.518   1.358   3.544 -0.1987 -0.0522  1.8580
   9423SM   C1212638   4.461   1.624   3.609  0.7520 -0.0278  0.1703
   9423SM  H12A12639   4.425   1.725   3.597 -0.2278 -0.0759  2.3339
   9423SM  H12B12640   4.567   1.608   3.617  0.8697  0.7741  0.2530
   9423SM   C1112641   4.395   1.585   3.751  0.7010  0.4944 -0.3190
   9423SM  H11A12642   4.445   1.642   3.832  1.3114 -0.8127  0.2480
   9423SM  H11B12643   4.421   1.479   3.773  0.3984  0.3990 -0.4176
   9423SM     P12644   4.194   1.742   3.771 -0.6698  0.1044 -0.2922
   9423SM   O1312645   4.290   1.854   3.743  0.0882 -0.1877 -0.0193
   9423SM   O1412646   4.074   1.747   3.687  0.4104  0.2201 -0.3764
   9423SM   O1112647   4.149   1.736   3.922  0.1120 -0.8083 -0.6428
   9423SM   O1212648   4.255   1.594   3.750 -0.5524  0.1386  0.3709
   9423SM   C1S12649   4.047   1.645   3.974 -0.2103 -0.0396 -0.0612
   9423SM   H1S12650   4.070   1.540   3.945  0.3076  0.2873 -0.8624
   9423SM   H1T12651   3.950   1.669   3.925  0.4564 -1.1898 -2.0697
   9423SM    NF12652   3.919   1.528   4.155 -0.4541 -0.4309  0.2482
   9423SM   HNF12653   3.831   1.567   4.182 -0.0761  0.1691  0.6495
   9423SM   C2S12654   4.022   1.633   4.127  0.0919  0.2037 -0.5801
   9423SM   H2S12655   4.119   1.596   4.165  0.3839  0.1973 -1.3115
   9423SM   C3S12656   3.992   1.778   4.182 -0.5490  0.4528  0.2717
   9423SM   H3S12657   3.898   1.815   4.138 -1.1451 -2.3342 -1.0219
   9423SM    O312658   4.100   1.868   4.157 -0.1274 -0.3118  0.1020
   9423SM   HO312659   4.135   1.835   4.074  0.5309  1.3344 -0.3207
   9423SM   C4S12660   3.984   1.768   4.335  0.4380  0.2150  0.3970
   9423SM   H4S12661   4.079   1.748   4.387  0.4365  0.1222  0.3631
   9423SM   C5S12662   3.867   1.791   4.395  0.2187 -0.4073 -0.4299
   9423SM   H5S12663   3.780   1.818   4.333  1.0155  0.3276 -1.2618
   9423SM   C6S12664   3.843   1.790   4.544  0.2260 -0.1518 -0.3625
   9423SM   H6S12665   3.782   1.703   4.574  1.3357 -0.3577  1.4497
   9423SM   H6T12666   3.803   1.887   4.580  0.5049 -1.1269  2.8963
   9423SM   C7S12667   3.965   1.761   4.628 -0.6571 -0.5450  0.0703
   9423SM   H7S12668   4.044   1.832   4.597 -0.9226 -0.3016 -0.0453
   9423SM   H7T12669   3.993   1.654   4.616 -2.0020 -0.8555 -0.4083
   9423SM   C8S12670   3.920   1.781   4.770 -0.0600 -0.0963 -0.1270
   9423SM   H8S12671   3.832   1.715   4.788 -1.4842  1.6027 -0.4641
   9423SM   H8T12672   3.887   1.887   4.780 -1.0334 -0.3213 -0.7852
   9423SM   C9S12673   4.023   1.740   4.876 -0.7753  0.4247  0.5600
   9423SM   H9S12674   4.121   1.785   4.847 -0.6199  0.4804  1.1556
   9423SM   H9T12675   4.045   1.631   4.870  1.6985  0.5789  3.7392
   9423SM  C10S12676   3.975   1.780   5.016 -0.2358 -0.4247 -1.4409
   9423SM  H10S12677   3.885   1.718   5.035 -0.4287  0.1436 -0.4815
   9423SM  H10T12678   3.956   1.889   5.020  2.2741  0.0417 -0.9907
   9423SM  C11S12679   4.071   1.749   5.136 -0.2413 -0.7744  0.0404
   9423SM  H11S12680   4.163   1.812   5.136 -1.6350  1.3734 -0.1823
   9423SM  H11T12681   4.114   1.647   5.124  0.5673 -0.3615 -0.7427
   9423SM  C12S12682   4.004   1.758   5.276 -0.2780  0.2581 -0.4527
   9423SM  H12S12683   3.913   1.695   5.290  1.0114 -1.6057 -0.1793
   9423SM  H12T12684   3.968   1.863   5.287  0.3792  0.6934 -2.1721
   9423SM  C13S12685   4.095   1.729   5.395 -0.1724 -0.0195  0.3354
   9423SM  H13S12686   4.189   1.786   5.379  1.2230 -2.3056 -0.0752
   9423SM  H13T12687   4.121   1.621   5.399 -4.3741 -1.2217  0.1047
   9423SM  C14S12688   4.030   1.766   5.528  0.6879  0.7737 -0.7414
   9423SM  H14S12689   3.945   1.706   5.567  0.5736  1.9479  0.8902
   9423SM  H14T12690   3.985   1.867   5.523  2.5869  1.7378  0.5969
   9423SM  C15S12691   4.132   1.786   5.641 -0.0122 -0.3083 -0.0309
   9423SM  H15S12692   4.077   1.813   5.733  0.0403  2.4494 -0.7122
   9423SM  H15T12693   4.196   1.875   5.621 -0.5368 -0.0963 -0.8353
   9423SM  C16S12694   4.218   1.668   5.669  0.0500  0.1893  0.4129
   9423SM  H16S12695   4.291   1.658   5.586  3.0690 -0.0525  2.9153
   9423SM  H16T12696   4.162   1.572   5.679  0.7279 -0.4241 -1.3254
   9423SM  C17S12697   4.299   1.678   5.801  0.8723 -0.2303  0.4656
   9423SM  H17S12698   4.334   1.783   5.810 -0.4569  0.4327 -1.4995
   9423SM  H17T12699   4.389   1.614   5.787  1.5177  1.0208 -1.3899
   9423SM  C18S12700   4.225   1.639   5.927 -0.8095 -0.1169  0.4269
   9423SM  H18S12701   4.192   1.533   5.924 -3.4876  0.6565 -0.3144
   9423SM  H18T12702   4.129   1.692   5.944 -1.0392 -0.4540  0.1912
   9423SM  H18U12703   4.280   1.659   6.022  1.7649 -0.5367 -0.8751
   9423SM   C1F12704   3.946   1.396   4.156 -0.2128  0.2473 -0.2536
   9423SM    OF12705   4.058   1.348   4.121  0.7529 -0.0152 -0.2516
   9423SM   C2F12706   3.832   1.302   4.180 -0.5444 -0.1734 -0.2807
   9423SM   H2F12707   3.826   1.235   4.092  0.8045 -0.1447 -0.4168
   9423SM   H2G12708   3.740   1.365   4.181 -0.6592 -0.3305 -0.8951
   9423SM   C3F12709   3.830   1.216   4.308 -0.2790  0.1853  0.3073
   9423SM   H3F12710   3.903   1.133   4.297 -1.4664 -0.5592 -4.1679
   9423SM   H3G12711   3.725   1.179   4.316 -0.4823  0.9924  1.7366
   9423SM   C4F12712   3.845   1.307   4.426 -0.1169 -1.3609 -0.6542
   9423SM   H4F12713   3.777   1.395   4.426 -0.0695 -1.3209  0.1054
   9423SM   H4G12714   3.951   1.339   4.425 -0.9634  1.7693 -0.0297
   9423SM   C5F12715   3.827   1.218   4.558  0.4275 -0.4789  0.0309
   9423SM   H5F12716   3.894   1.132   4.540  0.9187 -0.1943  0.4495
   9423SM   H5G12717   3.722   1.181   4.559  0.7205 -1.3145  1.1824
   9423SM   C6F12718   3.875   1.291   4.682 -0.5299 -0.0122 -0.2996
   9423SM   H6F12719   3.795   1.368   4.679  0.3095  0.8805  0.1115
   9423SM   H6G12720   3.976   1.333   4.664 -0.4141 -0.3166 -0.3777
   9423SM   C7F12721   3.874   1.209   4.814 -0.8990 -0.1100  0.2098
   9423SM   H7F12722   3.943   1.123   4.805 -2.7632 -1.6131 -0.0844
   9423SM   H7G12723   3.770   1.177   4.833 -1.5394  0.7676 -1.5659
   9423SM   C8F12724   3.929   1.289   4.931 -0.4640 -0.9198 -0.3273
   9423SM   H8F12725   3.876   1.386   4.921 -0.6266 -1.1101 -1.4680
   9423SM   H8G12726   4.039   1.304   4.917 -0.5606 -0.8984 -1.1038
   9423SM   C9F12727   3.909   1.227   5.073 -0.7621  0.2472 -0.2164
   9423SM   H9F12728   3.982   1.144   5.083 -0.1734  0.7145 -0.5695
   9423SM   H9G12729   3.809   1.178   5.076 -0.9663  0.5742 -1.4710
   9423SM  C10F12730   3.932   1.324   5.191  0.0707  0.2999  1.2494
   9423SM  H10F12731   3.864   1.410   5.176  2.4987  1.9210 -1.7426
   9423SM  H10G12732   4.032   1.372   5.194 -0.1340  0.7831  0.6032
   9423SM  C11F12733   3.909   1.251   5.321  0.1387 -0.1630  0.4770
   9423SM  H11F12734   3.980   1.167   5.333  1.7427  0.9501 -0.7153
   9423SM  H11G12735   3.805   1.213   5.321  0.9192 -2.4319  0.0834
   9423SM  C12F12736   3.923   1.356   5.435 -0.4791  0.5301  0.5848
   9423SM  H12F12737   3.880   1.454   5.405  0.0388  0.7958  0.6904
   9423SM  H12G12738   4.032   1.373   5.451  0.0271 -1.8149  0.0925
   9423SM  C13F12739   3.864   1.309   5.571  0.1097  0.2533 -0.5317
   9423SM  H13F12740   3.883   1.200   5.582 -1.3920 -0.2125 -2.1131
   9423SM  H13G12741   3.753   1.321   5.569  0.0430 -0.4620 -2.6074
   9423SM  C14F12742   3.901   1.412   5.683  0.1508  0.2283  0.2424
   9423SM  H14F12743   3.871   1.515   5.656  0.5856  0.5257  0.8719
   9423SM  H14G12744   4.012   1.412   5.685  0.2860  0.3402 -2.7396
   9423SM  C15F12745   3.821   1.388   5.814 -0.5101 -0.0955 -0.6772
   9423SM  H15F12746   3.837   1.280   5.835  2.6245  0.3110 -0.6173
   9423SM  H15G12747   3.715   1.402   5.784 -0.5861 -0.8435 -0.7791
   9423SM  C16F12748   3.870   1.473   5.933 -0.3073 -0.2606 -0.4035
   9423SM  H16F12749   3.835   1.577   5.914 -1.1262 -0.3487  0.5800
   9423SM  H16G12750   3.980   1.476   5.946 -0.3314  0.8362 -0.3009
   9423SM  C17F12751   3.796   1.443   6.071 -0.0950 -0.5062  0.1292
   9423SM  H17F12752   3.849   1.356   6.114 -0.0689 -0.6504 -0.1898
   9423SM  H17G12753   3.689   1.416   6.055 -0.3549 -0.6927  1.9538
   9423SM  C18F12754   3.798   1.566   6.166 -0.5301  0.6481  0.0210
   9423SM  H18F12755   3.739   1.647   6.119 -1.8065 -0.4492 -0.3084
   9423SM  H18G12756   3.905   1.598   6.173 -0.2935  0.0974 -0.8006
   9423SM  C19F12757   3.740   1.515   6.305  0.3887  0.1380  0.0779
   9423SM  H19F12758   3.800   1.432   6.346 -1.9270  0.1094  3.8896
   9423SM  H19G12759   3.636   1.476   6.294 -1.3199  3.3972  2.5697
   9423SM  C20F12760   3.719   1.624   6.413  0.1404 -0.3825 -0.7681
   9423SM  H20F12761   3.659   1.579   6.495  0.4364 -2.4772 -1.6373
   9423SM  H20G12762   3.657   1.711   6.383  0.1780 -0.5697 -1.4117
   9423SM  C21F12763   3.852   1.675   6.477 -0.2918 -0.1291 -0.7189
   9423SM  H21F12764   3.927   1.692   6.396  0.0253 -2.6288 -1.0370
   9423SM  H21G12765   3.883   1.601   6.553  0.7659  0.9638 -0.0570
   9423SM  C22F12766   3.831   1.803   6.569  0.2459  0.2147  0.5852
   9423SM  H22F12767   3.820   1.891   6.502 -0.3872 -0.0043  0.3901
   9423SM  H22G12768   3.925   1.812   6.627  0.0609  0.6980  0.8208
   9423SM  C23F12769   3.716   1.802   6.673  0.5893 -0.2880  0.3123
   9423SM  H23F12770   3.616   1.788   6.625 -0.0749  0.8261  1.3265
   9423SM  H23G12771   3.714   1.903   6.719  0.7069 -0.0446 -0.2120
   9423SM  H23H12772   3.733   1.723   6.749  0.8979 -0.6567 -0.1336
   9523SM     N12773   0.403   5.299   3.795 -0.8225  0.0361 -0.5714
   9523SM   C1512774   0.536   5.350   3.749  0.0376  0.2534  0.0356
   9523SM  H15A12775   0.580   5.427   3.809  0.2473  0.2036 -0.0537
   9523SM  H15B12776   0.543   5.388   3.648 -4.5044  0.2498 -0.5015
   9523SM  H15C12777   0.606   5.267   3.750 -0.8420 -0.6860 -3.3691
   9523SM   C1412778   0.323   5.420   3.830  0.7125  0.9778 -0.7482
   9523SM  H14A12779   0.218   5.395   3.845  0.5615  1.7149 -0.5766
   9523SM  H14B12780   0.319   5.494   3.752  0.1769  2.2607  0.4675
   9523SM  H14C12781   0.365   5.474   3.912  2.5284  0.6752 -1.4447
   9523SM   C1312782   0.338   5.230   3.679 -0.4611  0.3246  0.5116
   9523SM  H13A12783   0.270   5.151   3.707 -0.5056 -0.6549 -2.0926
   9523SM  H13B12784   0.420   5.174   3.635 -1.3787  0.6134 -1.7015
   9523SM  H13C12785   0.290   5.287   3.602 -1.0991 -2.0453 -0.9694
   9523SM   C1212786   0.420   5.222   3.924 -0.6980  1.0057  0.4484
   9523SM  H12A12787   0.327   5.208   3.976 -0.6233  0.0404  0.3433
   9523SM  H12B12788   0.470   5.282   3.999 -0.0241  1.0956 -0.0622
   9523SM   C1112789   0.483   5.079   3.920 -0.5142 -1.0748  0.5499
   9523SM  H11A12790   0.415   5.017   3.858 -0.1702 -1.1263  0.2212
   9523SM  H11B12791   0.493   5.035   4.022  0.6427  0.7741  1.2845
   9523SM     P12792   0.748   5.113   3.946 -0.1444  0.3310 -0.2760
   9523SM   O1312793   0.859   5.108   3.851 -0.5240 -0.0761 -0.5053
   9523SM   O1412794   0.725   5.237   4.015  0.2305 -0.4797  0.3284
   9523SM   O1112795   0.734   4.989   4.043 -0.1397  0.0448  0.3076
   9523SM   O1212796   0.614   5.084   3.862  0.4755  0.4510 -0.5091
   9523SM   C1S12797   0.807   4.972   4.168  0.5879 -0.6537  0.3934
   9523SM   H1S12798   0.869   5.061   4.194 -0.3110  0.1063 -0.0174
   9523SM   H1T12799   0.877   4.886   4.162 -0.6925 -1.6340 -0.9602
   9523SM    NF12800   0.808   4.936   4.412 -0.3114  0.3496 -0.0340
   9523SM   HNF12801   0.823   4.845   4.449  1.5782  0.1792 -1.1344
   9523SM   C2S12802   0.724   4.943   4.290 -0.2706  0.4635  0.0644
   9523SM   H2S12803   0.650   5.025   4.304  0.7835  1.1549  1.8741
   9523SM   C3S12804   0.643   4.814   4.263  0.3725  0.2346 -0.1689
   9523SM   H3S12805   0.711   4.728   4.243  0.4743 -0.0919  1.4258
   9523SM    O312806   0.558   4.810   4.148  0.2176  0.0222 -0.0956
   9523SM   HO312807   0.592   4.877   4.088 -0.8192  0.3263 -0.3573
   9523SM   C4S12808   0.553   4.786   4.378  0.2376  1.1185  0.1735
   9523SM   H4S12809   0.468   4.854   4.393  0.0884  0.6456  1.6020
   9523SM   C5S12810   0.554   4.682   4.462 -0.5964  0.0152 -0.0291
   9523SM   H5S12811   0.638   4.611   4.461  1.7466  2.6041 -1.6138
   9523SM   C6S12812   0.458   4.660   4.580  0.7467 -0.3393 -0.5454
   9523SM   H6S12813   0.399   4.566   4.576 -0.1503  0.0832  1.4459
   9523SM   H6T12814   0.381   4.741   4.584  0.1503 -0.9439  0.8090
   9523SM   C7S12815   0.528   4.685   4.718 -0.4754  0.3035  0.5562
   9523SM   H7S12816   0.559   4.791   4.719  0.3730  0.1639 -2.3915
   9523SM   H7T12817   0.615   4.617   4.725 -1.3325 -0.9262 -0.2402
   9523SM   C8S12818   0.439   4.658   4.837 -0.1390 -0.4406 -0.0682
   9523SM   H8S12819   0.408   4.551   4.842 -0.9804 -0.1719  0.9074
   9523SM   H8T12820   0.342   4.713   4.828  0.4679  0.3120 -3.1308
   9523SM   C9S12821   0.498   4.703   4.968 -0.2363 -0.2165 -1.4876
   9523SM   H9S12822   0.515   4.812   4.961 -0.9284  0.3392  2.8481
   9523SM   H9T12823   0.599   4.661   4.984 -0.3440  0.1033  0.2134
   9523SM  C10S12824   0.417   4.669   5.094 -0.7192 -0.9797  0.4994
   9523SM  H10S12825   0.405   4.559   5.099  0.6354 -1.1805 -0.3037
   9523SM  H10T12826   0.316   4.715   5.086  0.4525  1.4387 -2.5302
   9523SM  C11S12827   0.481   4.722   5.218 -0.1681  0.0074  0.5841
   9523SM  H11S12828   0.454   4.829   5.226 -2.3294 -0.2506 -1.8722
   9523SM  H11T12829   0.590   4.700   5.222 -0.2255 -1.0233 -1.8374
   9523SM  C12S12830   0.423   4.653   5.341 -0.5606 -0.1664 -0.1532
   9523SM  H12S12831   0.469   4.552   5.336 -0.6850 -0.1508 -2.7704
   9523SM  H12T12832   0.313   4.649   5.327 -0.6677  0.7727  0.2988
   9523SM  C13S12833   0.444   4.738   5.475 -0.7239 -0.1811 -0.3844
   9523SM  H13S12834   0.375   4.825   5.479  0.3063  0.6391 -0.0035
   9523SM  H13T12835   0.549   4.774   5.472 -0.5554 -0.4145  1.5085
   9523SM  C14S12836   0.425   4.664   5.602 -0.1284  0.5249 -0.3885
   9523SM  H14S12837   0.519   4.606   5.613  0.9716  2.5023  1.5687
   9523SM  H14T12838   0.338   4.597   5.587 -0.1947  0.3103  0.8252
   9523SM  C15S12839   0.411   4.746   5.735 -0.0889 -0.3651  0.3147
   9523SM  H15S12840   0.331   4.819   5.713 -2.8382 -3.4523 -0.6222
   9523SM  H15T12841   0.503   4.807   5.747  0.0282 -0.1242 -1.5841
   9523SM  C16S12842   0.381   4.665   5.866 -0.4471  0.6798  0.2227
   9523SM  H16S12843   0.478   4.628   5.905 -0.3980  1.5915  1.0066
   9523SM  H16T12844   0.316   4.576   5.852  0.4598 -0.1485  1.0840
   9523SM  C17S12845   0.324   4.748   5.977  0.1564 -0.1270 -0.0570
   9523SM  H17S12846   0.229   4.795   5.941  0.5472 -0.4999 -1.6353
   9523SM  H17T12847   0.382   4.825   6.032 -0.9812  0.5408  0.2414
   9523SM  C18S12848   0.274   4.659   6.090  0.4655  0.6394 -0.2553
   9523SM  H18S12849   0.362   4.596   6.117  0.5505  1.2351  0.9030
   9523SM  H18T12850   0.180   4.606   6.064  1.1105 -0.6657 -0.0180
   9523SM  H18U12851   0.252   4.716   6.183  2.7572 -1.2466  1.5762
   9523SM   C1F12852   0.871   5.042   4.456 -0.6636 -0.4431 -0.9240
   9523SM    OF12853   0.856   5.150   4.404 -0.6166 -0.4992 -0.3304
   9523SM   C2F12854   0.945   5.025   4.574  0.0731 -0.1517 -0.1867
   9523SM   H2F12855   0.996   5.118   4.606  0.9140 -0.4374 -0.6505
   9523SM   H2G12856   1.025   4.949   4.558  0.8495  0.7365 -0.5974
   9523SM   C3F12857   0.856   4.980   4.690 -0.1232 -0.1472  0.7017
   9523SM   H3F12858   0.812   4.882   4.660  0.5160 -0.0735 -0.5580
   9523SM   H3G12859   0.773   5.051   4.706  0.5135  0.7378  0.1478
   9523SM   C4F12860   0.936   4.970   4.820 -0.8622 -0.0152 -0.4881
   9523SM   H4F12861   0.978   5.071   4.839 -0.4831 -0.3409  0.4662
   9523SM   H4G12862   1.011   4.891   4.803 -1.0971 -0.2420 -0.4787
   9523SM   C5F12863   0.849   4.925   4.944  0.3029  0.3056  0.8790
   9523SM   H5F12864   0.826   4.818   4.926  1.0254  0.1578  0.8040
   9523SM   H5G12865   0.751   4.976   4.955 -0.3938 -1.2226  2.1120
   9523SM   C6F12866   0.924   4.938   5.085  0.4144 -0.1038 -0.6042
   9523SM   H6F12867   0.941   5.047   5.102  3.6940 -0.7893  1.5134
   9523SM   H6G12868   1.027   4.900   5.071  0.3082 -0.0692 -1.5679
   9523SM   C7F12869   0.849   4.871   5.195  0.0870  0.3599  0.0365
   9523SM   H7F12870   0.855   4.761   5.185  1.2419  0.2938  1.1452
   9523SM   H7G12871   0.744   4.910   5.194 -1.0315 -2.4451  0.0348
   9523SM   C8F12872   0.913   4.895   5.338 -0.2261 -0.6576  0.4611
   9523SM   H8F12873   0.930   5.004   5.346  1.1716 -0.8108 -0.1174
   9523SM   H8G12874   1.014   4.848   5.332  1.1974  2.3380 -1.6864
   9523SM   C9F12875   0.825   4.834   5.438  1.0816  0.3520  0.7890
   9523SM   H9F12876   0.800   4.727   5.422 -0.0042  0.7816 -0.6271
   9523SM   H9G12877   0.729   4.881   5.407  0.5252 -2.2624 -1.8288
   9523SM  C10F12878   0.894   4.859   5.575  0.2219 -0.1738  0.4670
   9523SM  H10F12879   0.933   4.961   5.591 -1.6778  0.5082  0.9449
   9523SM  H10G12880   0.984   4.795   5.586 -0.5169 -1.0131  1.8232
   9523SM  C11F12881   0.797   4.834   5.692  0.5446  0.3882 -0.1271
   9523SM  H11F12882   0.752   4.733   5.680  0.3890  0.7030 -2.8466
   9523SM  H11G12883   0.715   4.906   5.677  0.2530  0.0298 -0.2760
   9523SM  C12F12884   0.861   4.829   5.829  0.1271 -0.9131 -0.0912
   9523SM  H12F12885   0.876   4.936   5.855  0.0207 -0.5344 -1.5032
   9523SM  H12G12886   0.957   4.774   5.827  0.9873  0.5472 -0.4903
   9523SM  C13F12887   0.755   4.785   5.941 -0.2223 -0.1090  0.7624
   9523SM  H13F12888   0.721   4.680   5.922 -0.7267  0.0638  0.6930
   9523SM  H13G12889   0.667   4.852   5.930 -1.1770 -1.5371 -1.0496
   9523SM  C14F12890   0.809   4.811   6.079  0.1390 -0.4307 -0.4045
   9523SM  H14F12891   0.826   4.920   6.094 -0.0156 -0.1012 -2.2929
   9523SM  H14G12892   0.910   4.764   6.090 -0.5291 -2.8104 -3.1495
   9523SM  C15F12893   0.712   4.773   6.196  0.1343 -0.1951 -0.0666
   9523SM  H15F12894   0.689   4.666   6.178 -1.2208 -0.0073  0.4438
   9523SM  H15G12895   0.622   4.835   6.176  1.6990  2.2945  0.0666
   9523SM  C16F12896   0.779   4.812   6.325  0.0586  0.5463 -0.2685
   9523SM  H16F12897   0.838   4.906   6.319  1.3699 -0.2966 -1.4945
   9523SM  H16G12898   0.854   4.732   6.346 -1.2369 -0.6812 -0.2010
   9523SM  C17F12899   0.681   4.815   6.447 -0.1377  0.3474 -0.1513
   9523SM  H17F12900   0.646   4.712   6.469 -1.5813  0.4921 -1.5674
   9523SM  H17G12901   0.591   4.875   6.421  0.9950  1.8486 -0.7806
   9523SM  C18F12902   0.733   4.883   6.575 -0.8835  0.2332  0.6474
   9523SM  H18F12903   0.826   4.834   6.612 -0.6639  0.9581  1.0905
   9523SM  H18G12904   0.654   4.872   6.652 -0.9427  1.1220  0.7209
   9523SM  C19F12905   0.759   5.037   6.557 -0.4265  0.3720 -0.3285
   9523SM  H19F12906   0.666   5.094   6.536  0.4137  1.1575 -2.2410
   9523SM  H19G12907   0.826   5.048   6.469  1.4922 -2.0018  0.7027
   9523SM  C20F12908   0.811   5.105   6.687  0.1326  0.1366  0.5355
   9523SM  H20F12909   0.745   5.090   6.775 -0.5033  1.5648  0.3181
   9523SM  H20G12910   0.806   5.213   6.665  0.6339  0.1026  0.2587
   9523SM  C21F12911   0.964   5.092   6.710 -0.2657  0.2771 -0.2028
   9523SM  H21F12912   1.021   5.127   6.621 -2.1600  0.3886 -1.4494
   9523SM  H21G12913   0.987   4.984   6.722 -1.5751  0.2411  2.8301
   9523SM  C22F12914   1.030   5.160   6.833  0.0314  0.2170  0.2483
   9523SM  H22F12915   1.012   5.269   6.826  3.5955  0.8274 -2.2367
   9523SM  H22G12916   1.139   5.141   6.843 -0.3566 -1.5056  1.9809
   9523SM  C23F12917   0.970   5.111   6.969 -0.2412 -0.3501 -0.6265
   9523SM  H23F12918   0.967   5.001   6.977  0.8373 -0.2366  2.1768
   9523SM  H23G12919   0.864   5.147   6.967 -0.0910  0.3459  1.6104
   9523SM  H23H12920   1.034   5.157   7.046 -0.5965  0.7617 -0.9714
   9623SM     N12921   1.570   2.088   3.587 -0.8432 -0.5627 -0.4930
   9623SM   C1512922   1.481   1.969   3.580 -0.1916  0.6060  0.4224
   9623SM  H15A12923   1.519   1.889   3.642 -1.1036 -0.8317 -0.8266
   9623SM  H15B12924   1.472   1.936   3.478 -1.9468 -1.6720  1.2270
   9623SM  H15C12925   1.385   1.997   3.620 -0.2009 -0.4118  1.1284
   9623SM   C1412926   1.702   2.056   3.517  0.7317  0.2284  0.0735
   9623SM  H14A12927   1.690   2.020   3.416  0.4369 -0.3566  0.3095
   9623SM  H14B12928   1.750   1.977   3.573 -0.8914 -1.4987 -0.8573
   9623SM  H14C12929   1.763   2.145   3.521 -1.5812  1.8906  0.3076
   9623SM   C1312930   1.501   2.203   3.516 -0.2343 -0.3120  0.1635
   9623SM  H13A12931   1.570   2.285   3.516  0.5397 -0.9528  0.0750
   9623SM  H13B12932   1.409   2.232   3.565 -0.4439 -2.4138  1.1423
   9623SM  H13C12933   1.479   2.166   3.417 -1.7683 -0.9939  0.7129
   9623SM   C1212934   1.584   2.130   3.732  0.3249  0.1565 -0.7141
   9623SM  H12A12935   1.614   2.050   3.797  0.1266  1.1390  0.6348
   9623SM  H12B12936   1.482   2.160   3.753  0.6373  0.4552  0.3952
   9623SM   C1112937   1.687   2.242   3.761  0.0671 -0.5266  0.2346
   9623SM  H11A12938   1.783   2.199   3.725  0.0979  1.0557 -1.8031
   9623SM  H11B12939   1.701   2.261   3.869 -0.0432 -2.8310  0.7087
   9623SM     P12940   1.781   2.451   3.629 -0.2506 -0.5854  0.3298
   9623SM   O1312941   1.862   2.376   3.527  0.1673  0.2021 -0.5945
   9623SM   O1412942   1.729   2.579   3.574 -0.9266  0.3484 -0.2291
   9623SM   O1112943   1.858   2.479   3.766  0.0299 -0.2990 -0.3367
   9623SM   O1212944   1.659   2.369   3.685  0.1131  0.3538 -0.0209
   9623SM   C1S12945   1.809   2.564   3.875 -0.5267 -0.3435  0.7565
   9623SM   H1S12946   1.742   2.504   3.938  0.3909 -0.8560  1.2612
   9623SM   H1T12947   1.756   2.654   3.837  2.0020  0.7507 -0.4683
   9623SM    NF12948   1.890   2.719   4.060  0.0233 -0.5784 -0.3439
   9623SM   HNF12949   1.887   2.817   4.041 -3.7372 -0.6507 -0.9010
   9623SM   C2S12950   1.930   2.624   3.958 -0.0119 -0.2790 -0.1778
   9623SM   H2S12951   1.986   2.540   4.004  0.4132 -0.8302 -1.6241
   9623SM   C3S12952   2.033   2.691   3.872  0.0654  0.5029  0.5377
   9623SM   H3S12953   2.005   2.788   3.824 -1.0096 -1.0267 -2.1250
   9623SM    O312954   2.069   2.613   3.753 -0.0684  0.4905 -0.1199
   9623SM   HO312955   1.993   2.555   3.745 -2.0615  3.0088 -0.8268
   9623SM   C4S12956   2.160   2.723   3.943  0.2566 -0.1599 -0.0189
   9623SM   H4S12957   2.209   2.633   3.982 -0.5483 -0.4836  0.2698
   9623SM   C5S12958   2.214   2.844   3.978 -0.9107 -0.1877 -0.0578
   9623SM   H5S12959   2.169   2.941   3.950 -1.4290 -0.8759 -1.7474
   9623SM   C6S12960   2.332   2.868   4.068  0.3307 -0.0971 -0.7499
   9623SM   H6S12961   2.417   2.895   4.003  0.4420 -0.4922 -0.7698
   9623SM   H6T12962   2.351   2.776   4.127 -2.2216 -0.7761 -0.8644
   9623SM   C7S12963   2.306   2.981   4.169  0.4068  0.1398 -0.2733
   9623SM   H7S12964   2.277   3.079   4.127 -0.1007  0.1481  0.0854
   9623SM   H7T12965   2.396   3.002   4.231  0.1446  1.9618 -0.4660
   9623SM   C8S12966   2.197   2.955   4.270 -0.2119  0.5640 -0.2440
   9623SM   H8S12967   2.171   2.847   4.273  1.0016  0.1820 -2.0397
   9623SM   H8T12968   2.096   3.000   4.255 -0.6793 -0.5475 -0.5267
   9623SM   C9S12969   2.233   2.990   4.420 -0.2018 -0.2785  0.7688
   9623SM   H9S12970   2.256   3.097   4.398 -1.4840 -0.3195 -0.9585
   9623SM   H9T12971   2.328   2.947   4.456  0.5620  1.1359  0.5115
   9623SM  C10S12972   2.119   2.980   4.516 -0.9245  0.2925 -0.8939
   9623SM  H10S12973   2.095   2.872   4.523  0.0197 -0.0235 -2.2554
   9623SM  H10T12974   2.035   3.041   4.476 -1.9743 -0.4317  0.1459
   9623SM  C11S12975   2.152   3.026   4.656  0.1661 -0.1522 -0.4916
   9623SM  H11S12976   2.065   3.009   4.723  0.8446 -0.1133  0.4264
   9623SM  H11T12977   2.175   3.135   4.648 -0.5588 -0.0639 -1.4821
   9623SM  C12S12978   2.256   2.948   4.730  0.1858  0.6104 -0.7504
   9623SM  H12S12979   2.345   2.917   4.671 -0.5267 -1.3675 -0.8584
   9623SM  H12T12980   2.215   2.847   4.752  1.7641  0.0188 -0.3785
   9623SM  C13S12981   2.311   3.007   4.860  0.1052  0.0352 -0.0356
   9623SM  H13S12982   2.331   3.115   4.849 -2.6250  0.9278  2.5153
   9623SM  H13T12983   2.403   2.949   4.880  0.0701 -0.3053 -0.7978
   9623SM  C14S12984   2.207   2.994   4.982 -0.5963 -0.6123  0.1540
   9623SM  H14S12985   2.190   2.889   5.015  1.4437 -0.5334  1.6790
   9623SM  H14T12986   2.126   3.058   4.941  2.5301  1.7556 -2.9595
   9623SM  C15S12987   2.257   3.067   5.108  0.6080 -0.7343 -0.6054
   9623SM  H15S12988   2.246   3.173   5.079 -3.6495 -1.1588 -1.1430
   9623SM  H15T12989   2.361   3.028   5.118 -0.1193 -2.2951  1.9601
   9623SM  C16S12990   2.193   3.026   5.239  0.3595 -0.2699 -0.1044
   9623SM  H16S12991   2.210   2.919   5.265 -0.2991 -0.2601  0.4068
   9623SM  H16T12992   2.085   3.050   5.232  0.5130  0.6833  0.5674
   9623SM  C17S12993   2.226   3.109   5.359  0.4567 -0.0925  0.1016
   9623SM  H17S12994   2.188   3.211   5.336  0.0845 -0.5189 -1.2311
   9623SM  H17T12995   2.335   3.114   5.381  0.0701 -0.8115  2.3771
   9623SM  C18S12996   2.166   3.078   5.498 -1.2100  0.4677  0.7327
   9623SM  H18S12997   2.060   3.067   5.467 -0.7776  0.7085 -0.9492
   9623SM  H18T12998   2.186   3.165   5.564  3.0320 -0.8291  1.4825
   9623SM  H18U12999   2.210   2.987   5.544  0.1748  0.2387 -0.9233
   9623SM   C1F13000   1.827   2.686   4.164  0.2120  0.1205 -0.3016
   9623SM    OF13001   1.797   2.570   4.183  0.0087  0.0612  0.0912
   9623SM   C2F13002   1.790   2.790   4.261  0.2050 -0.5550 -0.4863
   9623SM   H2F13003   1.694   2.835   4.230  0.5748  0.0222 -0.7946
   9623SM   H2G13004   1.876   2.860   4.272  0.5092 -1.0258  0.2321
   9623SM   C3F13005   1.764   2.751   4.408  0.6282 -0.7007 -0.7985
   9623SM   H3F13006   1.862   2.725   4.454  1.0584  1.4440 -0.3863
   9623SM   H3G13007   1.692   2.667   4.416  0.5635 -0.5770  0.0443
   9623SM   C4F13008   1.713   2.878   4.486  0.5997  0.1059  0.3483
   9623SM   H4F13009   1.620   2.918   4.439 -0.0560 -1.7195  0.0015
   9623SM   H4G13010   1.800   2.946   4.478  0.5396 -0.0231 -2.6907
   9623SM   C5F13011   1.686   2.857   4.635 -0.3908  0.5479  0.1825
   9623SM   H5F13012   1.737   2.772   4.683  0.6137  2.3936  2.5810
   9623SM   H5G13013   1.579   2.829   4.647 -0.0556 -2.6988 -2.7380
   9623SM   C6F13014   1.714   2.984   4.720  0.2856  0.9863 -0.0995
   9623SM   H6F13015   1.641   3.063   4.692 -0.8047  0.0096 -0.0946
   9623SM   H6G13016   1.818   3.017   4.705  0.6119  1.0037  1.9647
   9623SM   C7F13017   1.703   2.947   4.870 -0.0935 -0.5179 -0.1448
   9623SM   H7F13018   1.655   2.847   4.875 -0.1836 -0.5578 -1.5427
   9623SM   H7G13019   1.634   3.025   4.909  0.8456  0.2232  0.0496
   9623SM   C8F13020   1.834   2.932   4.945  0.0812  0.0182 -0.3706
   9623SM   H8F13021   1.888   3.029   4.943  0.3127 -0.1117 -1.6226
   9623SM   H8G13022   1.896   2.858   4.889  0.5231 -0.3767  0.6200
   9623SM   C9F13023   1.821   2.879   5.091  0.5459  0.4181 -0.6993
   9623SM   H9F13024   1.919   2.862   5.141  0.8843  2.3234 -0.6288
   9623SM   H9G13025   1.780   2.776   5.082  1.9250 -0.0519 -2.2327
   9623SM  C10F13026   1.726   2.953   5.184  0.1856 -0.1924  0.2547
   9623SM  H10F13027   1.619   2.942   5.155  0.6720 -2.1309 -1.0187
   9623SM  H10G13028   1.758   3.057   5.163 -1.6178  0.2165 -0.7214
   9623SM  C11F13029   1.739   2.926   5.333 -0.0310 -0.1349  0.0567
   9623SM  H11F13030   1.666   2.995   5.381 -1.9222 -1.8948 -0.1288
   9623SM  H11G13031   1.839   2.956   5.371  0.7671 -2.4181 -0.0951
   9623SM  C12F13032   1.713   2.781   5.372 -0.1574  0.0642  0.2786
   9623SM  H12F13033   1.787   2.722   5.314  0.9564  1.6395  0.0102
   9623SM  H12G13034   1.604   2.766   5.356  0.0210 -0.3511 -0.5931
   9623SM  C13F13035   1.726   2.754   5.518 -0.3051 -0.1860 -0.0279
   9623SM  H13F13036   1.684   2.652   5.535 -0.6655  0.3172  2.2950
   9623SM  H13G13037   1.672   2.821   5.587  0.0536 -1.3638  1.4460
   9623SM  C14F13038   1.870   2.752   5.565 -1.1605 -0.3246  0.1121
   9623SM  H14F13039   1.930   2.841   5.537  1.5734 -2.2084 -0.4453
   9623SM  H14G13040   1.917   2.668   5.510 -0.5887  0.3880 -0.5093
   9623SM  C15F13041   1.887   2.726   5.710  0.2251  0.2266 -0.1472
   9623SM  H15F13042   1.849   2.624   5.729 -0.4494  0.6419  0.8132
   9623SM  H15G13043   1.826   2.802   5.764 -0.5560 -0.3335 -0.2240
   9623SM  C16F13044   2.037   2.726   5.746  0.0179  0.6936  0.3684
   9623SM  H16F13045   2.075   2.830   5.751  0.5798  0.4798  0.6635
   9623SM  H16G13046   2.092   2.668   5.669  0.5722  1.1078  0.4426
   9623SM  C17F13047   2.056   2.667   5.890  0.7599 -0.7059  0.0002
   9623SM  H17F13048   2.057   2.557   5.871 -0.8459 -1.1763  2.2951
   9623SM  H17G13049   1.970   2.693   5.955  0.7582 -0.5164 -0.0781
   9623SM  C18F13050   2.195   2.692   5.948  0.1053 -0.5860 -0.2318
   9623SM  H18F13051   2.225   2.799   5.958 -1.9703  0.0437 -0.2611
   9623SM  H18G13052   2.266   2.646   5.877 -0.9297 -1.1899 -0.8965
   9623SM  C19F13053   2.214   2.634   6.092  0.1717  0.6217  0.0079
   9623SM  H19F13054   2.311   2.642   6.146  0.2212 -1.1590  0.2486
   9623SM  H19G13055   2.183   2.528   6.087 -0.6921  0.6909  2.4948
   9623SM  C20F13056   2.116   2.694   6.200  0.1178  0.0626 -0.0312
   9623SM  H20F13057   2.012   2.677   6.165  0.3412 -2.5445  0.3638
   9623SM  H20G13058   2.138   2.803   6.207  2.3602 -0.3950  1.1088
   9623SM  C21F13059   2.119   2.645   6.348 -0.1947  0.1183  0.7758
   9623SM  H21F13060   2.033   2.692   6.401 -0.4245 -0.2995  0.7784
   9623SM  H21G13061   2.214   2.687   6.386  0.0335  1.2548 -0.9274
   9623SM  C22F13062   2.095   2.499   6.364 -0.6785  0.1974 -0.8618
   9623SM  H22F13063   2.174   2.450   6.304  1.3652  1.0191  1.0390
   9623SM  H22G13064   1.991   2.485   6.327 -1.2309  1.7983 -0.0015
   9623SM  C23F13065   2.103   2.448   6.510  0.6743 -0.4493  0.0074
   9623SM  H23F13066   2.043   2.512   6.578  0.1991 -0.1178 -0.7174
   9623SM  H23G13067   2.206   2.449   6.553  0.7158  0.7006 -0.0868
   9623SM  H23H13068   2.063   2.345   6.519  1.1695 -0.7322 -0.8944
   9723SM     N13069   2.449   2.269   3.314 -0.4628 -0.0252  0.3144
   9723SM   C1513070   2.391   2.190   3.202 -0.3797 -0.5125 -0.0367
   9723SM  H15A13071   2.472   2.130   3.163  1.6931  1.9530  0.1898
   9723SM  H15B13072   2.361   2.262   3.127  1.1335  0.5276  0.3071
   9723SM  H15C13073   2.303   2.142   3.242  0.5106 -0.7144  1.7729
   9723SM   C1413074   2.567   2.341   3.269  0.4209  0.1910  0.0450
   9723SM  H14A13075   2.543   2.400   3.181 -0.4215 -0.6722 -0.3223
   9723SM  H14B13076   2.650   2.278   3.240 -0.2712 -0.9336  0.4500
   9723SM  H14C13077   2.596   2.408   3.348  0.8163  0.1209 -0.0358
   9723SM   C1313078   2.344   2.366   3.353  0.4805 -0.6503  0.7967
   9723SM  H13A13079   2.260   2.310   3.391 -0.9160 -0.0708 -1.2806
   9723SM  H13B13080   2.312   2.430   3.272  0.1507 -1.8485 -0.0520
   9723SM  H13C13081   2.374   2.425   3.439  1.1769  0.5172 -0.2149
   9723SM   C1213082   2.483   2.178   3.432  0.5325  0.3824  0.6461
   9723SM  H12A13083   2.554   2.099   3.409 -1.3772 -0.8284 -1.5898
   9723SM  H12B13084   2.404   2.105   3.441 -0.0760  0.6722 -1.7942
   9723SM   C1113085   2.521   2.237   3.571  0.9276 -0.2099  0.0031
   9723SM  H11A13086   2.510   2.155   3.645  0.8174 -0.8140 -0.6675
   9723SM  H11B13087   2.442   2.311   3.594  0.1356 -1.1451  0.3834
   9723SM     P13088   2.773   2.212   3.579 -0.1816 -0.1627  0.0324
   9723SM   O1313089   2.762   2.091   3.495  0.6900 -0.6569  0.1450
   9723SM   O1413090   2.891   2.295   3.545  0.4923  0.4242  0.4264
   9723SM   O1113091   2.789   2.174   3.727  0.1611  0.1174 -0.0956
   9723SM   O1213092   2.643   2.303   3.560  0.2423  0.2400 -0.2489
   9723SM   C1S13093   2.777   2.276   3.830  0.2417  0.3838 -0.2581
   9723SM   H1S13094   2.677   2.325   3.826  0.5265  1.0100  0.1226
   9723SM   H1T13095   2.853   2.356   3.813 -0.8280  1.6105  0.4835
   9723SM    NF13096   2.756   2.332   4.081  0.9972 -0.0001 -0.3249
   9723SM   HNF13097   2.822   2.345   4.155 -1.1212 -0.2163  1.7536
   9723SM   C2S13098   2.788   2.235   3.987  0.2043  0.5923  0.7096
   9723SM   H2S13099   2.704   2.162   3.994  0.4542  0.0683 -1.1073
   9723SM   C3S13100   2.918   2.159   4.013 -0.8020  0.1829  0.2471
   9723SM   H3S13101   3.008   2.222   3.998 -0.8875 -0.0676 -1.6531
   9723SM    O313102   2.945   2.053   3.919 -0.1883 -0.1187  0.2062
   9723SM   HO313103   2.886   2.068   3.845  2.5086 -0.5213 -2.2185
   9723SM   C4S13104   2.916   2.101   4.151  0.2498  0.7243 -0.0571
   9723SM   H4S13105   2.871   2.002   4.167 -1.6307  1.2748 -1.5800
   9723SM   C5S13106   2.984   2.160   4.249  0.5080 -0.0308 -0.7585
   9723SM   H5S13107   3.049   2.247   4.234  2.3519 -0.8339  1.9936
   9723SM   C6S13108   3.009   2.100   4.387 -0.3409  0.2651  0.4013
   9723SM   H6S13109   2.946   2.166   4.451 -2.0370 -0.7599 -0.1219
   9723SM   H6T13110   3.117   2.104   4.413  0.2005 -2.1400 -1.1557
   9723SM   C7S13111   2.969   1.953   4.401 -0.0027  0.0001  0.0615
   9723SM   H7S13112   3.033   1.896   4.331  0.7844 -0.7086  1.3129
   9723SM   H7T13113   2.861   1.937   4.379 -0.2283  1.9390 -0.4798
   9723SM   C8S13114   2.994   1.886   4.537 -0.2234  0.4734 -0.7414
   9723SM   H8S13115   2.954   1.783   4.548 -0.1052  0.6547  2.2117
   9723SM   H8T13116   2.935   1.944   4.612  1.1940 -2.0380  2.5569
   9723SM   C9S13117   3.133   1.897   4.595 -0.2710 -1.3455 -0.5709
   9723SM   H9S13118   3.159   1.998   4.635 -2.4563 -1.1278  0.4621
   9723SM   H9T13119   3.209   1.881   4.515  0.5163  2.2183 -0.7491
   9723SM  C10S13120   3.167   1.814   4.722 -1.1484  0.4143 -0.7793
   9723SM  H10S13121   3.275   1.827   4.744 -1.4161 -0.0271  0.9122
   9723SM  H10T13122   3.155   1.704   4.715 -2.3691  0.5031 -0.4127
   9723SM  C11S13123   3.096   1.854   4.858 -0.1285 -0.0865 -0.1728
   9723SM  H11S13124   3.007   1.787   4.862 -1.6752  1.6980 -2.1039
   9723SM  H11T13125   3.070   1.962   4.848  4.4615  1.2704  0.3522
   9723SM  C12S13126   3.180   1.843   4.991 -0.2446  1.4490 -0.4793
   9723SM  H12S13127   3.260   1.919   4.981  0.4002  0.7937 -0.3696
   9723SM  H12T13128   3.231   1.745   4.989  0.3165  1.6693  1.3093
   9723SM  C13S13129   3.104   1.866   5.125  0.0995 -0.3007  0.0966
   9723SM  H13S13130   3.011   1.806   5.131  0.6454 -1.1251  0.4181
   9723SM  H13T13131   3.068   1.971   5.120  1.7053  0.2976  0.3196
   9723SM  C14S13132   3.192   1.833   5.249  0.1956  0.1786 -0.0087
   9723SM  H14S13133   3.282   1.896   5.240  0.8993  0.2381  4.8571
   9723SM  H14T13134   3.217   1.725   5.256 -0.8103  0.0363  2.8320
   9723SM  C15S13135   3.114   1.861   5.379 -0.1144 -0.2457  0.6995
   9723SM  H15S13136   3.031   1.787   5.381  0.3745 -0.7869  1.1426
   9723SM  H15T13137   3.087   1.969   5.375  1.6334  0.3149  2.4542
   9723SM  C16S13138   3.212   1.847   5.491  0.4339 -0.2583  0.3514
   9723SM  H16S13139   3.281   1.934   5.497  1.0062 -0.7477  1.3048
   9723SM  H16T13140   3.271   1.754   5.479 -1.8586 -1.7079 -0.3590
   9723SM  C17S13141   3.154   1.825   5.633  0.1862 -0.0279  0.9899
   9723SM  H17S13142   3.186   1.725   5.669 -2.5247 -1.4955 -0.3498
   9723SM  H17T13143   3.044   1.814   5.619 -0.0758 -1.6185  3.6255
   9723SM  C18S13144   3.184   1.936   5.727 -0.7163 -0.3384  0.0802
   9723SM  H18S13145   3.141   1.913   5.827  0.9005  1.4364  1.2637
   9723SM  H18T13146   3.144   2.031   5.686  0.4235 -0.4723 -1.4581
   9723SM  H18U13147   3.292   1.949   5.748 -0.2103 -1.3689 -1.7055
   9723SM   C1F13148   2.630   2.371   4.109  0.4503  0.0397  0.0989
   9723SM    OF13149   2.541   2.338   4.035 -0.1800 -0.2670  0.3777
   9723SM   C2F13150   2.607   2.436   4.235 -0.4061 -0.2112 -0.0832
   9723SM   H2F13151   2.676   2.523   4.238 -1.1430  0.3992 -0.5769
   9723SM   H2G13152   2.641   2.372   4.319 -0.8210 -1.3568 -0.7703
   9723SM   C3F13153   2.471   2.496   4.246 -0.2668 -0.5093  0.0077
   9723SM   H3F13154   2.393   2.419   4.266 -1.2096  0.5932  0.7326
   9723SM   H3G13155   2.436   2.544   4.153  0.4482  0.4146  0.2042
   9723SM   C4F13156   2.462   2.602   4.357  0.6760  0.5024 -0.0213
   9723SM   H4F13157   2.366   2.658   4.366  0.6644  0.6510 -1.0319
   9723SM   H4G13158   2.541   2.680   4.360  0.9474  0.2313 -0.0432
   9723SM   C5F13159   2.490   2.546   4.498 -1.1570 -0.3954 -0.2242
   9723SM   H5F13160   2.573   2.472   4.501 -0.7930  0.0385  1.8488
   9723SM   H5G13161   2.396   2.510   4.543 -1.2701  1.3949  1.1003
   9723SM   C6F13162   2.524   2.657   4.603 -0.2262  0.2468 -0.4047
   9723SM   H6F13163   2.430   2.716   4.600 -1.3043 -1.4406 -1.3631
   9723SM   H6G13164   2.593   2.731   4.557  1.1994  0.2869  1.6515
   9723SM   C7F13165   2.571   2.595   4.735 -0.7048 -0.2192 -0.5098
   9723SM   H7F13166   2.676   2.559   4.720 -0.5688 -0.2672  0.5183
   9723SM   H7G13167   2.513   2.508   4.770  2.4747 -1.1946  2.9244
   9723SM   C8F13168   2.571   2.695   4.853 -0.0560 -0.6618  0.7778
   9723SM   H8F13169   2.463   2.717   4.865 -0.1773 -1.1450  0.5777
   9723SM   H8G13170   2.628   2.788   4.832 -0.5334 -0.6163 -0.3983
   9723SM   C9F13171   2.620   2.629   4.977  0.2120 -0.1678  0.0100
   9723SM   H9F13172   2.715   2.576   4.956 -0.8994 -1.8392 -1.0720
   9723SM   H9G13173   2.548   2.550   5.005  2.7878 -1.3931  3.9238
   9723SM  C10F13174   2.634   2.715   5.102 -0.3897 -0.3131 -0.0206
   9723SM  H10F13175   2.570   2.806   5.097  1.6687  1.1805 -0.9331
   9723SM  H10G13176   2.738   2.753   5.114  0.1858 -1.9513  0.4310
   9723SM  C11F13177   2.597   2.644   5.236  0.2009 -0.5516  0.0635
   9723SM  H11F13178   2.489   2.618   5.238  0.0147  0.1665 -0.3384
   9723SM  H11G13179   2.617   2.710   5.322 -1.1126 -0.3266  0.2146
   9723SM  C12F13180   2.673   2.520   5.257  0.1014  0.3653  0.0706
   9723SM  H12F13181   2.776   2.554   5.235 -1.2726  3.7622 -1.7637
   9723SM  H12G13182   2.640   2.442   5.185  1.4447 -1.0712  0.9409
   9723SM  C13F13183   2.661   2.472   5.407 -0.6281  0.1308  0.0122
   9723SM  H13F13184   2.554   2.463   5.435  0.1784  0.4129  3.6364
   9723SM  H13G13185   2.694   2.558   5.469 -0.5737 -1.3260  2.0886
   9723SM  C14F13186   2.750   2.353   5.445  0.2875 -0.1365 -0.2363
   9723SM  H14F13187   2.856   2.375   5.422  0.6229  0.1241  1.4039
   9723SM  H14G13188   2.712   2.267   5.385 -0.7865 -0.0254  0.2472
   9723SM  C15F13189   2.731   2.320   5.597 -0.1128  0.2828 -0.2119
   9723SM  H15F13190   2.622   2.322   5.619  0.0485  0.8115  0.5837
   9723SM  H15G13191   2.780   2.395   5.662 -0.4247  0.7759 -0.5411
   9723SM  C16F13192   2.797   2.177   5.625  0.2781 -0.0339  0.8811
   9723SM  H16F13193   2.897   2.207   5.662  0.0613  0.2055  1.2765
   9723SM  H16G13194   2.799   2.125   5.527 -0.2104 -0.1550  0.9330
   9723SM  C17F13195   2.713   2.097   5.729  0.3200 -0.3391 -0.0099
   9723SM  H17F13196   2.611   2.094   5.684  0.8871 -1.0283 -1.2953
   9723SM  H17G13197   2.712   2.133   5.834  1.7664 -0.5792  0.0975
   9723SM  C18F13198   2.753   1.946   5.737  0.3928  0.5738  0.5246
   9723SM  H18F13199   2.863   1.929   5.735  0.7876  2.8380  0.1560
   9723SM  H18G13200   2.723   1.897   5.642 -0.8047  1.3347  0.4883
   9723SM  C19F13201   2.688   1.875   5.849  0.2568 -0.1235 -0.1866
   9723SM  H19F13202   2.588   1.920   5.868  0.0174 -1.6497  2.6999
   9723SM  H19G13203   2.740   1.883   5.947  1.6339 -1.9943 -0.6933
   9723SM  C20F13204   2.663   1.723   5.837  0.1875  0.0757 -1.2939
   9723SM  H20F13205   2.576   1.707   5.770 -0.9677  0.2869  0.1166
   9723SM  H20G13206   2.634   1.698   5.941 -0.9815  1.1167 -1.3510
   9723SM  C21F13207   2.777   1.634   5.786  0.0157 -0.1405  0.2998
   9723SM  H21F13208   2.787   1.660   5.678 -3.0991 -1.6179 -0.4666
   9723SM  H21G13209   2.754   1.526   5.795  2.3290 -0.5093  2.7425
   9723SM  C22F13210   2.911   1.640   5.866 -0.7955  0.6090 -0.0229
   9723SM  H22F13211   2.914   1.741   5.914 -2.4202  1.8040 -2.2695
   9723SM  H22G13212   2.997   1.630   5.797  0.6367 -1.7340  1.9292
   9723SM  C23F13213   2.928   1.531   5.967  0.0243 -0.3585 -0.5128
   9723SM  H23F13214   2.850   1.527   6.047 -0.8311  0.8509 -1.2688
   9723SM  H23G13215   3.031   1.544   6.007 -0.2568  0.7192 -0.1156
   9723SM  H23H13216   2.917   1.433   5.916 -1.2103 -0.1827 -0.6074
   9823SM     N13217   4.754   4.057   3.643  0.3739  0.4643  0.7468
   9823SM   C1513218   4.895   4.076   3.590  0.0004 -0.4659  0.0980
   9823SM  H15A13219   4.961   3.999   3.629 -0.0433 -1.7574 -2.1434
   9823SM  H15B13220   4.933   4.176   3.604 -0.9220 -0.1003  0.0296
   9823SM  H15C13221   4.905   4.077   3.482  3.0222  0.7063  0.2899
   9823SM   C1413222   4.766   4.069   3.790 -0.8636  0.6715 -0.6866
   9823SM  H14A13223   4.831   4.149   3.821  0.1091 -1.0538  2.0978
   9823SM  H14B13224   4.816   3.985   3.837  0.7806  1.0773 -1.6058
   9823SM  H14C13225   4.677   4.102   3.841  0.3416  1.5296  0.9383
   9823SM   C1313226   4.670   4.176   3.592  0.0897  0.3430 -1.0243
   9823SM  H13A13227   4.711   4.272   3.620  1.5185 -0.4980 -0.1378
   9823SM  H13B13228   4.574   4.169   3.641  0.5223  0.9833 -0.0551
   9823SM  H13C13229   4.650   4.170   3.486 -1.1306 -1.3637 -0.7399
   9823SM   C1213230   4.684   3.921   3.609 -0.2170  0.0475 -0.1457
   9823SM  H12A13231   4.745   3.843   3.651 -1.0152 -0.1036  0.7952
   9823SM  H12B13232   4.665   3.904   3.504 -0.6273 -1.7214  0.1779
   9823SM   C1113233   4.543   3.889   3.677  0.0460 -0.0961  0.1112
   9823SM  H11A13234   4.565   3.907   3.784 -0.2283  1.3239 -0.0442
   9823SM  H11B13235   4.528   3.781   3.657 -1.3097 -0.3170  2.0370
   9823SM     P13236   4.331   4.044   3.686 -0.3194  0.3181  0.4468
   9823SM   O1313237   4.386   4.171   3.740  0.3829  0.2130 -0.0902
   9823SM   O1413238   4.217   4.049   3.591 -0.2084 -0.0446 -0.2637
   9823SM   O1113239   4.301   3.937   3.800 -0.3950 -0.6683  0.0079
   9823SM   O1213240   4.444   3.973   3.613  0.0837  0.6517 -0.0987
   9823SM   C1S13241   4.323   3.969   3.939  0.0664  0.9296  0.4473
   9823SM   H1S13242   4.420   4.022   3.946  1.2327 -0.9618 -0.4773
   9823SM   H1T13243   4.339   3.874   3.994 -1.2567  1.2675  1.4740
   9823SM    NF13244   4.248   4.041   4.159  0.1515  0.7099  0.2187
   9823SM   HNF13245   4.217   3.984   4.234  1.4755  1.0253  1.0354
   9823SM   C2S13246   4.204   4.029   4.025 -0.0148  0.3112  0.2053
   9823SM   H2S13247   4.182   4.128   3.979  0.5241  0.6723  0.7261
   9823SM   C3S13248   4.079   3.937   4.003 -0.1306  0.6644  0.2082
   9823SM   H3S13249   4.113   3.842   4.049  0.5156  1.1340  0.7330
   9823SM    O313250   4.046   3.899   3.869  0.5340  0.5611 -0.0954
   9823SM   HO313251   4.131   3.897   3.825 -0.6429 -1.6770 -2.5176
   9823SM   C4S13252   3.959   3.995   4.066  0.4203 -0.5214  0.1283
   9823SM   H4S13253   3.927   4.093   4.026  3.7108  0.9531  0.7071
   9823SM   C5S13254   3.906   3.953   4.183 -0.1024  0.3520  0.9559
   9823SM   H5S13255   3.947   3.863   4.232 -0.7067  0.4576  1.6784
   9823SM   C6S13256   3.791   4.013   4.258 -0.9516  0.0074 -0.6404
   9823SM   H6S13257   3.709   3.938   4.263 -1.7203  0.7608 -1.5892
   9823SM   H6T13258   3.750   4.101   4.204 -3.2522 -1.4063 -1.3514
   9823SM   C7S13259   3.828   4.060   4.404 -0.1258 -0.8692  0.2096
   9823SM   H7S13260   3.749   4.122   4.453  1.3037  0.8524  0.4459
   9823SM   H7T13261   3.916   4.126   4.388 -0.4231  0.2627  2.6938
   9823SM   C8S13262   3.865   3.943   4.490 -0.0511 -0.3008  0.2561
   9823SM   H8S13263   3.961   3.900   4.453 -0.2725 -1.2949  0.8017
   9823SM   H8T13264   3.783   3.870   4.473  0.5428 -0.8837 -0.1596
   9823SM   C9S13265   3.876   3.973   4.641  0.1886 -0.1651 -0.2659
   9823SM   H9S13266   3.927   4.071   4.650  0.0274  0.1128 -1.9443
   9823SM   H9T13267   3.934   3.889   4.685 -1.5482 -0.8220  0.8712
   9823SM  C10S13268   3.744   3.976   4.712  0.8187  0.0441 -0.1968
   9823SM  H10S13269   3.705   3.872   4.706  0.5703 -0.0503  2.0494
   9823SM  H10T13270   3.673   4.044   4.661  1.3848  0.9332  0.1783
   9823SM  C11S13271   3.761   4.005   4.859 -0.1580 -0.4372 -0.3675
   9823SM  H11S13272   3.665   4.009   4.915  0.6054  1.0609  0.9144
   9823SM  H11T13273   3.807   4.105   4.872  0.4750 -0.7790  0.0802
   9823SM  C12S13274   3.841   3.896   4.929  0.2293 -1.0125  0.2118
   9823SM  H12S13275   3.949   3.916   4.909 -0.2887  1.9423 -0.1165
   9823SM  H12T13276   3.832   3.795   4.884 -0.0977 -0.7949 -0.2293
   9823SM  C13S13277   3.828   3.892   5.079  0.0493 -0.6686 -0.4486
   9823SM  H13S13278   3.818   3.997   5.115  0.9038 -0.3848 -1.0132
   9823SM  H13T13279   3.927   3.858   5.116  0.4744  0.0235 -0.9224
   9823SM  C14S13280   3.717   3.808   5.137  0.0624 -0.5100 -0.2209
   9823SM  H14S13281   3.729   3.702   5.104 -0.5262 -1.0821  1.2973
   9823SM  H14T13282   3.618   3.851   5.110  0.6243  1.2403  0.3566
   9823SM  C15S13283   3.724   3.812   5.284  0.0329  0.2788 -0.0778
   9823SM  H15S13284   3.819   3.863   5.311  0.1051  0.3390 -0.4494
   9823SM  H15T13285   3.710   3.709   5.324  0.1557  0.0306 -0.6681
   9823SM  C16S13286   3.611   3.903   5.345 -0.1541  0.5766  0.1578
   9823SM  H16S13287   3.512   3.857   5.323  0.3578  1.0612 -3.9178
   9823SM  H16T13288   3.625   4.002   5.296 -1.7445  0.8717  0.2450
   9823SM  C17S13289   3.622   3.922   5.496 -1.3319 -0.1255  0.1289
   9823SM  H17S13290   3.552   3.992   5.547 -1.5650 -1.6578  2.0293
   9823SM  H17T13291   3.722   3.961   5.524 -1.3145 -1.8751  2.8367
   9823SM  C18S13292   3.610   3.783   5.561  1.1180  0.4657  0.2289
   9823SM  H18S13293   3.586   3.795   5.669  1.6040 -0.4858  0.4547
   9823SM  H18T13294   3.708   3.735   5.539  1.7788  2.1585 -0.6797
   9823SM  H18U13295   3.522   3.730   5.518  0.3453  2.1334 -0.3145
   9823SM   C1F13296   4.341   4.123   4.190  0.3583 -0.3488 -0.3935
   9823SM    OF13297   4.390   4.211   4.118  0.0342  0.1983 -0.3171
   9823SM   C2F13298   4.392   4.106   4.331 -0.1595 -0.4045 -0.3165
   9823SM   H2F13299   4.503   4.114   4.328 -0.2236  0.8588 -0.1364
   9823SM   H2G13300   4.358   4.008   4.370 -1.5551 -1.0056 -2.8554
   9823SM   C3F13301   4.334   4.213   4.420  0.1200  0.0128 -0.6374
   9823SM   H3F13302   4.223   4.209   4.411  0.1260 -0.3163 -0.5817
   9823SM   H3G13303   4.366   4.312   4.380  0.6570  0.2376  0.3375
   9823SM   C4F13304   4.382   4.192   4.567  0.9391 -0.1063 -0.6681
   9823SM   H4F13305   4.488   4.219   4.582  0.4611  0.9041  1.2699
   9823SM   H4G13306   4.358   4.089   4.600 -2.6493  1.0573  0.9465
   9823SM   C5F13307   4.297   4.283   4.662 -0.5089  0.3490 -0.2397
   9823SM   H5F13308   4.191   4.280   4.631 -0.1270  1.4554 -1.7331
   9823SM   H5G13309   4.331   4.385   4.634 -1.0695  0.3145 -1.0834
   9823SM   C6F13310   4.310   4.242   4.811  0.0401 -0.3012 -0.0266
   9823SM   H6F13311   4.273   4.318   4.884 -1.0347  0.7605 -1.6025
   9823SM   H6G13312   4.419   4.229   4.830 -0.4367 -4.4176  0.6200
   9823SM   C7F13313   4.250   4.100   4.850 -0.0635 -0.4433 -0.0049
   9823SM   H7F13314   4.280   4.026   4.772 -0.3488  0.2002 -0.7433
   9823SM   H7G13315   4.140   4.108   4.833 -0.0891 -0.9872 -0.1253
   9823SM   C8F13316   4.293   4.055   4.988  0.2784 -0.3161 -0.2106
   9823SM   H8F13317   4.403   4.063   4.984  0.4308 -1.3090  1.1848
   9823SM   H8G13318   4.265   3.948   5.001  1.4548 -0.7952 -1.3825
   9823SM   C9F13319   4.233   4.135   5.104 -0.0630  0.2565 -0.3058
   9823SM   H9F13320   4.122   4.122   5.101 -0.6139  3.8548  0.1405
   9823SM   H9G13321   4.251   4.243   5.084  0.3074  0.5266  1.3417
   9823SM  C10F13322   4.282   4.103   5.243  0.8382  0.0620  0.3877
   9823SM  H10F13323   4.283   4.198   5.299 -4.2546 -0.3119  1.6569
   9823SM  H10G13324   4.386   4.065   5.233  0.9279  0.6677 -1.3770
   9823SM  C11F13325   4.191   4.011   5.323  0.6587 -0.0292  0.2480
   9823SM  H11F13326   4.261   3.952   5.386  3.2462  1.4091 -1.0901
   9823SM  H11G13327   4.147   3.938   5.252 -0.2145 -0.1849  0.9403
   9823SM  C12F13328   4.085   4.071   5.417  0.2243 -0.2795  1.1489
   9823SM  H12F13329   4.004   4.000   5.444 -1.6404  0.3274 -2.2580
   9823SM  H12G13330   4.039   4.142   5.346  2.9983  0.4149 -0.1157
   9823SM  C13F13331   4.133   4.157   5.536  0.1036 -0.5092 -0.1820
   9823SM  H13F13332   4.213   4.227   5.504  0.0542 -0.6299 -0.5774
   9823SM  H13G13333   4.183   4.078   5.595 -0.8889 -1.2516 -0.3090
   9823SM  C14F13334   4.018   4.220   5.619  0.1765  0.9465 -0.2904
   9823SM  H14F13335   3.930   4.238   5.554  0.5693  1.7402 -0.6190
   9823SM  H14G13336   4.044   4.317   5.667 -0.6408  0.7884  0.5044
   9823SM  C15F13337   3.988   4.111   5.726  0.3738  0.2086  0.2651
   9823SM  H15F13338   4.082   4.095   5.784  1.6756  0.5933 -1.6170
   9823SM  H15G13339   3.959   4.015   5.677  1.8185 -0.0446 -0.1564
   9823SM  C16F13340   3.885   4.167   5.828  0.2582  0.6510 -0.5048
   9823SM  H16F13341   3.780   4.179   5.793  0.2314 -1.1304 -1.1485
   9823SM  H16G13342   3.930   4.264   5.859 -0.5214  1.6804 -2.4009
   9823SM  C17F13343   3.845   4.082   5.952 -0.0512  0.1105 -0.1376
   9823SM  H17F13344   3.930   4.069   6.023 -0.6681  0.0030  0.5922
   9823SM  H17G13345   3.830   3.979   5.913  0.4596 -0.1465  0.3284
   9823SM  C18F13346   3.714   4.134   6.021 -0.2908 -0.6951  0.1405
   9823SM  H18F13347   3.637   4.176   5.952  0.9189 -2.8325 -2.7338
   9823SM  H18G13348   3.740   4.225   6.079 -1.2923 -0.3454  0.0761
   9823SM  C19F13349   3.664   4.029   6.119  0.1439  0.3356  0.2495
   9823SM  H19F13350   3.740   3.990   6.190 -0.8804 -2.7537 -0.1803
   9823SM  H19G13351   3.634   3.939   6.061  1.7169  0.4698 -0.8274
   9823SM  C20F13352   3.556   4.093   6.207  0.0352 -0.8020  0.5844
   9823SM  H20F13353   3.461   4.104   6.149  1.4196 -1.9270 -2.1063
   9823SM  H20G13354   3.595   4.186   6.253 -0.9059 -0.0943 -0.0081
   9823SM  C21F13355   3.520   4.000   6.325  0.7103 -0.4534 -0.6958
   9823SM  H21F13356   3.514   3.893   6.295  1.1835 -0.8982  0.7295
   9823SM  H21G13357   3.413   4.007   6.354  1.0263 -0.1227  0.4228
   9823SM  C22F13358   3.606   4.030   6.438 -0.1115 -0.2074  0.3336
   9823SM  H22F13359   3.607   4.140   6.455 -1.5648 -0.2915  1.1254
   9823SM  H22G13360   3.712   4.004   6.420 -0.0927  0.1584 -0.0862
   9823SM  C23F13361   3.566   3.969   6.568 -0.3375 -0.0424  0.2847
   9823SM  H23F13362   3.474   4.010   6.614  0.7792  0.8262  1.8771
   9823SM  H23G13363   3.642   3.987   6.647  1.2393 -0.1275 -1.1557
   9823SM  H23H13364   3.550   3.860   6.561 -1.3170  0.0336  1.2065
   9923SM     N13365   0.229   4.250   4.137  0.3120  0.0002 -0.6789
   9923SM   C1513366   0.239   4.115   4.208  0.2823  0.2765 -0.0170
   9923SM  H15A13367   0.152   4.054   4.194 -0.1623  1.4485 -3.2583
   9923SM  H15B13368   0.243   4.127   4.315  1.2703  0.1832 -0.0304
   9923SM  H15C13369   0.324   4.058   4.174  0.2418  0.5343 -0.5711
   9923SM   C1413370   0.300   4.353   4.226  0.4294  0.0929  0.5818
   9923SM  H14A13371   0.406   4.335   4.215  0.6446 -0.0300  2.5453
   9923SM  H14B13372   0.277   4.337   4.330  0.4097  1.1544  0.7441
   9923SM  H14C13373   0.288   4.455   4.192  1.2846  0.3198  0.9443
   9923SM   C1313374   0.291   4.242   4.003 -0.3884  0.8959 -0.2745
   9923SM  H13A13375   0.393   4.206   4.011 -0.7062  0.0184 -0.0752
   9923SM  H13B13376   0.284   4.339   3.955 -0.3899  1.3015  0.5145
   9923SM  H13C13377   0.241   4.178   3.932 -0.6359  1.2197 -0.3949
   9923SM   C1213378   0.082   4.289   4.128  0.9933  0.0282  1.1201
   9923SM  H12A13379   0.076   4.373   4.060  0.4083 -0.4021  0.6286
   9923SM  H12B13380   0.036   4.329   4.217 -3.7642 -0.9251 -0.5919
   9923SM   C1113381  -0.018   4.190   4.062 -0.6600 -0.3936  0.2527
   9923SM  H11A13382   0.036   4.148   3.975  0.1812 -0.9084  1.0085
   9923SM  H11B13383  -0.101   4.253   4.022  0.4475  1.5774  0.9100
   9923SM     P13384  -0.195   4.057   4.205 -0.2129  0.0868 -0.0761
   9923SM   O1313385  -0.212   4.166   4.307  0.0697  0.8153  0.2092
   9923SM   O1413386  -0.304   4.045   4.105  0.2371  0.3302 -0.1766
   9923SM   O1113387  -0.184   3.920   4.295  0.4512 -0.4053 -0.1603
   9923SM   O1213388  -0.048   4.078   4.147  0.1364  0.2217 -0.1297
   9923SM   C1S13389  -0.086   3.899   4.393 -0.0336  0.5509  0.1352
   9923SM   H1S13390  -0.055   4.000   4.429  0.8937  0.1636  0.4695
   9923SM   H1T13391   0.006   3.852   4.351 -0.7739  0.7902 -1.8885
   9923SM    NF13392  -0.043   3.816   4.624  0.0502 -0.5516  0.0422
   9923SM   HNF13393  -0.017   3.727   4.661  0.1641  0.3373  2.2952
   9923SM   C2S13394  -0.154   3.823   4.514 -0.0069 -0.4456  0.4300
   9923SM   H2S13395  -0.233   3.891   4.554 -1.1203 -1.5489  0.1671
   9923SM   C3S13396  -0.228   3.692   4.471 -0.6792 -0.5788  0.0468
   9923SM   H3S13397  -0.151   3.624   4.431  0.8687  0.2053  1.5613
   9923SM    O313398  -0.321   3.716   4.361 -0.2609  0.0723 -0.2163
   9923SM   HO313399  -0.278   3.793   4.321  0.8087  0.6808  1.9493
   9923SM   C4S13400  -0.298   3.636   4.591 -0.1492  0.2202  0.2787
   9923SM   H4S13401  -0.244   3.550   4.632 -0.5440 -0.0068  0.3246
   9923SM   C5S13402  -0.424   3.663   4.636 -0.1108 -0.0669 -0.2121
   9923SM   H5S13403  -0.491   3.732   4.582  0.1679 -0.6402 -1.3231
   9923SM   C6S13404  -0.490   3.603   4.755  0.6292  0.1586 -0.8647
   9923SM   H6S13405  -0.578   3.538   4.737 -0.2968  0.2226  2.6446
   9923SM   H6T13406  -0.537   3.692   4.803  0.1364 -0.7762  0.4411
   9923SM   C7S13407  -0.395   3.537   4.862  0.0597  0.0150  0.8681
   9923SM   H7S13408  -0.329   3.618   4.900  1.4444 -1.0986  0.9161
   9923SM   H7T13409  -0.337   3.457   4.811 -0.7790  0.9752 -1.7571
   9923SM   C8S13410  -0.480   3.483   4.977 -0.8282  0.0686 -0.1290
   9923SM   H8S13411  -0.523   3.387   4.942  1.4481 -0.2418 -2.2820
   9923SM   H8T13412  -0.568   3.545   5.007 -0.3708  1.2124 -1.0807
   9923SM   C9S13413  -0.394   3.462   5.104  0.2977  0.6662 -0.1373
   9923SM   H9S13414  -0.357   3.563   5.131 -1.1104  0.8199  1.4372
   9923SM   H9T13415  -0.311   3.395   5.074  0.5053  1.7522 -2.1376
   9923SM  C10S13416  -0.467   3.406   5.231 -0.0277 -0.1644 -0.1326
   9923SM  H10S13417  -0.514   3.308   5.209 -1.8867  0.6367  0.0622
   9923SM  H10T13418  -0.554   3.475   5.237 -0.2955 -0.5933  1.0881
   9923SM  C11S13419  -0.379   3.404   5.359  0.1084  0.0700  0.1585
   9923SM  H11S13420  -0.328   3.501   5.381  0.1598  0.4813 -1.5762
   9923SM  H11T13421  -0.308   3.319   5.348 -0.6025 -0.2313 -3.1361
   9923SM  C12S13422  -0.463   3.356   5.484  0.0064  0.7246  0.0334
   9923SM  H12S13423  -0.387   3.314   5.554 -1.7138 -5.6960 -1.2828
   9923SM  H12T13424  -0.539   3.277   5.467 -0.3908  0.8584  1.1215
   9923SM  C13S13425  -0.538   3.464   5.559 -1.0511 -0.2779 -0.7334
   9923SM  H13S13426  -0.631   3.483   5.503 -0.8796 -1.3096 -1.4017
   9923SM  H13T13427  -0.484   3.560   5.575 -0.1248 -1.1811  2.1963
   9923SM  C14S13428  -0.600   3.399   5.685  0.3298 -0.6578  0.1480
   9923SM  H14S13429  -0.524   3.377   5.764  0.4749  1.0419  0.5229
   9923SM  H14T13430  -0.661   3.309   5.665  1.5930 -1.3375 -0.7056
   9923SM  C15S13431  -0.720   3.480   5.730  0.2951 -0.0433  0.0509
   9923SM  H15S13432  -0.802   3.463   5.657  0.8902  0.3329 -0.7163
   9923SM  H15T13433  -0.681   3.584   5.736 -1.4476  0.6597 -0.2684
   9923SM  C16S13434  -0.771   3.438   5.871  0.4310  0.0723  0.1634
   9923SM  H16S13435  -0.699   3.407   5.950 -0.8981 -1.7543  0.7211
   9923SM  H16T13436  -0.818   3.341   5.842 -0.4077  0.3950  0.4106
   9923SM  C17S13437  -0.885   3.522   5.935 -0.3115  0.8032  0.5475
   9923SM  H17S13438  -0.931   3.456   6.012  2.1450 -0.4931  1.0254
   9923SM  H17T13439  -0.963   3.542   5.859  1.1131  0.8308 -0.9678
   9923SM  C18S13440  -0.850   3.649   6.006 -0.3666 -0.1823  0.2792
   9923SM  H18S13441  -0.754   3.657   6.060 -0.4198 -3.6847  1.1049
   9923SM  H18T13442  -0.931   3.688   6.071 -0.4220 -0.5957  0.4612
   9923SM  H18U13443  -0.857   3.729   5.929 -0.5568 -0.4674 -0.0032
   9923SM   C1F13444   0.000   3.925   4.688 -0.1171 -0.0552  0.4577
   9923SM    OF13445  -0.045   4.033   4.667 -0.4566  0.6355  0.2992
   9923SM   C2F13446   0.112   3.899   4.786 -0.1624  0.2909  0.7395
   9923SM   H2F13447   0.201   3.955   4.751  0.7271 -2.2786 -1.5034
   9923SM   H2G13448   0.136   3.791   4.786 -2.3229 -0.2705 -1.0511
   9923SM   C3F13449   0.077   3.926   4.930 -0.5611 -0.2432  0.2876
   9923SM   H3F13450  -0.004   3.858   4.964 -0.3752 -0.5987  0.0222
   9923SM   H3G13451   0.040   4.030   4.944 -0.9862 -0.3190 -0.2720
   9923SM   C4F13452   0.191   3.899   5.030  0.8202 -0.1903 -0.1734
   9923SM   H4F13453   0.291   3.934   4.997  0.3556  0.7004 -0.6725
   9923SM   H4G13454   0.187   3.788   5.044 -0.6656 -0.3580 -1.6248
   9923SM   C5F13455   0.158   3.955   5.174 -0.0159 -0.6645 -0.1065
   9923SM   H5F13456   0.048   3.959   5.192 -0.5374  0.8793 -2.9158
   9923SM   H5G13457   0.188   4.062   5.162 -2.5072  0.2639  1.1052
   9923SM   C6F13458   0.239   3.894   5.290 -0.0849 -0.1464  0.4409
   9923SM   H6F13459   0.346   3.910   5.266 -0.0570 -0.4980  0.3262
   9923SM   H6G13460   0.220   3.784   5.294  0.9965 -0.5747 -3.0187
   9923SM   C7F13461   0.193   3.966   5.421 -0.3099 -0.1886  0.0151
   9923SM   H7F13462   0.084   3.953   5.436 -0.4567 -0.3887 -1.1469
   9923SM   H7G13463   0.210   4.074   5.400  0.9805 -0.7414 -2.1553
   9923SM   C8F13464   0.285   3.940   5.539  0.3316  0.4813  0.8766
   9923SM   H8F13465   0.390   3.963   5.512 -0.0780  1.9404  0.4519
   9923SM   H8G13466   0.271   3.832   5.564  0.4694  0.2875  0.1352
   9923SM   C9F13467   0.249   4.025   5.662  0.3533  1.2180 -0.1157
   9923SM   H9F13468   0.140   4.016   5.678  0.4885  0.5662  0.5013
   9923SM   H9G13469   0.264   4.131   5.631  0.1801  1.0095 -0.9243
   9923SM  C10F13470   0.334   3.982   5.786  0.5011  0.7622  0.3844
   9923SM  H10F13471   0.440   3.967   5.754  0.8114  0.5920  1.4648
   9923SM  H10G13472   0.306   3.881   5.823 -2.9827  1.3084 -0.3991
   9923SM  C11F13473   0.326   4.086   5.898  0.2872  0.4319  0.2314
   9923SM  H11F13474   0.217   4.102   5.907  0.3063 -0.2101  2.0904
   9923SM  H11G13475   0.376   4.185   5.883 -1.9602  1.7491  0.9870
   9923SM  C12F13476   0.368   4.024   6.030  0.2552  0.4125 -0.0877
   9923SM  H12F13477   0.474   3.992   6.017  0.1508  0.7426 -1.9968
   9923SM  H12G13478   0.303   3.935   6.047  1.3585 -0.3173  0.4446
   9923SM  C13F13479   0.359   4.122   6.144 -0.0100  0.3226 -1.0980
   9923SM  H13F13480   0.259   4.172   6.140 -0.7593 -1.1941 -2.6724
   9923SM  H13G13481   0.442   4.196   6.140 -0.6450  1.3261  2.0205
   9923SM  C14F13482   0.367   4.051   6.280  0.1450 -0.5591  0.0477
   9923SM  H14F13483   0.287   3.975   6.292  0.9773 -1.3342  0.7162
   9923SM  H14G13484   0.351   4.124   6.362  0.1088 -1.4351  0.8259
   9923SM  C15F13485   0.495   3.975   6.306 -0.1877  0.2691  0.5378
   9923SM  H15F13486   0.577   4.041   6.340 -0.4226  0.7220  0.2325
   9923SM  H15G13487   0.534   3.920   6.218 -2.6837 -0.6425 -0.0953
   9923SM  C16F13488   0.482   3.870   6.419 -0.0722  0.4966 -0.1315
   9923SM  H16F13489   0.403   3.800   6.383  2.1146 -0.1203 -4.2839
   9923SM  H16G13490   0.439   3.917   6.510  0.5767  1.1587 -0.1504
   9923SM  C17F13491   0.616   3.785   6.427  0.0654 -0.2186  0.1210
   9923SM  H17F13492   0.703   3.852   6.413  0.6898 -1.4868 -2.5344
   9923SM  H17G13493   0.614   3.728   6.332  1.3879  0.4657 -0.3445
   9923SM  C18F13494   0.627   3.698   6.555  0.0289  0.0050  0.2811
   9923SM  H18F13495   0.534   3.637   6.562 -1.0689  1.4556 -1.0090
   9923SM  H18G13496   0.626   3.766   6.643  0.1759  0.1128  0.2010
   9923SM  C19F13497   0.750   3.612   6.560  0.3070 -0.2845  0.3310
   9923SM  H19F13498   0.838   3.678   6.544 -0.1051  0.2745  0.3632
   9923SM  H19G13499   0.747   3.543   6.473  0.0951 -1.2149  1.0596
   9923SM  C20F13500   0.772   3.522   6.688 -0.0601  0.0871  0.2517
   9923SM  H20F13501   0.703   3.434   6.686 -2.4620  1.8805 -1.0270
   9923SM  H20G13502   0.732   3.568   6.780 -0.7471  1.2686 -0.6056
   9923SM  C21F13503   0.919   3.487   6.702  0.0497  0.7442 -0.1299
   9923SM  H21F13504   0.976   3.582   6.692  0.5397  0.4056 -0.5944
   9923SM  H21G13505   0.940   3.424   6.613 -2.3087  1.5943 -1.3768
   9923SM  C22F13506   0.969   3.416   6.831  0.0114 -0.2443  0.3654
   9923SM  H22F13507   0.916   3.319   6.841  1.3208 -0.9124  0.9738
   9923SM  H22G13508   0.953   3.483   6.918  2.8100 -1.3523  1.8421
   9923SM  C23F13509   1.120   3.387   6.834 -0.1352 -0.0349  0.4015
   9923SM  H23F13510   1.162   3.490   6.823 -1.3923  0.4616  0.1566
   9923SM  H23G13511   1.160   3.325   6.751  0.2995  0.4607  0.2324
   9923SM  H23H13512   1.142   3.332   6.928 -1.0696 -2.5865 -0.7863
  10023SM     N13513   0.462   3.406   3.967  0.8106  0.1993  0.6430
  10023SM   C1513514   0.466   3.310   4.082  0.1890 -0.0026  0.9721
  10023SM  H15A13515   0.362   3.301   4.110 -0.0409  0.7704  0.4098
  10023SM  H15B13516   0.532   3.346   4.160  1.2455 -0.9626  0.5467
  10023SM  H15C13517   0.503   3.212   4.056 -1.1075  0.2564 -2.2638
  10023SM   C1413518   0.582   3.367   3.881  0.1453 -0.2169  0.4026
  10023SM  H14A13519   0.668   3.385   3.944 -0.8492  0.2174  1.6899
  10023SM  H14B13520   0.576   3.430   3.794 -0.8029  1.6894  1.7836
  10023SM  H14C13521   0.585   3.262   3.855  1.8353 -0.0367 -0.2427
  10023SM   C1313522   0.345   3.379   3.881  1.5946  0.2657  0.7453
  10023SM  H13A13523   0.334   3.437   3.791  0.5797 -1.4782 -0.3166
  10023SM  H13B13524   0.253   3.389   3.937 -0.9216 -1.9188 -2.6038
  10023SM  H13C13525   0.346   3.276   3.847 -0.3161 -0.0614  1.5051
  10023SM   C1213526   0.447   3.546   4.019 -0.2922 -0.4021  0.0921
  10023SM  H12A13527   0.524   3.561   4.094 -0.0579 -1.1348  0.0006
  10023SM  H12B13528   0.348   3.549   4.062  0.0682 -0.0433  0.9434
  10023SM   C1113529   0.469   3.657   3.916  0.3971 -0.4014  0.0232
  10023SM  H11A13530   0.401   3.650   3.829  1.4142 -0.0585 -0.8197
  10023SM  H11B13531   0.569   3.653   3.869 -0.8669  1.6609 -3.1733
  10023SM     P13532   0.516   3.822   4.101 -0.2955 -0.1596 -0.0010
  10023SM   O1313533   0.660   3.791   4.070  0.3994 -0.2547 -0.2715
  10023SM   O1413534   0.474   3.960   4.130  0.0813  0.2084 -0.5668
  10023SM   O1113535   0.458   3.723   4.218  0.0958 -0.0455 -0.2497
  10023SM   O1213536   0.438   3.787   3.970  0.6890  0.7763 -0.3744
  10023SM   C1S13537   0.539   3.676   4.326  0.5020 -0.1983  0.1985
  10023SM   H1S13538   0.635   3.635   4.287  0.6804  3.1441 -3.5500
  10023SM   H1T13539   0.492   3.590   4.378 -1.2367  1.1086  0.9160
  10023SM    NF13540   0.653   3.719   4.540 -0.1988  0.0873  0.6566
  10023SM   HNF13541   0.618   3.686   4.627  1.6587  2.6033  2.5150
  10023SM   C2S13542   0.559   3.776   4.443  0.2850 -0.1033  0.2001
  10023SM   H2S13543   0.606   3.867   4.400  1.6873 -1.0463 -0.3402
  10023SM   C3S13544   0.419   3.813   4.505 -0.0670  0.1211 -0.2014
  10023SM   H3S13545   0.389   3.715   4.548  0.2245 -0.1995 -0.7223
  10023SM    O313546   0.318   3.860   4.406 -0.0556  0.0779  0.0408
  10023SM   HO313547   0.360   3.833   4.323  0.9934 -0.9373  0.8680
  10023SM   C4S13548   0.441   3.919   4.609  0.2296  0.5985  0.1953
  10023SM   H4S13549   0.489   3.882   4.700 -0.0863 -2.7347 -0.8676
  10023SM   C5S13550   0.420   4.047   4.587 -0.4497  0.2339  0.5988
  10023SM   H5S13551   0.400   4.084   4.485  0.3093  1.4944  0.8873
  10023SM   C6S13552   0.438   4.154   4.700 -0.1209  0.8207 -0.3827
  10023SM   H6S13553   0.336   4.190   4.725  0.0326 -0.1606  2.0264
  10023SM   H6T13554   0.493   4.242   4.662  2.2504 -0.3777  0.0778
  10023SM   C7S13555   0.496   4.112   4.840 -0.1656 -0.3481 -0.1415
  10023SM   H7S13556   0.600   4.070   4.839  0.7413  1.7379  0.9257
  10023SM   H7T13557   0.416   4.042   4.870 -1.7377  1.3112 -0.3471
  10023SM   C8S13558   0.500   4.222   4.941 -0.1842  0.1782  0.2082
  10023SM   H8S13559   0.411   4.289   4.937  0.2913  0.8084 -0.1210
  10023SM   H8T13560   0.588   4.285   4.918  0.1337 -0.3384  0.0046
  10023SM   C9S13561   0.513   4.168   5.092  0.2729  0.0613  0.1360
  10023SM   H9S13562   0.593   4.092   5.098  0.2612  0.0891  0.6880
  10023SM   H9T13563   0.424   4.104   5.112  0.3663  0.6503  2.7280
  10023SM  C10S13564   0.517   4.278   5.188 -0.2945 -0.9636  0.2650
  10023SM  H10S13565   0.443   4.359   5.169  0.1418 -0.9657 -1.6238
  10023SM  H10T13566   0.616   4.325   5.170 -0.9425 -0.5387 -2.7471
  10023SM  C11S13567   0.520   4.227   5.335  0.3628  0.7485  0.0773
  10023SM  H11S13568   0.493   4.119   5.335 -1.4885  1.1716  0.4716
  10023SM  H11T13569   0.439   4.276   5.393  1.9411  0.8060  2.3278
  10023SM  C12S13570   0.656   4.261   5.403  0.0099 -0.1483  0.2458
  10023SM  H12S13571   0.668   4.371   5.409 -1.2503  0.0705 -0.7115
  10023SM  H12T13572   0.734   4.234   5.328  0.9009 -0.9211  1.4113
  10023SM  C13S13573   0.671   4.209   5.542 -0.1150  0.2089  0.2314
  10023SM  H13S13574   0.775   4.204   5.581 -0.7704  1.2409  2.3107
  10023SM  H13T13575   0.627   4.107   5.536  2.3419 -0.8451 -1.0881
  10023SM  C14S13576   0.591   4.296   5.638  0.2964  0.1311  0.3849
  10023SM  H14S13577   0.485   4.264   5.629  0.4443 -0.2936  0.0765
  10023SM  H14T13578   0.603   4.399   5.598 -1.1752 -0.2726 -1.2221
  10023SM  C15S13579   0.628   4.286   5.782  0.0660 -0.0895 -0.4052
  10023SM  H15S13580   0.624   4.184   5.824  0.9989 -1.0450 -2.4826
  10023SM  H15T13581   0.548   4.348   5.828 -1.4512 -1.1025 -1.6022
  10023SM  C16S13582   0.764   4.342   5.833 -0.6993 -0.5401  0.2067
  10023SM  H16S13583   0.786   4.440   5.784 -1.0455  0.8091  2.6057
  10023SM  H16T13584   0.839   4.264   5.809  0.5633  0.0382  2.0353
  10023SM  C17S13585   0.771   4.362   5.991 -0.0574 -0.3810  0.1687
  10023SM  H17S13586   0.681   4.425   6.010  0.4034  0.9207 -1.7077
  10023SM  H17T13587   0.863   4.420   6.009 -0.7466  1.0963 -0.8829
  10023SM  C18S13588   0.767   4.221   6.056 -0.3744 -0.0381 -0.2879
  10023SM  H18S13589   0.804   4.233   6.159  0.6732 -0.5765 -0.5928
  10023SM  H18T13590   0.835   4.155   5.997 -0.8209  1.2548 -2.3761
  10023SM  H18U13591   0.665   4.177   6.057  0.6113 -2.6057 -2.1342
  10023SM   C1F13592   0.788   3.706   4.525 -0.5543 -0.2259  0.1154
  10023SM    OF13593   0.850   3.736   4.425  0.1561  0.4509  0.1522
  10023SM   C2F13594   0.862   3.653   4.645 -0.1543 -0.4644  0.8884
  10023SM   H2F13595   0.821   3.558   4.684 -0.5606 -1.8598 -2.5610
  10023SM   H2G13596   0.843   3.732   4.720 -0.7884  1.3139 -1.0459
  10023SM   C3F13597   1.005   3.624   4.602  0.2078  0.4263 -0.3384
  10023SM   H3F13598   1.048   3.722   4.572 -0.4175  0.9045  0.2991
  10023SM   H3G13599   0.998   3.562   4.510 -1.1327  0.6683 -0.4131
  10023SM   C4F13600   1.078   3.545   4.711  0.0006 -0.6204  0.3120
  10023SM   H4F13601   1.178   3.529   4.666 -0.7423 -0.4800 -1.4703
  10023SM   H4G13602   1.029   3.447   4.730 -0.4907 -0.4714 -0.1598
  10023SM   C5F13603   1.085   3.627   4.842  0.1092  0.5333  0.5257
  10023SM   H5F13604   0.993   3.687   4.861 -0.3763 -0.8449  3.0101
  10023SM   H5G13605   1.166   3.702   4.842  0.9382 -0.3304  1.7429
  10023SM   C6F13606   1.125   3.538   4.964 -0.4980 -0.7643  0.5017
  10023SM   H6F13607   1.236   3.536   4.973 -0.3967  0.4056 -0.3333
  10023SM   H6G13608   1.091   3.433   4.949  0.3527 -0.8787 -0.7493
  10023SM   C7F13609   1.067   3.595   5.095 -0.3105 -0.0676 -0.1382
  10023SM   H7F13610   0.958   3.616   5.086  0.0024  2.0730  0.5305
  10023SM   H7G13611   1.112   3.695   5.111  0.4031 -0.3580 -0.2611
  10023SM   C8F13612   1.088   3.501   5.214 -0.5143 -0.0738 -0.4138
  10023SM   H8F13613   1.194   3.469   5.213 -0.1205  1.1768 -1.7664
  10023SM   H8G13614   1.018   3.415   5.200 -0.1260 -0.7875  1.6356
  10023SM   C9F13615   1.049   3.572   5.344  0.3246  0.4539  0.0137
  10023SM   H9F13616   0.939   3.579   5.347  0.3911  1.7669  2.0579
  10023SM   H9G13617   1.078   3.679   5.334 -2.4778  1.0616 -3.1176
  10023SM  C10F13618   1.110   3.501   5.466 -0.6589  0.7983 -0.3358
  10023SM  H10F13619   1.220   3.501   5.453 -0.4745 -1.7585  0.6455
  10023SM  H10G13620   1.079   3.394   5.472  0.9576  0.3029 -0.4081
  10023SM  C11F13621   1.075   3.579   5.592 -0.0912 -0.3001  0.3345
  10023SM  H11F13622   0.965   3.596   5.599 -0.3198 -1.8902  0.9548
  10023SM  H11G13623   1.128   3.676   5.588 -0.1893 -0.2123  1.1094
  10023SM  C12F13624   1.119   3.496   5.708  0.5757 -0.2323  0.4384
  10023SM  H12F13625   1.223   3.459   5.697  1.0460  0.2814  2.7194
  10023SM  H12G13626   1.060   3.402   5.699  1.3720 -0.6088 -1.0986
  10023SM  C13F13627   1.097   3.549   5.848 -0.8956 -0.0481 -0.2599
  10023SM  H13F13628   0.989   3.570   5.862 -0.9290 -0.6129  0.3559
  10023SM  H13G13629   1.168   3.634   5.851  1.0058 -1.5481 -0.2488
  10023SM  C14F13630   1.147   3.460   5.966  0.3587 -0.5528 -0.2841
  10023SM  H14F13631   1.242   3.418   5.925  1.2488  1.5608 -0.5151
  10023SM  H14G13632   1.072   3.380   5.978 -0.0368 -0.2679 -0.8268
  10023SM  C15F13633   1.162   3.527   6.105 -0.4510 -0.1238  0.0900
  10023SM  H15F13634   1.066   3.565   6.144 -1.1940 -1.1398 -0.7011
  10023SM  H15G13635   1.239   3.607   6.097  1.7012 -2.1967 -1.4811
  10023SM  C16F13636   1.214   3.420   6.201  0.1399 -0.2527 -0.3691
  10023SM  H16F13637   1.310   3.386   6.155 -0.0819 -0.8575 -0.3935
  10023SM  H16G13638   1.154   3.326   6.196  1.0209 -0.8952  0.5579
  10023SM  C17F13639   1.232   3.471   6.345 -0.3363 -0.1103 -0.1224
  10023SM  H17F13640   1.133   3.485   6.394  0.4753  0.3491  1.4334
  10023SM  H17G13641   1.284   3.568   6.355  0.3783 -0.6941  2.4344
  10023SM  C18F13642   1.314   3.374   6.429 -0.0574 -0.1864 -0.3361
  10023SM  H18F13643   1.328   3.414   6.532 -1.0989 -0.4735 -0.0741
  10023SM  H18G13644   1.414   3.369   6.381  0.5400  0.7294  0.7698
  10023SM  C19F13645   1.257   3.228   6.434 -0.1111 -0.1424  0.1640
  10023SM  H19F13646   1.217   3.194   6.337 -0.5181 -2.9220  1.2121
  10023SM  H19G13647   1.177   3.253   6.507 -0.4758  0.8641 -0.5603
  10023SM  C20F13648   1.356   3.124   6.496 -0.2357 -0.7251  0.2964
  10023SM  H20F13649   1.422   3.185   6.562 -1.7257 -0.6984  1.8435
  10023SM  H20G13650   1.424   3.081   6.419  0.0846  0.7335 -0.2536
  10023SM  C21F13651   1.297   3.013   6.583 -0.6274  0.9841  0.3803
  10023SM  H21F13652   1.245   3.057   6.671 -1.5068 -1.4798  1.1611
  10023SM  H21G13653   1.368   2.940   6.626  1.8840  2.1768 -1.4581
  10023SM  C22F13654   1.200   2.934   6.489  0.3401  0.2919  0.0330
  10023SM  H22F13655   1.145   3.003   6.421 -0.2410 -1.1825 -1.0440
  10023SM  H22G13656   1.123   2.895   6.558 -1.2425  1.7726 -0.8058
  10023SM  C23F13657   1.259   2.820   6.402  0.7359 -0.2125 -0.0565
  10023SM  H23F13658   1.326   2.753   6.461  1.2730  0.8343  0.5489
  10023SM  H23G13659   1.329   2.861   6.326  0.2437  1.9320  0.5880
  10023SM  H23H13660   1.180   2.756   6.359  0.5121 -0.5318  0.8076
  101CHL1    C313661   4.403   6.192   8.744  0.2239  0.1855 -0.0395
  101CHL1    H313662   4.347   6.099   8.719  0.6331 -0.2920  0.7684
  101CHL1    O313663   4.396   6.222   8.882  0.1633  0.7586 -0.3815
  101CHL1   H3'13664   4.456   6.296   8.886 -0.9048  1.7076 -1.3939
  101CHL1    C413665   4.551   6.177   8.704  0.7313 -1.1347  0.0190
  101CHL1   H4A13666   4.586   6.274   8.745  0.7546 -0.7360 -0.9135
  101CHL1   H4B13667   4.608   6.102   8.763 -1.1702 -0.6824  2.5691
  101CHL1    C513668   4.562   6.147   8.556 -0.0983 -0.1953 -0.5510
  101CHL1    C613669   4.613   6.035   8.505 -0.1351  0.3166 -0.1213
  101CHL1    H613670   4.648   5.957   8.575 -1.8892 -1.5680 -1.2246
  101CHL1    C713671   4.620   6.001   8.357 -0.2307  0.1773 -0.4870
  101CHL1   H7A13672   4.709   5.947   8.319  0.1973 -0.4012  1.2430
  101CHL1   H7B13673   4.530   5.943   8.328 -0.0041  0.0185 -0.8776
  101CHL1    C813674   4.607   6.130   8.267 -0.4172  0.2543  0.5979
  101CHL1    H813675   4.705   6.182   8.279  0.5207 -1.2507 -0.2225
  101CHL1   C1413676   4.582   6.093   8.119  0.1706 -0.8060  0.2451
  101CHL1   H1413677   4.485   6.039   8.119 -1.8308  2.5289  1.6304
  101CHL1   C1513678   4.673   5.991   8.037 -0.1149 -0.8065  0.3219
  101CHL1  H15A13679   4.779   6.020   8.049 -0.3913  0.3666  0.0494
  101CHL1  H15B13680   4.659   5.885   8.066  2.0429 -1.4721 -0.8828
  101CHL1   C1613681   4.634   6.026   7.897  0.7409  0.5199  0.2220
  101CHL1  H16A13682   4.729   6.062   7.852  0.4179 -2.5169 -3.3246
  101CHL1  H16B13683   4.601   5.934   7.845 -2.5282  0.6512  1.8121
  101CHL1   C1713684   4.539   6.152   7.891 -0.0431  0.0292 -0.1828
  101CHL1   H1713685   4.434   6.116   7.903 -0.1548  1.0000  2.2200
  101CHL1   C1313686   4.564   6.222   8.025 -0.3139  0.7863  0.0798
  101CHL1   C1813687   4.693   6.305   8.005 -0.2635 -0.4181 -0.1452
  101CHL1  H18A13688   4.667   6.412   7.986 -0.6767 -0.7797 -1.6949
  101CHL1  H18B13689   4.762   6.300   8.092 -0.4429  2.0724  0.2093
  101CHL1  H18C13690   4.760   6.266   7.926  0.2691 -1.1421  0.6479
  101CHL1   C1213691   4.445   6.304   8.080  0.5483  0.3091 -0.1398
  101CHL1  H12A13692   4.431   6.405   8.035 -0.9527  0.2840  0.2361
  101CHL1  H12B13693   4.357   6.240   8.058  0.7860  0.3883 -1.3894
  101CHL1   C1113694   4.466   6.335   8.225 -0.2337 -0.0026  0.0438
  101CHL1  H11A13695   4.551   6.407   8.223 -0.0194 -0.1874  1.4370
  101CHL1  H11B13696   4.377   6.385   8.268 -1.4892 -1.4200 -0.8228
  101CHL1    C913697   4.497   6.216   8.317  0.7207  0.5734 -0.3650
  101CHL1    H913698   4.404   6.155   8.314  0.9386  0.1946  0.4428
  101CHL1   C1013699   4.499   6.255   8.471 -0.3649  0.7277  0.4732
  101CHL1   C1913700   4.581   6.385   8.485  0.1681 -0.5595  0.2071
  101CHL1  H19A13701   4.614   6.389   8.591  1.2921  1.1043 -0.1639
  101CHL1  H19B13702   4.669   6.380   8.417  0.2173 -0.3100  0.2514
  101CHL1  H19C13703   4.517   6.471   8.456 -1.1162 -0.5177  2.8815
  101CHL1    C113704   4.347   6.295   8.519 -0.1786 -0.1804  0.5872
  101CHL1   H1A13705   4.302   6.383   8.468  1.6570 -0.8210 -2.3800
  101CHL1   H1B13706   4.277   6.215   8.488 -1.4734  1.7392 -1.7854
  101CHL1    C213707   4.335   6.311   8.666  0.0359  0.2664 -0.0185
  101CHL1   H2A13708   4.228   6.317   8.695 -0.2741 -2.3512 -0.2992
  101CHL1   H2B13709   4.379   6.408   8.698  0.4642 -0.3070  1.2021
  101CHL1   C2013710   4.533   6.226   7.760 -0.3326 -0.2957  0.2273
  101CHL1   H2013711   4.628   6.283   7.755  0.4088 -1.5995 -1.7413
  101CHL1   C2113712   4.412   6.322   7.760  0.1872  0.1798  0.4633
  101CHL1  H21A13713   4.311   6.275   7.768 -0.1163  0.9408  1.2528
  101CHL1  H21B13714   4.408   6.378   7.664 -2.2229 -2.0196 -0.8457
  101CHL1  H21C13715   4.429   6.390   7.846 -2.6525  0.5755  0.8107
  101CHL1   C2213716   4.538   6.134   7.633 -0.3395  0.5068 -0.2651
  101CHL1  H22A13717   4.623   6.063   7.639  0.4812  1.5045  0.3371
  101CHL1  H22B13718   4.447   6.071   7.624 -1.6571  2.0833  1.3754
  101CHL1   C2313719   4.554   6.203   7.494  0.4281 -0.0196 -0.8859
  101CHL1  H23A13720   4.454   6.247   7.476 -0.5342 -1.6941  0.0646
  101CHL1  H23B13721   4.639   6.275   7.496  3.1574 -3.0259 -0.2961
  101CHL1   C2413722   4.576   6.096   7.379 -0.2406 -0.9976  0.3592
  101CHL1  H24A13723   4.674   6.049   7.405  1.1755  1.1083 -0.8327
  101CHL1  H24B13724   4.496   6.022   7.396 -1.3248 -0.0448 -0.4396
  101CHL1   C2513725   4.595   6.154   7.237  0.1264  0.0234  0.2373
  101CHL1   H2513726   4.643   6.254   7.247  1.0798 -0.4394  0.3217
  101CHL1   C2613727   4.673   6.075   7.145  0.2973  0.3257  0.4418
  101CHL1  H26A13728   4.632   5.972   7.136 -1.2842  0.9024  0.6698
  101CHL1  H26B13729   4.678   6.120   7.044 -1.1979 -0.1185  0.1442
  101CHL1  H26C13730   4.776   6.063   7.185  0.3591  2.2288  0.9518
  101CHL1   C2713731   4.448   6.169   7.186 -0.2329  0.5044 -0.2266
  101CHL1  H27A13732   4.396   6.230   7.263  0.0267 -0.5628  0.8181
  101CHL1  H27B13733   4.440   6.213   7.084  0.8510  2.4566  0.4811
  101CHL1  H27C13734   4.399   6.070   7.174 -3.4289  2.1069 -1.4739
  102CHL1    C313735   2.990   5.566   8.317 -0.0112 -0.6708  0.1521
  102CHL1    H313736   2.891   5.516   8.304  0.0401 -1.1476  1.4903
  102CHL1    O313737   3.027   5.568   8.453 -0.8007 -0.3677 -0.5365
  102CHL1   H3'13738   3.054   5.477   8.467 -1.7088 -0.2850  2.1990
  102CHL1    C413739   3.084   5.483   8.237  0.0067  0.2652 -0.4336
  102CHL1   H4A13740   3.186   5.518   8.266  0.6370  0.0427 -2.2806
  102CHL1   H4B13741   3.075   5.378   8.272 -3.0137  0.3884 -0.5829
  102CHL1    C513742   3.072   5.481   8.089 -0.7741 -0.0175  0.6263
  102CHL1    C613743   3.058   5.373   8.014  0.5813  0.4754 -0.0159
  102CHL1    H613744   3.064   5.276   8.065  1.5070  0.2302 -0.5690
  102CHL1    C713745   3.067   5.364   7.862  0.3126  0.7901 -0.4941
  102CHL1   H7A13746   3.146   5.291   7.833 -1.0495 -0.7235 -0.5586
  102CHL1   H7B13747   2.975   5.321   7.816  0.8873 -0.2577 -0.6982
  102CHL1    C813748   3.089   5.504   7.796  0.7468  0.7284  0.1070
  102CHL1    H813749   3.200   5.509   7.795  0.9002 -1.1241  1.5502
  102CHL1   C1413750   3.048   5.499   7.649  0.3310  0.6063  0.1922
  102CHL1   H1413751   2.937   5.486   7.652  0.2344  1.2100 -0.5278
  102CHL1   C1513752   3.106   5.387   7.560 -0.6893  0.4988  0.3374
  102CHL1  H15A13753   3.215   5.392   7.576 -0.4116 -0.2037 -1.1279
  102CHL1  H15B13754   3.066   5.287   7.587  0.1084 -0.0806 -0.5500
  102CHL1   C1613755   3.081   5.435   7.425  0.8702 -0.0198  0.3588
  102CHL1  H16A13756   3.174   5.428   7.365 -0.6791 -2.4964 -2.0222
  102CHL1  H16B13757   3.008   5.368   7.375  0.7481 -0.1677  0.7358
  102CHL1   C1713758   3.011   5.580   7.436 -0.7657  0.4761 -0.4941
  102CHL1   H1713759   2.902   5.568   7.453 -0.3594 -1.4767  1.0494
  102CHL1   C1313760   3.065   5.632   7.571 -0.0174  0.3448 -0.0399
  102CHL1   C1813761   3.210   5.670   7.559  0.0529 -0.2936  0.1643
  102CHL1  H18A13762   3.268   5.698   7.649 -0.9007  1.7138  0.2095
  102CHL1  H18B13763   3.271   5.590   7.511 -0.4171 -0.2054 -0.5920
  102CHL1  H18C13764   3.209   5.764   7.500 -0.1233  0.9233  2.0347
  102CHL1   C1213765   2.984   5.736   7.642 -0.0248  0.2711 -0.3892
  102CHL1  H12A13766   3.003   5.840   7.606  1.7694  0.1213  0.0840
  102CHL1  H12B13767   2.874   5.721   7.643 -0.4243  2.6775  1.3869
  102CHL1   C1113768   3.040   5.745   7.789  0.7197 -0.4426  0.6744
  102CHL1  H11A13769   3.146   5.780   7.788  0.4666  0.6987 -3.1314
  102CHL1  H11B13770   2.973   5.819   7.838  0.1714 -0.0299 -0.6424
  102CHL1    C913771   3.025   5.613   7.869  0.5334 -0.0904 -0.3204
  102CHL1    H913772   2.915   5.596   7.873  0.3958  0.8804  1.2058
  102CHL1   C1013773   3.072   5.624   8.022 -0.1770  0.9889  0.9485
  102CHL1   C1913774   3.218   5.676   8.017  0.5329  0.5704  0.5689
  102CHL1  H19A13775   3.217   5.776   7.969 -1.6956 -0.0314 -0.8171
  102CHL1  H19B13776   3.264   5.689   8.117 -0.3430  0.9972  0.9296
  102CHL1  H19C13777   3.286   5.610   7.959  0.4619  0.4697  0.6011
  102CHL1    C113778   2.989   5.716   8.101 -0.0465 -0.2858  0.2873
  102CHL1   H1A13779   2.996   5.816   8.052  1.7073 -1.5418 -2.2519
  102CHL1   H1B13780   2.884   5.682   8.091 -0.5706  0.4029  2.8072
  102CHL1    C213781   3.006   5.712   8.250 -0.1412  0.1559 -0.0782
  102CHL1   H2A13782   2.926   5.763   8.307 -1.6819 -1.7700 -0.4246
  102CHL1   H2B13783   3.109   5.738   8.281 -0.0876  0.0119 -0.1319
  102CHL1   C2013784   3.031   5.677   7.313 -0.4606  0.0630 -0.0348
  102CHL1   H2013785   3.140   5.693   7.299 -0.2357 -1.0757  0.2565
  102CHL1   C2113786   2.965   5.817   7.337 -0.0038 -0.3671 -0.0491
  102CHL1  H21A13787   3.020   5.871   7.417 -2.0360  1.1947  0.3848
  102CHL1  H21B13788   2.855   5.813   7.352 -0.2342  2.2416 -0.5730
  102CHL1  H21C13789   2.968   5.879   7.245  1.2057 -1.5075 -0.8120
  102CHL1   C2213790   2.978   5.618   7.181 -0.2505  0.0704  0.3161
  102CHL1  H22A13791   3.011   5.512   7.176 -0.2798  0.1265 -2.1335
  102CHL1  H22B13792   2.868   5.614   7.195 -0.1616 -4.1113  1.1279
  102CHL1   C2313793   3.006   5.700   7.067 -0.4525 -1.2953  0.3675
  102CHL1  H23A13794   2.953   5.798   7.069 -0.1080 -1.1264  1.8463
  102CHL1  H23B13795   3.112   5.715   7.038  0.2159 -0.7574  2.8792
  102CHL1   C2413796   2.962   5.624   6.936 -0.3395 -0.4267 -0.0325
  102CHL1  H24A13797   3.023   5.532   6.934  1.5391  0.7809 -0.9336
  102CHL1  H24B13798   2.855   5.595   6.946 -1.1587  2.5496  1.2737
  102CHL1   C2513799   2.996   5.701   6.805  1.1638  0.4498 -0.0544
  102CHL1   H2513800   3.106   5.719   6.803  1.8556 -2.9446 -3.0109
  102CHL1   C2613801   2.979   5.614   6.681 -0.2771 -0.0923 -0.4853
  102CHL1  H26A13802   2.876   5.620   6.640 -0.4715  0.0645  0.0199
  102CHL1  H26B13803   3.058   5.636   6.606  1.8726 -0.8997  1.4019
  102CHL1  H26C13804   3.014   5.512   6.708 -1.7111 -0.1521  1.3237
  102CHL1   C2713805   2.916   5.835   6.801 -0.0869  0.0514  0.5453
  102CHL1  H27A13806   2.916   5.880   6.699  0.6554  1.4010  1.1016
  102CHL1  H27B13807   2.811   5.815   6.831 -0.5082  0.8908 -0.3221
  102CHL1  H27C13808   2.947   5.908   6.879 -2.0120 -0.0430  1.4520
  103CHL1    C313809   3.921   5.481   8.335 -0.3890  0.3839  0.6468
  103CHL1    H313810   3.811   5.469   8.324 -0.5291  2.0753 -0.2028
  103CHL1    O313811   3.954   5.506   8.469  0.6138  0.0270 -0.0651
  103CHL1   H3'13812   4.050   5.504   8.467  0.6309 -2.2192 -0.5270
  103CHL1    C413813   3.989   5.353   8.288  0.3660  0.2490  0.0554
  103CHL1   H4A13814   4.098   5.366   8.305  0.0943  1.9213  0.8156
  103CHL1   H4B13815   3.966   5.265   8.352  0.2446 -0.7318 -1.2964
  103CHL1    C513816   3.977   5.311   8.145 -0.0172 -0.7879 -0.7242
  103CHL1    C613817   3.923   5.197   8.096 -0.2784  0.0886  0.4831
  103CHL1    H613818   3.873   5.121   8.158 -0.3893 -1.4612 -1.4026
  103CHL1    C713819   3.920   5.164   7.944 -0.2575  0.0286 -0.9970
  103CHL1   H7A13820   3.967   5.064   7.929  0.3712  0.1313  0.1555
  103CHL1   H7B13821   3.821   5.162   7.895 -0.9009  0.8732  0.2218
  103CHL1    C813822   3.997   5.267   7.854  0.1013 -0.1530  0.4112
  103CHL1    H813823   4.105   5.246   7.868  0.2697  1.2738  1.4871
  103CHL1   C1413824   3.971   5.248   7.703  0.1213  0.3558  0.0418
  103CHL1   H1413825   3.866   5.282   7.697  0.0163 -0.0803 -0.8011
  103CHL1   C1513826   3.987   5.104   7.634 -0.9256 -0.0482  0.5073
  103CHL1  H15A13827   4.077   5.052   7.674 -1.4895 -1.7921 -0.4286
  103CHL1  H15B13828   3.900   5.038   7.650 -0.2707 -1.0463  0.0403
  103CHL1   C1613829   4.010   5.136   7.482 -0.5449  0.1931  0.0606
  103CHL1  H16A13830   4.110   5.104   7.446 -0.0181  2.3296 -0.4931
  103CHL1  H16B13831   3.926   5.094   7.422 -0.4763 -1.0516  0.7863
  103CHL1   C1713832   4.000   5.288   7.469 -0.8043 -0.1897 -0.0687
  103CHL1   H1713833   3.895   5.322   7.471 -0.4344  1.0461  2.6668
  103CHL1   C1313834   4.043   5.347   7.610 -0.1888  0.6393  0.2026
  103CHL1   C1813835   4.200   5.331   7.623 -0.2834  0.2372 -0.3375
  103CHL1  H18A13836   4.226   5.229   7.585  0.2103 -0.0989  0.8696
  103CHL1  H18B13837   4.251   5.400   7.553  0.7026 -1.7453 -1.6876
  103CHL1  H18C13838   4.230   5.350   7.728 -1.1785  0.5841 -0.1377
  103CHL1   C1213839   4.001   5.484   7.657  0.5373 -0.1855  0.5186
  103CHL1  H12A13840   4.051   5.562   7.595 -0.5244  1.1204  1.2578
  103CHL1  H12B13841   3.892   5.496   7.638  0.2830  0.1704  2.0945
  103CHL1   C1113842   4.028   5.513   7.800 -0.7966  0.5073  0.7298
  103CHL1  H11A13843   4.139   5.520   7.796 -0.6117 -1.8195  0.5490
  103CHL1  H11B13844   3.981   5.607   7.835 -0.7932  1.4543 -1.6186
  103CHL1    C913845   3.976   5.409   7.905  0.1662 -0.1020  0.0541
  103CHL1    H913846   3.866   5.419   7.892  0.2286  0.2086 -0.2374
  103CHL1   C1013847   4.018   5.429   8.052 -0.2143  0.5107 -0.1853
  103CHL1   C1913848   4.171   5.437   8.059  0.3925  0.1941 -0.6243
  103CHL1  H19A13849   4.216   5.519   7.999 -0.2036  0.0663 -1.2584
  103CHL1  H19B13850   4.205   5.461   8.163 -1.0892  0.5722 -0.2052
  103CHL1  H19C13851   4.214   5.343   8.021 -3.4550 -2.1985  0.4026
  103CHL1    C113852   3.950   5.561   8.101 -0.3689 -0.1244  0.2390
  103CHL1   H1A13853   3.978   5.657   8.054  0.1036  0.1696  1.0913
  103CHL1   H1B13854   3.843   5.543   8.081  0.0443 -0.6488 -1.6506
  103CHL1    C213855   3.971   5.591   8.246 -0.0259 -0.5452 -0.5825
  103CHL1   H2A13856   3.916   5.683   8.273 -0.4388 -0.2531 -2.3007
  103CHL1   H2B13857   4.075   5.624   8.263 -0.3546 -0.0744  0.6420
  103CHL1   C2013858   4.063   5.338   7.339 -0.4616 -0.0125 -0.1413
  103CHL1   H2013859   4.171   5.310   7.336 -0.3135  0.6161 -1.4824
  103CHL1   C2113860   4.056   5.491   7.325  0.1679 -0.3016  0.3329
  103CHL1  H21A13861   4.094   5.519   7.224 -0.2163 -1.6437 -0.2117
  103CHL1  H21B13862   4.128   5.538   7.394 -1.2095  1.3796  0.6888
  103CHL1  H21C13863   3.951   5.526   7.339  0.2342 -0.9292  2.9473
  103CHL1   C2213864   3.999   5.267   7.215  0.4476  0.0968  1.2623
  103CHL1  H22A13865   4.016   5.158   7.219 -1.6151 -0.2830  0.9074
  103CHL1  H22B13866   3.889   5.286   7.214  0.6943  2.0163  2.8647
  103CHL1   C2313867   4.053   5.317   7.074  0.2223  0.0495 -0.3222
  103CHL1  H23A13868   4.009   5.419   7.063 -0.5686  0.1837  3.0369
  103CHL1  H23B13869   4.163   5.336   7.075  0.3242 -0.5068  1.0200
  103CHL1   C2413870   4.029   5.230   6.952 -0.3574  0.2303 -0.1170
  103CHL1  H24A13871   4.096   5.272   6.874 -0.2330 -2.2617 -1.4612
  103CHL1  H24B13872   4.062   5.127   6.978 -0.3479  0.2361 -0.1052
  103CHL1   C2513873   3.878   5.219   6.927 -0.1925  0.2524 -0.0374
  103CHL1   H2513874   3.820   5.201   7.021 -0.6300 -0.8565 -0.5046
  103CHL1   C2613875   3.828   5.354   6.881 -0.0285  0.0274 -0.6565
  103CHL1  H26A13876   3.911   5.421   6.849  1.7068 -1.1154  1.1966
  103CHL1  H26B13877   3.776   5.336   6.784 -0.8811  0.4578 -0.2961
  103CHL1  H26C13878   3.758   5.399   6.955 -0.3581  0.3442 -1.1535
  103CHL1   C2713879   3.850   5.115   6.820  0.9815  0.3248 -0.1302
  103CHL1  H27A13880   3.744   5.092   6.795  0.5154  1.9496  0.1900
  103CHL1  H27B13881   3.900   5.156   6.730 -1.0235  3.4786  0.0115
  103CHL1  H27C13882   3.895   5.019   6.851 -0.8536 -0.9146 -1.1599
  104CHL1    C313883   0.263   0.028   8.550  0.2687  0.3597 -0.7083
  104CHL1    H313884   0.229   0.133   8.541  1.8835  1.1827  1.9305
  104CHL1    O313885   0.274   0.008   8.688  0.5287  0.9500  0.0884
  104CHL1   H3'13886   0.304   0.090   8.728  2.0990  0.0984  0.7554
  104CHL1    C413887   0.169  -0.069   8.482  0.9105  0.3818 -0.6555
  104CHL1   H4A13888   0.213  -0.171   8.491 -1.1670 -0.6514 -1.5108
  104CHL1   H4B13889   0.076  -0.079   8.543  0.9472  0.9432 -0.5083
  104CHL1    C513890   0.156  -0.039   8.333  0.2334  0.5512 -0.5317
  104CHL1    C613891   0.035  -0.036   8.273  0.2010  0.4354 -0.1348
  104CHL1    H613892  -0.057  -0.053   8.330 -1.8015  0.6905 -3.0926
  104CHL1    C713893   0.006  -0.029   8.124 -0.3918  0.1722  0.3054
  104CHL1   H7A13894  -0.068  -0.101   8.082  1.1258 -0.6072 -1.1136
  104CHL1   H7B13895  -0.013   0.077   8.097 -0.1091 -0.2887 -1.8682
  104CHL1    C813896   0.133  -0.067   8.042 -0.2636 -0.1733  0.3883
  104CHL1    H813897   0.135  -0.178   8.036 -0.9930 -0.1499 -0.5394
  104CHL1   C1413898   0.120  -0.014   7.898  0.2860  0.6618  0.0540
  104CHL1   H1413899   0.130   0.097   7.901  2.0390  0.5220  1.8905
  104CHL1   C1513900  -0.003  -0.045   7.821  0.2602 -0.3612  0.4280
  104CHL1  H15A13901  -0.030  -0.152   7.835 -1.1246  0.0969  1.5553
  104CHL1  H15B13902  -0.088   0.017   7.858 -0.4837 -0.5791 -0.8420
  104CHL1   C1613903   0.036  -0.020   7.671 -0.1946 -0.3148  0.7219
  104CHL1  H16A13904   0.015  -0.116   7.618  0.1196  0.1572 -0.2845
  104CHL1  H16B13905  -0.024   0.064   7.631 -1.3290 -0.9301  1.0911
  104CHL1   C1713906   0.188   0.003   7.669 -0.0156  0.0849  0.8269
  104CHL1   H1713907   0.194   0.113   7.678  0.9327  0.0710  0.5437
  104CHL1   C1313908   0.234  -0.052   7.800  0.4324 -0.0116 -0.7116
  104CHL1   C1813909   0.249  -0.201   7.798  0.0706 -0.1230 -0.4352
  104CHL1  H18A13910   0.160  -0.245   7.749 -0.8336  2.0082 -0.7920
  104CHL1  H18B13911   0.337  -0.223   7.734  1.3927  1.1199  0.8701
  104CHL1  H18C13912   0.268  -0.245   7.898  0.0371  0.6562 -0.0809
  104CHL1   C1213913   0.359   0.020   7.858 -0.2473  0.2124  0.5111
  104CHL1  H12A13914   0.443  -0.008   7.790 -0.7179 -1.4016  0.5466
  104CHL1  H12B13915   0.349   0.131   7.856  1.8237  0.4537  1.3071
  104CHL1   C1113916   0.390  -0.016   8.006  0.2622 -0.0118  0.0361
  104CHL1  H11A13917   0.418  -0.123   8.006 -1.1028 -0.4284 -1.8542
  104CHL1  H11B13918   0.482   0.038   8.037  0.0541  0.7186 -0.5946
  104CHL1    C913919   0.262  -0.000   8.104  0.1335 -0.0239 -0.0458
  104CHL1    H913920   0.243   0.109   8.106 -1.6964 -0.3160  0.5213
  104CHL1   C1013921   0.285  -0.048   8.253  0.1467  0.1884 -0.5399
  104CHL1   C1913922   0.336  -0.199   8.249 -0.1658 -0.2226  0.0681
  104CHL1  H19A13923   0.373  -0.239   8.346 -1.4260  0.1783  0.7251
  104CHL1  H19B13924   0.246  -0.258   8.221 -2.0764  1.2909  2.6746
  104CHL1  H19C13925   0.424  -0.214   8.182 -0.0781  0.2584  0.0692
  104CHL1    C113926   0.380   0.046   8.326  0.1743 -0.5323 -0.5626
  104CHL1   H1A13927   0.481   0.033   8.280  0.9566 -0.3288  1.0322
  104CHL1   H1B13928   0.354   0.151   8.300  5.3311  0.5208 -2.8293
  104CHL1    C213929   0.404   0.027   8.478  0.1435 -0.6581  0.2319
  104CHL1   H2A13930   0.461   0.116   8.512 -0.4075 -0.6637  1.2178
  104CHL1   H2B13931   0.456  -0.068   8.498  0.7502 -0.0379  1.7229
  104CHL1   C2013932   0.256  -0.047   7.534  0.1261 -0.6151 -0.0469
  104CHL1   H2013933   0.240  -0.157   7.527  1.1400 -0.8389  0.9125
  104CHL1   C2113934   0.408  -0.017   7.526  1.1138  0.7524 -0.1169
  104CHL1  H21A13935   0.457  -0.069   7.612  1.8072  2.6943  0.7095
  104CHL1  H21B13936   0.425   0.092   7.539  0.2130  0.7578  1.2956
  104CHL1  H21C13937   0.450  -0.055   7.430 -0.1402 -0.1156 -0.3483
  104CHL1   C2213938   0.181   0.013   7.411  0.3181 -0.6589  0.5527
  104CHL1  H22A13939   0.072  -0.006   7.414 -0.0103  0.1754 -2.6661
  104CHL1  H22B13940   0.209   0.121   7.409 -0.4115 -0.4818 -0.4982
  104CHL1   C2313941   0.219  -0.051   7.276  0.4575  0.2766 -0.5496
  104CHL1  H23A13942   0.326  -0.030   7.256  0.3641  0.7581 -0.5579
  104CHL1  H23B13943   0.213  -0.162   7.282  2.0690  0.2523  2.1017
  104CHL1   C2413944   0.124   0.003   7.165 -0.0715  0.2014  0.3543
  104CHL1  H24A13945   0.018  -0.007   7.196  0.2563 -2.1618  0.8703
  104CHL1  H24B13946   0.139   0.112   7.147 -2.5072  0.8686  1.8561
  104CHL1   C2513947   0.144  -0.071   7.023 -0.1198 -0.8316 -0.2301
  104CHL1   H2513948   0.250  -0.060   6.991 -0.1094  2.1807  0.5540
  104CHL1   C2613949   0.099  -0.218   7.044 -0.0190 -0.0508 -0.3592
  104CHL1  H26A13950   0.119  -0.286   6.957  0.8783 -0.6471  0.2952
  104CHL1  H26B13951   0.146  -0.263   7.134 -2.0207  0.2806  0.9146
  104CHL1  H26C13952  -0.010  -0.223   7.063 -0.2393 -0.0043 -1.5264
  104CHL1   C2713953   0.063   0.002   6.913  0.5849  0.1876 -0.1230
  104CHL1  H27A13954   0.122   0.091   6.881 -0.3700  0.1754 -2.0850
  104CHL1  H27B13955   0.065  -0.067   6.826 -0.1684 -0.3314  0.2576
  104CHL1  H27C13956  -0.044   0.022   6.933  0.2019 -0.9755 -0.8972
  105CHL1    C313957   6.459   0.735   8.745  0.0556 -0.4691  0.0655
  105CHL1    H313958   6.435   0.831   8.695  2.7916  1.9664  2.9698
  105CHL1    O313959   6.469   0.766   8.884 -0.1198 -0.6725  0.4809
  105CHL1   H3'13960   6.497   0.682   8.921 -0.5857 -2.4705 -2.8419
  105CHL1    C413961   6.340   0.643   8.730 -0.3289  1.2779  0.0960
  105CHL1   H4A13962   6.358   0.550   8.788 -1.7862 -0.7504 -2.5077
  105CHL1   H4B13963   6.250   0.693   8.774 -0.6339 -0.1341  1.1259
  105CHL1    C513964   6.316   0.596   8.587 -0.2144  0.0560 -0.2453
  105CHL1    C613965   6.205   0.622   8.510  0.0618  0.2925 -0.0610
  105CHL1    H613966   6.126   0.665   8.572 -2.1715 -1.7159 -1.3447
  105CHL1    C713967   6.176   0.592   8.368 -0.0524  0.0711 -0.0524
  105CHL1   H7A13968   6.077   0.542   8.361 -0.9786  2.0335 -2.5521
  105CHL1   H7B13969   6.187   0.678   8.298  0.9656  0.5143  0.6313
  105CHL1    C813970   6.271   0.478   8.319  0.4957  0.0392 -0.2535
  105CHL1    H813971   6.229   0.381   8.355 -2.0482  0.5067 -1.6686
  105CHL1   C1413972   6.278   0.480   8.162 -0.6962  0.1257 -0.1698
  105CHL1   H1413973   6.316   0.580   8.136  0.7316 -0.6043 -0.9662
  105CHL1   C1513974   6.141   0.473   8.090 -0.3073  0.5726  1.0617
  105CHL1  H15A13975   6.083   0.396   8.144  1.7931 -1.5492  0.4407
  105CHL1  H15B13976   6.094   0.573   8.106 -1.0464 -0.1506  3.9065
  105CHL1   C1613977   6.183   0.422   7.946 -0.2885 -0.6006  0.6092
  105CHL1  H16A13978   6.114   0.336   7.930 -1.3196  0.0429  1.5358
  105CHL1  H16B13979   6.149   0.495   7.869  1.2694 -1.3768 -0.8902
  105CHL1   C1713980   6.336   0.400   7.951 -0.2544 -0.3125 -0.2473
  105CHL1   H1713981   6.390   0.497   7.940 -0.5748 -0.1895 -0.7427
  105CHL1   C1313982   6.360   0.366   8.100 -0.3599  0.0369 -0.1932
  105CHL1   C1813983   6.306   0.220   8.131 -0.2552 -0.7271  0.7084
  105CHL1  H18A13984   6.355   0.155   8.056  2.4655  2.9892 -1.0677
  105CHL1  H18B13985   6.331   0.186   8.234  0.7745  0.4953  0.8883
  105CHL1  H18C13986   6.195   0.212   8.123 -0.3474  0.9008 -0.0224
  105CHL1   C1213987   6.499   0.384   8.153 -0.3257 -0.2990 -0.2946
  105CHL1  H12A13988   6.549   0.288   8.130 -0.8861 -0.1550 -2.3370
  105CHL1  H12B13989   6.543   0.476   8.109 -0.9242  0.3662  0.4594
  105CHL1   C1113990   6.505   0.396   8.305 -0.0373 -0.3247  0.9217
  105CHL1  H11A13991   6.470   0.300   8.349 -0.4489 -0.1317  1.0181
  105CHL1  H11B13992   6.612   0.410   8.332 -0.2278  1.1898  0.9642
  105CHL1    C913993   6.413   0.504   8.366 -0.1833  0.2709  0.2604
  105CHL1    H913994   6.434   0.600   8.314  0.5357  0.1933  0.3990
  105CHL1   C1013995   6.431   0.523   8.519 -0.3941 -0.4303  0.1217
  105CHL1   C1913996   6.447   0.384   8.590 -0.4074  0.1645 -0.3264
  105CHL1  H19A13997   6.500   0.407   8.685  0.5766  1.6591 -1.2117
  105CHL1  H19B13998   6.352   0.331   8.613  0.8130 -0.9508  2.6829
  105CHL1  H19C13999   6.520   0.314   8.545 -2.9749 -2.8596 -0.1537
  105CHL1    C114000   6.560   0.612   8.543  0.4720 -0.2154 -0.5007
  105CHL1   H1A14001   6.647   0.551   8.513  1.4896  1.3854 -0.9382
  105CHL1   H1B14002   6.560   0.707   8.486 -1.3575  0.8773  1.1710
  105CHL1    C214003   6.587   0.665   8.689 -0.5135  0.1256 -0.3138
  105CHL1   H2A14004   6.663   0.746   8.697 -0.6463  0.2737 -0.5464
  105CHL1   H2B14005   6.616   0.579   8.752  2.3726  1.5296  0.4473
  105CHL1   C2014006   6.400   0.318   7.844 -0.0451  0.5550  1.2076
  105CHL1   H2014007   6.378   0.210   7.862  0.5061  0.3022  0.4129
  105CHL1   C2114008   6.558   0.329   7.839  0.0879 -0.6102 -0.3223
  105CHL1  H21A14009   6.590   0.284   7.936  2.1259  0.7201 -0.3163
  105CHL1  H21B14010   6.593   0.433   7.850  2.5077 -1.1814 -1.9113
  105CHL1  H21C14011   6.613   0.280   7.756  2.2870  0.2678  0.5509
  105CHL1   C2214012   6.348   0.358   7.705 -1.4143 -0.1827 -0.3271
  105CHL1  H22A14013   6.242   0.327   7.698 -1.9406  1.7374 -1.2907
  105CHL1  H22B14014   6.357   0.468   7.698 -0.0121 -0.1569  1.2962
  105CHL1   C2314015   6.400   0.283   7.589 -0.4167 -0.0199  0.1688
  105CHL1  H23A14016   6.510   0.283   7.575 -0.4782  0.5490 -0.3780
  105CHL1  H23B14017   6.378   0.175   7.606 -1.2308  0.2579  0.9467
  105CHL1   C2414018   6.320   0.309   7.456 -0.3616 -0.5125 -0.4113
  105CHL1  H24A14019   6.213   0.288   7.478 -0.2852  0.9604  1.7150
  105CHL1  H24B14020   6.326   0.417   7.431 -0.0544 -0.3510  0.3415
  105CHL1   C2514021   6.374   0.230   7.339  0.4012  0.3761 -0.3485
  105CHL1   H2514022   6.473   0.270   7.308 -0.3721  0.6171 -2.6361
  105CHL1   C2614023   6.396   0.079   7.366  0.3231  0.4289  0.2351
  105CHL1  H26A14024   6.295   0.043   7.396  0.2407  1.3577  1.1528
  105CHL1  H26B14025   6.444   0.023   7.282  0.0235 -1.8550  1.4966
  105CHL1  H26C14026   6.460   0.059   7.455  3.0435  1.6514 -1.3457
  105CHL1   C2714027   6.272   0.245   7.226  0.4123 -0.3314  0.5058
  105CHL1  H27A14028   6.176   0.210   7.268  0.5577 -0.4026  0.7778
  105CHL1  H27B14029   6.253   0.343   7.177 -2.2131 -1.5356 -1.1133
  105CHL1  H27C14030   6.281   0.179   7.137 -1.4863  1.1333 -0.8640
  106CHL1    C314031   4.370   4.933   8.601  0.6726 -0.5584 -0.1129
  106CHL1    H314032   4.430   4.839   8.597 -2.6857 -2.9799  1.2716
  106CHL1    O314033   4.339   4.962   8.735  0.1843  0.6265  0.8997
  106CHL1   H3'14034   4.268   5.024   8.720  0.1410  0.7796  1.7286
  106CHL1    C414035   4.437   5.058   8.528  0.6434 -0.7465  0.2033
  106CHL1   H4A14036   4.368   5.145   8.531 -0.1438 -1.2942 -1.3653
  106CHL1   H4B14037   4.532   5.083   8.580  0.1795  2.7250 -0.4340
  106CHL1    C514038   4.460   5.022   8.382  0.2630  0.5148  0.6650
  106CHL1    C614039   4.583   5.023   8.319 -0.9341 -0.1523 -0.3973
  106CHL1    H614040   4.666   5.070   8.372 -0.3317  0.9861 -2.2811
  106CHL1    C714041   4.617   4.985   8.181 -0.4760  0.4043 -0.0923
  106CHL1   H7A14042   4.692   5.047   8.128 -1.6054 -0.1642 -2.4851
  106CHL1   H7B14043   4.646   4.878   8.174 -0.8165  0.4069 -2.6344
  106CHL1    C814044   4.482   4.997   8.099 -0.3174 -0.4951 -0.2465
  106CHL1    H814045   4.457   5.105   8.087 -2.1049 -0.8618 -0.0625
  106CHL1   C1414046   4.511   4.936   7.959 -0.3252 -0.1836 -0.2815
  106CHL1   H1414047   4.528   4.829   7.981 -1.2005  0.3136  3.4742
  106CHL1   C1514048   4.626   4.999   7.882 -0.1002  0.6268 -0.2691
  106CHL1  H15A14049   4.628   5.110   7.889 -2.5941  0.6988  0.3880
  106CHL1  H15B14050   4.724   4.959   7.916  0.1318  0.2255 -1.3861
  106CHL1   C1614051   4.598   4.957   7.736  0.0656  0.1275 -0.0221
  106CHL1  H16A14052   4.591   5.051   7.677 -0.2501 -0.1240 -0.3978
  106CHL1  H16B14053   4.673   4.884   7.697  0.4515  1.3119 -1.6096
  106CHL1   C1714054   4.455   4.890   7.738  0.4626  0.5222 -0.6413
  106CHL1   H1714055   4.476   4.782   7.751 -0.7042  0.4588  0.9354
  106CHL1   C1314056   4.388   4.933   7.866 -0.0541 -0.2417 -0.5350
  106CHL1   C1814057   4.332   5.077   7.838  0.4464  0.4353 -0.1747
  106CHL1  H18A14058   4.305   5.124   7.935 -0.4518  1.5988 -0.9690
  106CHL1  H18B14059   4.397   5.138   7.772 -0.3929  2.0692  0.4645
  106CHL1  H18C14060   4.236   5.067   7.783  0.6783  0.0739 -0.5246
  106CHL1   C1214061   4.278   4.843   7.932 -0.5952 -1.2205  0.7271
  106CHL1  H12A14062   4.185   4.848   7.872 -0.3524 -0.8332  0.3760
  106CHL1  H12B14063   4.305   4.735   7.931  0.5831 -0.9593 -0.6873
  106CHL1   C1114064   4.250   4.893   8.073 -0.3728 -0.5128 -0.1286
  106CHL1  H11A14065   4.203   4.992   8.057 -0.4055 -0.4942  0.0816
  106CHL1  H11B14066   4.178   4.830   8.129  0.4684  0.4224  2.1573
  106CHL1    C914067   4.372   4.910   8.168 -0.0940 -0.0280  0.2194
  106CHL1    H914068   4.411   4.806   8.176 -0.1533 -0.0092  0.7561
  106CHL1   C1014069   4.334   4.969   8.307 -0.8110  0.3848 -0.3455
  106CHL1   C1914070   4.243   5.095   8.289  0.7730  1.0108 -0.2659
  106CHL1  H19A14071   4.146   5.058   8.249  0.9634 -0.6401  0.6828
  106CHL1  H19B14072   4.217   5.133   8.390  0.6208  0.0903  0.0569
  106CHL1  H19C14073   4.281   5.173   8.220  0.1185  1.3187 -0.2905
  106CHL1    C114074   4.252   4.861   8.386 -0.3679  0.2722  0.4877
  106CHL1   H1A14075   4.154   4.841   8.337  0.1194 -0.3491 -0.2550
  106CHL1   H1B14076   4.302   4.762   8.384  0.5703  0.7344  0.4109
  106CHL1    C214077   4.232   4.903   8.530  0.2307  0.4071  0.8808
  106CHL1   H2A14078   4.183   4.815   8.576 -0.8927 -1.7924 -3.8875
  106CHL1   H2B14079   4.167   4.993   8.531 -1.4127 -0.6773 -1.1043
  106CHL1   C2014080   4.382   4.908   7.606 -0.4402  0.0679  0.6014
  106CHL1   H2014081   4.370   5.018   7.599 -0.4746 -0.0385 -1.4446
  106CHL1   C2114082   4.252   4.827   7.600 -0.3114 -0.1528  0.0458
  106CHL1  H21A14083   4.278   4.720   7.614  1.6779  0.3472  0.4469
  106CHL1  H21B14084   4.219   4.839   7.494  0.2756 -3.7703 -0.6720
  106CHL1  H21C14085   4.176   4.868   7.670  0.2216 -0.1460  0.6252
  106CHL1   C2214086   4.458   4.864   7.475  0.5098 -0.1320  0.0187
  106CHL1  H22A14087   4.568   4.858   7.487  0.3610 -0.9593  1.0724
  106CHL1  H22B14088   4.425   4.765   7.439  1.7497 -0.6853  0.3556
  106CHL1   C2314089   4.437   4.976   7.368 -0.1167  0.2175 -0.2121
  106CHL1  H23A14090   4.329   4.983   7.343  0.2549  0.8719 -1.7487
  106CHL1  H23B14091   4.458   5.074   7.416 -1.6226  0.2074  0.5247
  106CHL1   C2414092   4.521   4.955   7.244  0.3645  0.2710  0.1166
  106CHL1  H24A14093   4.630   4.946   7.261  0.4447  0.9817  0.0027
  106CHL1  H24B14094   4.503   4.851   7.211  2.2691 -0.8805  2.3829
  106CHL1   C2514095   4.496   5.061   7.134  0.3219 -0.0609 -0.4428
  106CHL1   H2514096   4.477   5.157   7.186 -1.2566 -0.8560  0.5356
  106CHL1   C2614097   4.625   5.060   7.040 -0.0006  1.2677  0.5549
  106CHL1  H26A14098   4.617   4.969   6.976 -1.7678  1.4456  0.4576
  106CHL1  H26B14099   4.621   5.153   6.980 -1.4501  1.8501  1.4801
  106CHL1  H26C14100   4.721   5.049   7.095  0.6812 -1.2903 -0.9525
  106CHL1   C2714101   4.364   5.055   7.050 -0.0516 -0.5232  0.0834
  106CHL1  H27A14102   4.376   5.130   6.969 -0.7392  0.5563  0.9488
  106CHL1  H27B14103   4.370   4.963   6.988  0.8432  1.1471 -2.5008
  106CHL1  H27C14104   4.270   5.081   7.103  0.6566  2.9191 -0.1127
  107CHL1    C314105   6.387   3.096   8.206  0.3339  0.4292 -0.1312
  107CHL1    H314106   6.451   3.186   8.197 -0.8730  1.3181 -0.1204
  107CHL1    O314107   6.383   3.048   8.342 -0.0107 -0.1917 -0.7241
  107CHL1   H3'14108   6.350   2.958   8.337  0.4558 -0.3897 -0.3597
  107CHL1    C414109   6.243   3.138   8.175 -0.2002  0.1649 -0.1417
  107CHL1   H4A14110   6.178   3.048   8.183  0.9072 -0.7573 -1.1447
  107CHL1   H4B14111   6.199   3.205   8.253 -2.4246 -1.7559  0.3613
  107CHL1    C514112   6.240   3.188   8.029 -0.5626  0.1444  0.7741
  107CHL1    C614113   6.200   3.311   8.005 -0.4823 -0.9603  0.0964
  107CHL1    H614114   6.159   3.375   8.083  0.6531  0.0070 -0.0709
  107CHL1    C714115   6.195   3.366   7.866 -0.6447  0.3347 -0.2607
  107CHL1   H7A14116   6.103   3.426   7.847 -2.3511 -2.4409 -1.4188
  107CHL1   H7B14117   6.288   3.420   7.837  0.6201 -1.0343  1.0586
  107CHL1    C814118   6.192   3.249   7.758 -0.5140 -0.5951 -0.8199
  107CHL1    H814119   6.090   3.205   7.761 -0.4678 -0.8671 -2.5080
  107CHL1   C1414120   6.225   3.302   7.620  0.3707 -0.2116 -0.0490
  107CHL1   H1414121   6.334   3.323   7.616  0.6267 -0.7125  2.7237
  107CHL1   C1514122   6.156   3.427   7.576 -0.0241 -0.4158 -1.0204
  107CHL1  H15A14123   6.049   3.429   7.608  0.2011  2.9444 -0.0610
  107CHL1  H15B14124   6.202   3.518   7.620  1.1893 -0.8177 -1.4125
  107CHL1   C1614125   6.164   3.437   7.428 -0.4646 -0.0049  0.1178
  107CHL1  H16A14126   6.063   3.472   7.394 -0.4501  1.5506  1.5405
  107CHL1  H16B14127   6.227   3.521   7.392 -3.2150  2.2366  0.1909
  107CHL1   C1714128   6.204   3.292   7.381 -0.7098 -0.0146 -0.0941
  107CHL1   H1714129   6.312   3.305   7.360 -0.7894  0.6264 -0.1244
  107CHL1   C1314130   6.195   3.199   7.510  0.2518  0.3755 -0.1399
  107CHL1   C1814131   6.047   3.150   7.522  0.2957 -0.3870  0.7642
  107CHL1  H18A14132   6.025   3.102   7.619 -0.6210  3.1250  2.4514
  107CHL1  H18B14133   5.980   3.238   7.516 -0.6554 -1.1075  0.5647
  107CHL1  H18C14134   6.015   3.084   7.438  2.6017  0.1821 -0.6593
  107CHL1   C1214135   6.307   3.095   7.521  0.6117 -0.1725  0.9428
  107CHL1  H12A14136   6.290   3.013   7.448 -0.9132  0.2641  0.7740
  107CHL1  H12B14137   6.402   3.145   7.492  0.1099  0.6032  0.5940
  107CHL1   C1114138   6.312   3.027   7.666  0.3580 -0.4668  0.1185
  107CHL1  H11A14139   6.232   2.950   7.670 -1.6041  1.4258 -0.7384
  107CHL1  H11B14140   6.414   2.988   7.686  1.3385  2.1445  0.6122
  107CHL1    C914141   6.302   3.133   7.780  0.5048  0.4771 -0.2936
  107CHL1    H914142   6.393   3.196   7.772  0.2780  0.6165 -2.6950
  107CHL1   C1014143   6.290   3.079   7.928  0.4791  0.1003  0.1512
  107CHL1   C1914144   6.186   2.962   7.916  0.0305 -0.1960 -0.6982
  107CHL1  H19A14145   6.095   2.991   7.858  0.3347 -0.4049 -1.2935
  107CHL1  H19B14146   6.225   2.875   7.859  1.9285 -1.5618  2.4316
  107CHL1  H19C14147   6.148   2.924   8.013  1.1172 -0.4704 -0.3645
  107CHL1    C114148   6.426   3.023   7.970 -0.2721 -0.4741  0.3709
  107CHL1   H1A14149   6.432   2.938   7.899 -0.6945  0.1782 -0.4596
  107CHL1   H1B14150   6.503   3.100   7.948  0.6753 -1.3024  0.7221
  107CHL1    C214151   6.430   2.980   8.119 -0.4319  0.4718  0.0214
  107CHL1   H2A14152   6.532   2.945   8.144  0.2123  1.7464 -0.7491
  107CHL1   H2B14153   6.366   2.889   8.122  2.3718 -1.7967 -2.7384
  107CHL1   C2014154   6.129   3.255   7.250  0.2275  0.3618  0.0658
  107CHL1   H2014155   6.019   3.259   7.265 -0.4259 -1.3636 -3.1251
  107CHL1   C2114156   6.178   3.114   7.212  0.4636  0.1257 -0.4532
  107CHL1  H21A14157   6.289   3.113   7.211  0.5207 -1.1058  1.7765
  107CHL1  H21B14158   6.137   3.082   7.114 -0.7367 -1.3662  0.4969
  107CHL1  H21C14159   6.147   3.037   7.285  0.8349 -0.0079 -0.4353
  107CHL1   C2214160   6.150   3.364   7.136 -0.6410 -0.1840  0.8144
  107CHL1  H22A14161   6.130   3.467   7.174  3.1539  1.0748 -0.0453
  107CHL1  H22B14162   6.261   3.362   7.123 -0.4237 -0.9027  2.5502
  107CHL1   C2314163   6.075   3.354   6.999 -0.2250 -0.0396 -0.6502
  107CHL1  H23A14164   6.100   3.259   6.948  2.7181 -1.1003  2.4227
  107CHL1  H23B14165   5.967   3.349   7.027 -0.9180  2.0302 -2.6699
  107CHL1   C2414166   6.086   3.484   6.917  0.2473 -0.4553 -0.8307
  107CHL1  H24A14167   6.057   3.574   6.974  3.2841 -0.4905  0.9831
  107CHL1  H24B14168   6.194   3.487   6.890  0.1769 -0.7369 -1.1639
  107CHL1   C2514169   5.993   3.475   6.793 -0.4312  1.3216 -0.0925
  107CHL1   H2514170   5.887   3.455   6.821 -0.7888 -0.5497 -2.4814
  107CHL1   C2614171   5.987   3.611   6.720  0.7345 -0.3814  0.1887
  107CHL1  H26A14172   5.952   3.691   6.789 -0.9485 -0.4980 -0.4738
  107CHL1  H26B14173   6.088   3.630   6.678  0.8535 -1.0613  0.1617
  107CHL1  H26C14174   5.918   3.601   6.633  1.1612  1.2730 -0.3826
  107CHL1   C2714175   6.049   3.365   6.692  0.3488 -0.6712  0.0537
  107CHL1  H27A14176   5.999   3.356   6.593  2.0131  0.9013 -1.0141
  107CHL1  H27B14177   6.158   3.382   6.678  0.7318 -2.6099  0.3909
  107CHL1  H27C14178   6.031   3.267   6.741 -2.6068  0.3764  1.2654
  108CHL1    C314179   6.261   6.121   9.132  0.3806  0.0846 -0.0525
  108CHL1    H314180   6.158   6.118   9.091 -0.1042  0.4804  1.1138
  108CHL1    O314181   6.259   6.132   9.274  0.3550  0.2258  0.0926
  108CHL1   H3'14182   6.201   6.206   9.296  0.4043  0.4966 -0.6498
  108CHL1    C414183   6.335   5.992   9.088 -0.3942 -0.5375 -0.0212
  108CHL1   H4A14184   6.438   5.985   9.130  0.0585  4.1420  0.1882
  108CHL1   H4B14185   6.283   5.906   9.134  2.0804 -0.8867  2.3347
  108CHL1    C514186   6.337   5.981   8.936 -0.0225 -0.1090  0.1029
  108CHL1    C614187   6.278   5.879   8.878  0.0700  0.5434  0.8709
  108CHL1    H614188   6.225   5.803   8.937  1.3980 -0.6612  0.5333
  108CHL1    C714189   6.271   5.866   8.724  0.1525  0.2007  0.4970
  108CHL1   H7A14190   6.286   5.761   8.688 -1.7647  0.6648 -1.9886
  108CHL1   H7B14191   6.169   5.892   8.688  1.0419  1.4371 -1.2698
  108CHL1    C814192   6.376   5.959   8.654  0.5170  0.1930  0.1967
  108CHL1    H814193   6.479   5.925   8.678  0.1251 -0.9518  0.2859
  108CHL1   C1414194   6.361   5.966   8.501  0.3394 -0.3733  0.4028
  108CHL1   H1414195   6.261   6.007   8.478  1.3540  1.2539 -1.4720
  108CHL1   C1514196   6.372   5.836   8.413  0.5781 -0.0765 -0.2393
  108CHL1  H15A14197   6.444   5.763   8.457 -0.4335 -1.6494 -1.1039
  108CHL1  H15B14198   6.271   5.791   8.422 -0.4188  2.0797 -0.0869
  108CHL1   C1614199   6.401   5.882   8.269 -0.6347 -0.4258 -0.3553
  108CHL1  H16A14200   6.494   5.828   8.240  0.7521 -0.6029  3.6806
  108CHL1  H16B14201   6.327   5.852   8.193  0.3472  0.1000 -1.5548
  108CHL1   C1714202   6.419   6.040   8.275  0.5751  0.1220  0.1688
  108CHL1   H1714203   6.320   6.087   8.255 -0.7111 -1.4372  2.4290
  108CHL1   C1314204   6.450   6.063   8.423 -0.0660 -1.0945 -0.0952
  108CHL1   C1814205   6.599   6.035   8.464 -0.0785  0.2763  0.4216
  108CHL1  H18A14206   6.641   5.947   8.411  0.4767  1.3273 -0.9301
  108CHL1  H18B14207   6.656   6.123   8.430 -0.1964  0.3975  0.5362
  108CHL1  H18C14208   6.615   6.017   8.573  0.2783 -2.4963 -0.0142
  108CHL1   C1214209   6.414   6.207   8.478 -0.1561 -0.3915  0.2436
  108CHL1  H12A14210   6.474   6.282   8.421 -2.0770 -0.7776 -2.4634
  108CHL1  H12B14211   6.308   6.236   8.464 -1.0518 -1.0752  4.3504
  108CHL1   C1114212   6.439   6.216   8.628 -0.0940 -0.1016 -0.6230
  108CHL1  H11A14213   6.548   6.199   8.642 -0.1715 -0.7200 -0.7354
  108CHL1  H11B14214   6.419   6.313   8.678 -0.9068 -0.6932  0.2234
  108CHL1    C914215   6.360   6.098   8.713 -0.5152  0.1452 -0.4054
  108CHL1    H914216   6.253   6.127   8.718  0.1747  2.8179  1.0424
  108CHL1   C1014217   6.390   6.101   8.869 -0.6168 -0.5001  0.1975
  108CHL1   C1914218   6.542   6.106   8.891 -0.0352  0.2911 -0.3341
  108CHL1  H19A14219   6.596   6.019   8.846  1.1388  0.3366  0.9293
  108CHL1  H19B14220   6.584   6.200   8.849  2.0422 -0.4593 -0.0956
  108CHL1  H19C14221   6.565   6.112   8.999 -2.3583  1.1005  0.1676
  108CHL1    C114222   6.319   6.227   8.922 -0.4007  0.1316 -0.5975
  108CHL1   H1A14223   6.364   6.317   8.874  0.5361  0.3198  0.6018
  108CHL1   H1B14224   6.214   6.206   8.891 -0.4430 -2.1633  0.8395
  108CHL1    C214225   6.329   6.245   9.075  0.0255  0.0445 -0.0784
  108CHL1   H2A14226   6.280   6.338   9.111 -1.6462 -0.9989  0.4651
  108CHL1   H2B14227   6.438   6.242   9.097  0.1348  0.3065 -0.5576
  108CHL1   C2014228   6.508   6.106   8.177 -0.8286 -0.0178  0.8129
  108CHL1   H2014229   6.605   6.127   8.226 -1.1735 -0.4619  1.7063
  108CHL1   C2114230   6.462   6.251   8.143 -0.8659 -0.1006 -0.3512
  108CHL1  H21A14231   6.388   6.266   8.061 -0.8180  2.5192 -0.0098
  108CHL1  H21B14232   6.548   6.305   8.099 -1.8134 -0.4585 -2.8671
  108CHL1  H21C14233   6.427   6.311   8.230 -0.6535  0.9363 -0.9595
  108CHL1   C2214234   6.536   6.019   8.056 -0.0905  0.0382  0.3386
  108CHL1  H22A14235   6.608   6.072   7.989 -0.6099 -1.6509 -1.6715
  108CHL1  H22B14236   6.592   5.926   8.076 -1.0300 -0.6809 -0.2901
  108CHL1   C2314237   6.413   5.987   7.969  0.0500 -0.7640  0.2155
  108CHL1  H23A14238   6.322   5.963   8.027  0.1216 -1.5671 -0.0016
  108CHL1  H23B14239   6.386   6.083   7.919 -1.9755 -1.0679  0.6371
  108CHL1   C2414240   6.448   5.872   7.868  0.4435  0.6179  0.3195
  108CHL1  H24A14241   6.541   5.909   7.819  1.3531  0.0176  1.5046
  108CHL1  H24B14242   6.460   5.775   7.922 -0.5299 -0.0829 -0.6993
  108CHL1   C2514243   6.334   5.849   7.766 -0.4332  0.4141 -0.1526
  108CHL1   H2514244   6.309   5.950   7.727 -2.5831  1.0680  2.5844
  108CHL1   C2614245   6.378   5.753   7.653  0.3763 -0.4419 -0.2597
  108CHL1  H26A14246   6.304   5.736   7.572  0.5096 -1.6718 -0.1413
  108CHL1  H26B14247   6.471   5.789   7.605 -0.1852  0.4485 -0.6920
  108CHL1  H26C14248   6.394   5.653   7.700 -0.4936 -0.6552 -0.4064
  108CHL1   C2714249   6.197   5.803   7.825 -0.2950 -0.6583  0.3530
  108CHL1  H27A14250   6.207   5.700   7.866 -1.2058 -0.9033 -0.0101
  108CHL1  H27B14251   6.152   5.857   7.910  3.6068  0.8219  1.7064
  108CHL1  H27C14252   6.126   5.814   7.741 -1.6189  1.8452  1.6965
  109CHL1    C314253   0.910   2.888   8.293 -0.3640 -0.4924  0.3823
  109CHL1    H314254   0.953   2.990   8.303 -0.1598 -0.6349  0.9947
  109CHL1    O314255   0.914   2.826   8.425  0.5910  0.4336  0.3021
  109CHL1   H3'14256   0.828   2.785   8.438  0.8477 -0.9129 -1.6976
  109CHL1    C414257   0.765   2.910   8.250  0.1286 -0.0862  0.8353
  109CHL1   H4A14258   0.701   2.821   8.264 -0.0191 -0.3413 -1.1009
  109CHL1   H4B14259   0.743   2.987   8.327  1.3201  1.2940 -0.1466
  109CHL1    C514260   0.761   2.947   8.102  0.3029  0.1106 -0.0617
  109CHL1    C614261   0.695   3.061   8.068  0.6291  0.6027  0.9611
  109CHL1    H614262   0.644   3.117   8.148 -0.1530  0.2941  0.6843
  109CHL1    C714263   0.658   3.093   7.923 -0.5608 -0.2282 -0.1279
  109CHL1   H7A14264   0.553   3.127   7.907 -1.2469 -1.8446  0.7026
  109CHL1   H7B14265   0.727   3.175   7.894 -0.1122 -0.2304  0.9115
  109CHL1    C814266   0.693   2.974   7.819  0.8975  0.3916 -0.8702
  109CHL1    H814267   0.614   2.900   7.847  1.2704  0.1251 -0.4991
  109CHL1   C1414268   0.669   3.000   7.669 -0.1983 -0.2381 -0.3639
  109CHL1   H1414269   0.739   3.081   7.642 -1.2744  0.8366 -0.0337
  109CHL1   C1514270   0.538   3.056   7.627 -0.4494 -0.3606  0.2045
  109CHL1  H15A14271   0.458   3.001   7.680  0.1383 -3.0517 -1.5000
  109CHL1  H15B14272   0.531   3.164   7.654  2.4038 -0.1931  0.6202
  109CHL1   C1614273   0.535   3.032   7.476  0.6541  0.0856 -0.2489
  109CHL1  H16A14274   0.435   2.992   7.448  0.5306 -0.2430  0.6248
  109CHL1  H16B14275   0.538   3.126   7.416 -0.2629 -0.6961 -1.5635
  109CHL1   C1714276   0.649   2.935   7.449 -0.0644 -0.6110  0.1272
  109CHL1   H1714277   0.727   3.012   7.430 -0.8597  0.5758  1.4460
  109CHL1   C1314278   0.697   2.875   7.582 -0.0357  0.0684 -0.5655
  109CHL1   C1814279   0.608   2.753   7.623 -0.1426 -0.3484  0.4549
  109CHL1  H18A14280   0.616   2.724   7.730 -1.3859 -1.5859  0.2518
  109CHL1  H18B14281   0.500   2.767   7.598 -0.3790  1.8404  2.3542
  109CHL1  H18C14282   0.642   2.666   7.562 -0.8315  1.0410 -2.0592
  109CHL1   C1214283   0.847   2.847   7.599  0.0333 -0.1225  0.0887
  109CHL1  H12A14284   0.871   2.765   7.527  0.2648 -0.6898  0.7924
  109CHL1  H12B14285   0.903   2.937   7.567  1.3169 -1.4997 -1.8522
  109CHL1   C1114286   0.879   2.804   7.743  0.1314  0.3063 -0.4746
  109CHL1  H11A14287   0.831   2.705   7.758  3.7361 -1.4861  0.4604
  109CHL1  H11B14288   0.986   2.778   7.758 -0.1572  0.0780  1.4324
  109CHL1    C914289   0.829   2.904   7.850  0.1612 -0.8106 -0.0707
  109CHL1    H914290   0.900   2.989   7.839 -2.0020  0.9626 -1.0388
  109CHL1   C1014291   0.836   2.856   8.001  0.7184 -0.8432  0.2811
  109CHL1   C1914292   0.761   2.721   8.007  0.2520  0.1476  0.0850
  109CHL1  H19A14293   0.654   2.723   7.978  0.5809  0.4652 -1.1461
  109CHL1  H19B14294   0.810   2.642   7.946 -2.3274 -2.3586  0.9843
  109CHL1  H19C14295   0.775   2.675   8.108  2.2187  0.3651 -0.0616
  109CHL1    C114296   0.983   2.848   8.053 -0.3128  0.3732  0.2662
  109CHL1   H1A14297   1.034   2.785   7.978  0.1367  1.1241 -0.0705
  109CHL1   H1B14298   1.019   2.951   8.034  1.9062  0.0972  2.4729
  109CHL1    C214299   0.994   2.800   8.198 -0.0160  0.2286 -0.3683
  109CHL1   H2A14300   1.101   2.798   8.229 -0.0809 -0.7426 -0.1947
  109CHL1   H2B14301   0.959   2.695   8.199 -0.0627  0.2402 -0.6482
  109CHL1   C2014302   0.617   2.846   7.325  0.8690 -0.6582  0.4356
  109CHL1   H2014303   0.549   2.763   7.355 -0.3400 -0.1796 -0.8678
  109CHL1   C2114304   0.745   2.781   7.268 -0.5262  0.0270  0.4240
  109CHL1  H21A14305   0.779   2.699   7.335 -1.0834 -1.8723 -1.4971
  109CHL1  H21B14306   0.826   2.857   7.264  0.9891 -1.2917  3.2208
  109CHL1  H21C14307   0.733   2.749   7.162  2.2047 -0.5331  0.2089
  109CHL1   C2214308   0.536   2.931   7.216 -0.0700 -0.3046  0.0988
  109CHL1  H22A14309   0.439   2.975   7.250 -0.3536 -0.5772 -0.3463
  109CHL1  H22B14310   0.602   3.014   7.183 -0.5211 -0.5233 -1.4277
  109CHL1   C2314311   0.489   2.843   7.098  0.2875  0.0087  0.0733
  109CHL1  H23A14312   0.571   2.792   7.042  0.2568 -1.8423  1.5988
  109CHL1  H23B14313   0.423   2.765   7.142  0.8294 -1.3105 -1.3379
  109CHL1   C2414314   0.402   2.918   6.991  0.1248  0.5541 -0.3212
  109CHL1  H24A14315   0.310   2.950   7.045  1.7183  3.0774  1.0550
  109CHL1  H24B14316   0.458   3.007   6.957  0.5735  0.3566 -0.1171
  109CHL1   C2514317   0.365   2.834   6.871 -0.2173  0.3578  0.0316
  109CHL1   H2514318   0.453   2.805   6.810 -1.2032 -0.9526 -0.8233
  109CHL1   C2614319   0.283   2.710   6.918  0.1391 -0.0548  0.2316
  109CHL1  H26A14320   0.186   2.739   6.963 -0.1254  1.1938 -1.1137
  109CHL1  H26B14321   0.265   2.637   6.836 -0.0836 -1.3396  1.3825
  109CHL1  H26C14322   0.338   2.657   6.999 -1.8454 -0.6570  1.2500
  109CHL1   C2714323   0.272   2.912   6.777  0.4085 -0.3911 -0.3448
  109CHL1  H27A14324   0.221   2.843   6.706  1.5768 -1.2416 -0.3772
  109CHL1  H27B14325   0.198   2.962   6.843  0.3744  0.2005 -0.8239
  109CHL1  H27C14326   0.327   2.986   6.714 -2.4393  0.5534 -1.9402
  110CHL1    C314327   2.270   0.689   8.161  0.7777  0.3669  0.1649
  110CHL1    H314328   2.373   0.732   8.155  1.1235 -0.3490  0.8401
  110CHL1    O314329   2.224   0.686   8.293 -0.1815 -0.7168 -0.2127
  110CHL1   H3'14330   2.241   0.596   8.319  0.3578 -0.8271 -0.9092
  110CHL1    C414331   2.171   0.769   8.070 -0.3953  0.0941  0.2834
  110CHL1   H4A14332   2.068   0.739   8.099 -1.1878  1.5368 -0.9156
  110CHL1   H4B14333   2.177   0.876   8.101 -2.0225  0.1780  0.4143
  110CHL1    C514334   2.192   0.763   7.920 -1.1359  0.6241  0.4697
  110CHL1    C614335   2.209   0.874   7.842  0.2824  0.4140  0.2912
  110CHL1    H614336   2.174   0.967   7.889 -1.7120  0.6038 -1.4051
  110CHL1    C714337   2.242   0.876   7.698 -0.0388 -0.6276 -0.2554
  110CHL1   H7A14338   2.175   0.949   7.647 -1.7375 -0.9486  1.4130
  110CHL1   H7B14339   2.347   0.913   7.696 -0.0244 -0.4838  1.5082
  110CHL1    C814340   2.232   0.740   7.630  0.0281  0.1731 -0.6804
  110CHL1    H814341   2.124   0.718   7.623 -0.2461  0.7028  1.3315
  110CHL1   C1414342   2.309   0.741   7.499  0.4002 -0.1190  0.3186
  110CHL1   H1414343   2.416   0.746   7.528  0.4954  0.8938 -0.1485
  110CHL1   C1514344   2.276   0.848   7.395 -0.1549 -0.3742  0.1461
  110CHL1  H15A14345   2.165   0.845   7.386 -0.0091 -0.1602 -2.3232
  110CHL1  H15B14346   2.314   0.948   7.424 -3.4232  0.6791  1.1841
  110CHL1   C1614347   2.337   0.790   7.263  0.2501  0.3137  0.0835
  110CHL1  H16A14348   2.251   0.797   7.193 -1.5598  2.3574  2.3298
  110CHL1  H16B14349   2.435   0.831   7.229  1.8478 -2.5616  0.9014
  110CHL1   C1714350   2.377   0.643   7.291  0.5387  0.2832 -0.6020
  110CHL1   H1714351   2.484   0.628   7.318  0.5626  1.0217 -0.2318
  110CHL1   C1314352   2.298   0.607   7.421  0.3917  0.0892  0.4354
  110CHL1   C1814353   2.149   0.581   7.387 -0.4333 -0.1678  0.3517
  110CHL1  H18A14354   2.090   0.546   7.474 -4.7314 -0.6874 -2.4495
  110CHL1  H18B14355   2.103   0.662   7.328 -1.0466 -0.5148  0.3468
  110CHL1  H18C14356   2.139   0.489   7.325 -0.5728  1.6484 -2.5280
  110CHL1   C1214357   2.371   0.504   7.508  0.5702  0.4161  0.0364
  110CHL1  H12A14358   2.361   0.402   7.465 -0.0470  0.1262  0.8254
  110CHL1  H12B14359   2.477   0.535   7.507  0.5991  0.3330  0.4676
  110CHL1   C1114360   2.304   0.499   7.644  0.8130 -0.3060 -0.9405
  110CHL1  H11A14361   2.200   0.462   7.628  0.4652  0.1132  0.2170
  110CHL1  H11B14362   2.362   0.418   7.693  1.2561 -0.5117 -1.7946
  110CHL1    C914363   2.293   0.631   7.721 -0.2636 -0.3632 -0.5839
  110CHL1    H914364   2.394   0.668   7.746 -0.8402  0.2495  0.9642
  110CHL1   C1014365   2.219   0.622   7.860  0.4940 -0.1108 -0.0126
  110CHL1   C1914366   2.076   0.555   7.833 -0.4171  0.2375 -0.0640
  110CHL1  H19A14367   2.007   0.614   7.769  0.7290  0.3275 -1.2499
  110CHL1  H19B14368   2.080   0.451   7.793 -0.1100  0.0116  0.5454
  110CHL1  H19C14369   2.024   0.546   7.930 -1.5226 -1.2701 -0.7602
  110CHL1    C114370   2.308   0.540   7.957  0.3594  0.4965  1.0516
  110CHL1   H1A14371   2.306   0.431   7.934 -0.5779  1.0477 -1.7616
  110CHL1   H1B14372   2.412   0.580   7.953  0.1723  1.0994  1.9007
  110CHL1    C214373   2.275   0.545   8.108 -0.1627  0.2953 -0.6180
  110CHL1   H2A14374   2.353   0.481   8.155 -0.2217  0.9270  0.3692
  110CHL1   H2B14375   2.182   0.484   8.120  0.0740  0.1720  0.8413
  110CHL1   C2014376   2.355   0.557   7.164  0.3018 -0.0336 -0.3464
  110CHL1   H2014377   2.253   0.569   7.122 -0.0014  0.4633  0.5170
  110CHL1   C2114378   2.387   0.411   7.200 -0.1582 -0.4815 -0.4959
  110CHL1  H21A14379   2.484   0.408   7.255 -0.0668  1.2995 -0.4781
  110CHL1  H21B14380   2.402   0.368   7.099  0.7948 -0.9157 -0.1889
  110CHL1  H21C14381   2.305   0.354   7.247 -0.4313  0.8546  0.7387
  110CHL1   C2214382   2.447   0.602   7.042  0.1165 -0.3948  0.4159
  110CHL1  H22A14383   2.426   0.705   7.006  0.5381 -0.2425  0.5969
  110CHL1  H22B14384   2.555   0.594   7.068 -0.1447  0.5013  1.8566
  110CHL1   C2314385   2.421   0.525   6.906  0.6389 -0.7446 -0.4464
  110CHL1  H23A14386   2.462   0.423   6.924 -1.3539 -1.4646  0.2795
  110CHL1  H23B14387   2.310   0.521   6.899  0.6424  0.7679 -1.7440
  110CHL1   C2414388   2.490   0.600   6.787  0.3468 -0.5581 -0.0391
  110CHL1  H24A14389   2.450   0.701   6.766 -0.7265 -1.0696 -0.5171
  110CHL1  H24B14390   2.596   0.619   6.815 -0.2488  0.4420  1.7192
  110CHL1   C2514391   2.479   0.524   6.654 -0.5856  0.3376  0.3226
  110CHL1   H2514392   2.512   0.590   6.571  0.5950 -0.8894 -0.2158
  110CHL1   C2614393   2.568   0.395   6.660  0.3085 -0.0706  0.1143
  110CHL1  H26A14394   2.676   0.420   6.674  0.4088 -0.7983  0.7075
  110CHL1  H26B14395   2.547   0.329   6.747  1.0325  0.4519  0.6923
  110CHL1  H26C14396   2.565   0.333   6.567 -0.6982 -0.3713  0.3353
  110CHL1   C2714397   2.343   0.477   6.610  0.5016  0.0714 -0.2482
  110CHL1  H27A14398   2.270   0.560   6.607 -3.2608 -3.0147 -1.0576
  110CHL1  H27B14399   2.340   0.426   6.511 -1.5300 -2.8228  1.1363
  110CHL1  H27C14400   2.299   0.417   6.693  1.2664 -0.6347 -0.3431
  111CHL1    C314401   3.665   2.529   8.070  0.5023  0.5909 -0.0798
  111CHL1    H314402   3.596   2.614   8.051  0.2257  0.5148  0.5383
  111CHL1    O314403   3.638   2.499   8.207  0.0654 -0.0489 -0.3107
  111CHL1   H3'14404   3.715   2.517   8.260 -1.9352  1.0665  2.4810
  111CHL1    C414405   3.638   2.403   7.987  0.3257  0.1117  0.2283
  111CHL1   H4A14406   3.717   2.333   8.022 -0.7677 -1.1037  0.3548
  111CHL1   H4B14407   3.535   2.363   7.997 -0.1833  1.3715  0.1952
  111CHL1    C514408   3.663   2.442   7.839  0.3710  0.1288  0.1339
  111CHL1    C614409   3.565   2.415   7.755  0.0815  0.7912  0.7264
  111CHL1    H614410   3.472   2.369   7.792 -0.7651  0.1339 -1.9963
  111CHL1    C714411   3.578   2.434   7.607 -0.2349 -0.1836  0.1626
  111CHL1   H7A14412   3.539   2.347   7.550 -0.6483  1.1517 -1.6940
  111CHL1   H7B14413   3.512   2.520   7.582 -0.0929  0.8925  3.0794
  111CHL1    C814414   3.720   2.459   7.562 -0.5237  0.2275 -0.6693
  111CHL1    H814415   3.780   2.366   7.550  0.1079  0.5916 -0.3752
  111CHL1   C1414416   3.720   2.526   7.432  0.4553  0.1520 -0.8047
  111CHL1   H1414417   3.676   2.628   7.439 -0.8219 -0.4062 -0.4162
  111CHL1   C1514418   3.629   2.454   7.329 -0.3882  0.0897 -0.4871
  111CHL1  H15A14419   3.643   2.344   7.327 -1.4365 -0.0878  0.5774
  111CHL1  H15B14420   3.518   2.459   7.339 -0.6026 -1.6753 -1.5838
  111CHL1   C1614421   3.682   2.503   7.192  0.4889  0.0593 -0.1014
  111CHL1  H16A14422   3.716   2.418   7.130  1.4787  0.5424 -0.2476
  111CHL1  H16B14423   3.608   2.566   7.139  1.7088  1.9064  0.2975
  111CHL1   C1714424   3.800   2.607   7.219  0.0458  0.2573  0.0813
  111CHL1   H1714425   3.747   2.705   7.224 -1.5055 -0.2962 -3.0682
  111CHL1   C1314426   3.857   2.545   7.360 -0.8409 -0.3484  0.0346
  111CHL1   C1814427   3.932   2.410   7.342 -0.1797 -0.1620  0.2319
  111CHL1  H18A14428   4.029   2.434   7.293 -0.7938 -1.0810 -1.5270
  111CHL1  H18B14429   3.958   2.361   7.438  0.3941  1.8283  1.1289
  111CHL1  H18C14430   3.893   2.339   7.266  0.7574 -0.3849 -0.0506
  111CHL1   C1214431   3.940   2.643   7.454  0.5939  0.0792 -0.1430
  111CHL1  H12A14432   4.047   2.646   7.424  0.3428  0.5234 -1.0163
  111CHL1  H12B14433   3.884   2.739   7.448  0.8848  0.3976  1.7168
  111CHL1   C1114434   3.942   2.594   7.599 -0.6678 -0.8864  0.5645
  111CHL1  H11A14435   4.004   2.502   7.610 -0.5008 -0.8352  0.0837
  111CHL1  H11B14436   3.994   2.675   7.654 -2.9911  0.6592  0.5955
  111CHL1    C914437   3.796   2.568   7.650  0.5750  0.7298 -0.0782
  111CHL1    H914438   3.739   2.663   7.644  1.9279  1.4856 -1.8026
  111CHL1   C1014439   3.793   2.519   7.802 -1.2413  0.1729 -0.2656
  111CHL1   C1914440   3.899   2.405   7.813  0.2397 -0.0354 -0.2678
  111CHL1  H19A14441   3.901   2.334   7.728  0.2601 -0.7758  0.3410
  111CHL1  H19B14442   4.002   2.446   7.814  0.1401  0.2123  0.1433
  111CHL1  H19C14443   3.888   2.355   7.912  0.6989 -1.1266 -0.7533
  111CHL1    C114444   3.825   2.636   7.903  0.1818 -0.3541 -0.0750
  111CHL1   H1A14445   3.930   2.657   7.873  0.2661 -0.2339  0.2899
  111CHL1   H1B14446   3.754   2.719   7.881 -0.7071 -1.1663 -0.3098
  111CHL1    C214447   3.804   2.592   8.049 -0.0061  0.5541  0.1670
  111CHL1   H2A14448   3.820   2.673   8.124 -0.7767  0.4271  0.4761
  111CHL1   H2B14449   3.875   2.515   8.087  1.3071  2.8513  2.8124
  111CHL1   C2014450   3.891   2.614   7.098 -0.3920 -0.4454 -0.4531
  111CHL1   H2014451   3.950   2.520   7.093 -0.1542 -0.4103  1.3557
  111CHL1   C2114452   3.985   2.739   7.123 -0.0947 -0.7779 -0.2967
  111CHL1  H21A14453   4.059   2.733   7.039  0.7838  0.9075  0.3031
  111CHL1  H21B14454   4.029   2.733   7.225  2.4470 -0.7142 -1.3058
  111CHL1  H21C14455   3.930   2.835   7.117 -0.5152 -1.0781 -4.0914
  111CHL1   C2214456   3.818   2.627   6.955 -0.2742  0.2138  0.0416
  111CHL1  H22A14457   3.719   2.578   6.949  0.2420 -0.7906 -0.6330
  111CHL1  H22B14458   3.805   2.736   6.938 -2.3428  0.2585  1.5980
  111CHL1   C2314459   3.911   2.576   6.839 -0.5913  0.0543 -0.2270
  111CHL1  H23A14460   4.007   2.627   6.863 -0.2398  0.3179 -2.0394
  111CHL1  H23B14461   3.926   2.466   6.848 -3.0132 -0.3832 -0.7941
  111CHL1   C2414462   3.860   2.610   6.699 -0.3094  0.2951  0.0232
  111CHL1  H24A14463   3.782   2.537   6.669 -1.8393  2.2342 -1.0096
  111CHL1  H24B14464   3.814   2.711   6.689 -1.5349 -0.3790 -1.6850
  111CHL1   C2514465   3.967   2.594   6.587 -0.5013  0.2392 -0.4750
  111CHL1   H2514466   4.027   2.503   6.609 -1.7951 -0.6268 -0.4211
  111CHL1   C2614467   3.904   2.584   6.451 -0.5458 -0.4292 -0.4909
  111CHL1  H26A14468   3.836   2.498   6.437 -1.9702  0.4605  0.6023
  111CHL1  H26B14469   3.849   2.680   6.438 -0.0875  0.2202  1.8374
  111CHL1  H26C14470   3.981   2.575   6.372  1.0098  3.1336  0.3998
  111CHL1   C2714471   4.062   2.711   6.593  0.1170 -0.2586  0.5395
  111CHL1  H27A14472   4.011   2.808   6.577 -1.0010 -1.1370 -1.5971
  111CHL1  H27B14473   4.110   2.716   6.693 -1.3246 -2.1051  1.3744
  111CHL1  H27C14474   4.140   2.713   6.514 -1.1993 -0.9602 -0.8341
  112CHL1    C314475   5.691   3.009   8.170  0.2209  0.1725 -0.0611
  112CHL1    H314476   5.617   3.084   8.203  0.4948 -0.9120  3.5382
  112CHL1    O314477   5.746   2.964   8.295  0.4589 -0.1928  0.5099
  112CHL1   H3'14478   5.822   3.022   8.305  0.8561 -0.5126 -0.5304
  112CHL1    C414479   5.632   2.887   8.096  0.3773  0.1833 -0.4046
  112CHL1   H4A14480   5.712   2.810   8.094 -1.2838 -1.7642  2.1299
  112CHL1   H4B14481   5.554   2.839   8.158  0.0906 -1.3860 -1.9089
  112CHL1    C514482   5.588   2.919   7.954 -0.6947  0.3333  0.8281
  112CHL1    C614483   5.463   2.901   7.920  0.5408 -0.0278  0.3165
  112CHL1    H614484   5.390   2.871   7.996  0.0913  0.2395 -0.0040
  112CHL1    C714485   5.413   2.922   7.781  0.3420 -0.0430 -0.1420
  112CHL1   H7A14486   5.347   2.834   7.766 -0.1407  0.0996  1.0516
  112CHL1   H7B14487   5.351   3.014   7.777  0.4418 -0.0072 -1.3681
  112CHL1    C814488   5.521   2.936   7.675  0.3232 -0.3303 -0.1517
  112CHL1    H814489   5.562   2.836   7.653 -1.4077 -0.5556 -2.6548
  112CHL1   C1414490   5.467   2.986   7.545 -0.7053 -0.0072 -0.3474
  112CHL1   H1414491   5.421   3.083   7.574 -3.3537 -1.0894 -0.7014
  112CHL1   C1514492   5.357   2.915   7.477  0.4478 -0.0585 -0.7490
  112CHL1  H15A14493   5.387   2.809   7.471  1.0346  0.1181 -0.9846
  112CHL1  H15B14494   5.268   2.909   7.543  2.2245 -0.8331  1.7033
  112CHL1   C1614495   5.346   2.976   7.337  0.0050  0.3317  0.3803
  112CHL1  H16A14496   5.324   2.902   7.257  2.0410 -1.9412  1.7991
  112CHL1  H16B14497   5.271   3.058   7.337  0.8914  1.1720 -0.4159
  112CHL1   C1714498   5.481   3.052   7.318 -0.0249  0.0342 -0.4142
  112CHL1   H1714499   5.457   3.158   7.340 -1.2461 -0.5482  1.2307
  112CHL1   C1314500   5.576   3.006   7.433  0.8723 -0.4499  0.0154
  112CHL1   C1814501   5.657   2.877   7.395  0.0322 -0.1028  0.2785
  112CHL1  H18A14502   5.741   2.893   7.324  0.6671 -2.3190  0.4338
  112CHL1  H18B14503   5.691   2.827   7.488 -2.9427 -1.0384  0.9781
  112CHL1  H18C14504   5.593   2.798   7.350 -0.2580 -0.4394  1.2611
  112CHL1   C1214505   5.673   3.108   7.477  0.4184 -0.7958  0.1203
  112CHL1  H12A14506   5.757   3.128   7.407 -0.3114  0.9346 -0.3091
  112CHL1  H12B14507   5.621   3.205   7.492 -0.5049 -1.1053 -0.9403
  112CHL1   C1114508   5.729   3.078   7.616 -0.6198  0.2965 -0.5377
  112CHL1  H11A14509   5.791   2.986   7.605  1.4722  1.3787  1.3452
  112CHL1  H11B14510   5.800   3.157   7.648  1.7852 -2.1694  0.6357
  112CHL1    C914511   5.631   3.032   7.724  0.0190  0.2518  0.6407
  112CHL1    H914512   5.577   3.125   7.751 -0.0093  0.6118 -0.5944
  112CHL1   C1014513   5.693   2.978   7.859  0.7912 -0.1569 -0.3019
  112CHL1   C1914514   5.807   2.882   7.824  0.8350 -0.1723  0.2560
  112CHL1  H19A14515   5.860   2.852   7.916  0.8991  0.7383  0.5283
  112CHL1  H19B14516   5.766   2.793   7.772 -2.3483  0.6278  1.1730
  112CHL1  H19C14517   5.885   2.935   7.766  1.6056 -0.0977  1.3293
  112CHL1    C114518   5.750   3.103   7.945 -0.1981  0.5415  0.3476
  112CHL1   H1A14519   5.831   3.153   7.887  0.5550 -1.1239 -0.0803
  112CHL1   H1B14520   5.660   3.167   7.954 -0.9516 -0.6881  2.0175
  112CHL1    C214521   5.796   3.074   8.091  0.1083 -0.3551 -0.6247
  112CHL1   H2A14522   5.819   3.175   8.131  0.2501  0.1004 -1.8278
  112CHL1   H2B14523   5.888   3.011   8.089  0.5824  0.3475 -1.2857
  112CHL1   C2014524   5.521   3.049   7.169 -0.7530 -0.5812 -0.2303
  112CHL1   H2014525   5.541   2.944   7.140 -0.8607  0.2817 -4.0048
  112CHL1   C2114526   5.650   3.130   7.154 -0.5744  0.3393 -0.2344
  112CHL1  H21A14527   5.738   3.087   7.207 -0.8660  1.5713  1.3131
  112CHL1  H21B14528   5.639   3.233   7.195 -1.2258  1.2674 -2.5657
  112CHL1  H21C14529   5.684   3.145   7.049  1.9286 -2.0707  0.1158
  112CHL1   C2214530   5.412   3.105   7.073 -0.1353  0.5106 -0.2693
  112CHL1  H22A14531   5.318   3.049   7.096  0.4241  0.1800  1.3308
  112CHL1  H22B14532   5.404   3.213   7.095  1.4986  0.6062 -0.0396
  112CHL1   C2314533   5.446   3.096   6.922  0.3674  0.3469  0.5036
  112CHL1  H23A14534   5.534   3.153   6.886 -1.6197  1.8905 -2.3554
  112CHL1  H23B14535   5.466   2.988   6.907 -0.8745  0.0095  1.0986
  112CHL1   C2414536   5.331   3.157   6.848  0.8608  0.7108 -0.1453
  112CHL1  H24A14537   5.242   3.101   6.884  1.5742 -0.6042 -0.3393
  112CHL1  H24B14538   5.313   3.263   6.874  1.1643  0.1059  2.8804
  112CHL1   C2514539   5.352   3.150   6.697 -0.0175  0.1596 -0.7048
  112CHL1   H2514540   5.448   3.204   6.682  0.4835  0.0043  1.5905
  112CHL1   C2614541   5.370   3.015   6.634 -0.3848  0.1208  0.1712
  112CHL1  H26A14542   5.459   2.958   6.667 -1.4263 -2.0213 -0.5606
  112CHL1  H26B14543   5.280   2.955   6.659 -0.8953  0.8988  0.2513
  112CHL1  H26C14544   5.359   3.029   6.524 -2.6552  0.2449  0.3707
  112CHL1   C2714545   5.242   3.233   6.633 -0.3170  0.2544 -0.3869
  112CHL1  H27A14546   5.263   3.338   6.665 -1.5882 -0.1657  2.0940
  112CHL1  H27B14547   5.238   3.236   6.522  0.0770  2.7435 -0.4010
  112CHL1  H27C14548   5.142   3.204   6.671 -1.0973 -0.5181 -2.8198
  113CHL1    C314549   1.912   6.192   8.295 -0.0077 -0.4103 -0.0982
  113CHL1    H314550   1.806   6.211   8.267  0.4485  2.1546 -0.3071
  113CHL1    O314551   1.923   6.214   8.436  0.4458 -0.0693 -0.0329
  113CHL1   H3'14552   2.012   6.198   8.467  0.0438  2.2063  2.6133
  113CHL1    C414553   1.967   6.054   8.257  0.5402 -0.4098 -0.2736
  113CHL1   H4A14554   2.073   6.041   8.288  0.4096  1.2338  0.9656
  113CHL1   H4B14555   1.918   5.978   8.321 -0.0562 -0.0400 -0.2891
  113CHL1    C514556   1.948   6.025   8.108 -0.0342  0.6999 -0.6235
  113CHL1    C614557   1.886   5.912   8.065 -0.4254 -1.2356 -0.6452
  113CHL1    H614558   1.851   5.835   8.135  2.4138 -0.4010  1.9369
  113CHL1    C714559   1.865   5.885   7.923 -0.8579  0.6170  0.2360
  113CHL1   H7A14560   1.889   5.778   7.905  0.2946  0.7779  0.6903
  113CHL1   H7B14561   1.758   5.904   7.900 -0.5377  2.3115  0.0017
  113CHL1    C814562   1.944   5.972   7.827 -0.1040 -0.1830  0.8192
  113CHL1    H814563   2.046   5.928   7.819 -0.3130 -0.3086 -2.8444
  113CHL1   C1414564   1.898   5.962   7.684 -0.0825 -0.6451 -0.1051
  113CHL1   H1414565   1.798   6.010   7.678  1.2826  2.3209 -0.9291
  113CHL1   C1514566   1.881   5.813   7.630 -0.8715 -0.0924  0.7798
  113CHL1  H15A14567   1.966   5.746   7.657 -0.1720  0.5067  0.0947
  113CHL1  H15B14568   1.789   5.766   7.670 -0.8427  1.0654  2.2607
  113CHL1   C1614569   1.872   5.840   7.470 -0.6615  0.2106 -0.3612
  113CHL1  H16A14570   1.931   5.777   7.400 -1.1387  1.3361 -1.8203
  113CHL1  H16B14571   1.766   5.826   7.442  0.0459 -1.4199 -2.4433
  113CHL1   C1714572   1.907   5.998   7.455 -0.1577 -0.0752 -0.4031
  113CHL1   H1714573   1.809   6.049   7.465  0.4047  0.7332  1.5842
  113CHL1   C1314574   1.974   6.043   7.583 -0.6848  0.0821  0.2343
  113CHL1   C1814575   2.126   5.996   7.574 -0.2686 -0.0822  0.1858
  113CHL1  H18A14576   2.129   5.887   7.553 -0.0886  0.3762 -2.6983
  113CHL1  H18B14577   2.182   6.047   7.493 -0.2736  0.9902  0.8403
  113CHL1  H18C14578   2.180   6.007   7.670 -0.6002 -0.2552  0.3926
  113CHL1   C1214579   1.963   6.191   7.629  0.5127 -0.0262 -0.3426
  113CHL1  H12A14580   2.019   6.265   7.569  3.2760  1.0225  3.1811
  113CHL1  H12B14581   1.853   6.209   7.624  0.3253 -1.4071 -3.0735
  113CHL1   C1114582   2.007   6.206   7.775 -0.1104 -0.4825  0.1076
  113CHL1  H11A14583   2.118   6.203   7.775 -0.1117 -0.5636 -0.6278
  113CHL1  H11B14584   1.978   6.311   7.799  0.9536 -0.1184 -0.1687
  113CHL1    C914585   1.943   6.112   7.877 -0.3664 -0.1122 -0.1498
  113CHL1    H914586   1.835   6.139   7.882 -0.3194 -0.2470  2.3365
  113CHL1   C1014587   2.006   6.132   8.025  0.0228  0.0787 -0.0306
  113CHL1   C1914588   2.155   6.117   8.016  0.2932  0.0206  0.4070
  113CHL1  H19A14589   2.191   6.130   8.120 -3.2944  2.1574  1.5263
  113CHL1  H19B14590   2.184   6.026   7.958 -0.6632 -1.4965  2.2068
  113CHL1  H19C14591   2.204   6.205   7.969  0.5698 -0.0595  0.5440
  113CHL1    C114592   1.972   6.281   8.074 -0.0862  0.1723  0.2617
  113CHL1   H1A14593   2.042   6.348   8.019 -0.8865  0.7775 -0.0481
  113CHL1   H1B14594   1.869   6.309   8.044 -0.5880 -0.4461  1.3494
  113CHL1    C214595   1.992   6.295   8.225  0.5412  0.0581 -0.2954
  113CHL1   H2A14596   1.954   6.396   8.254  1.0950 -0.0054  0.7102
  113CHL1   H2B14597   2.101   6.287   8.244  0.4115  2.4439  2.0847
  113CHL1   C2014598   1.957   6.033   7.315  0.7042  0.1143  0.6520
  113CHL1   H2014599   2.050   5.976   7.291  0.2203 -1.2571  1.8989
  113CHL1   C2114600   1.979   6.186   7.304 -0.4702 -0.1023 -0.1079
  113CHL1  H21A14601   2.062   6.223   7.368 -0.9165  2.5499 -0.9247
  113CHL1  H21B14602   1.889   6.239   7.342  1.6138  1.1200  3.6917
  113CHL1  H21C14603   2.020   6.209   7.203 -2.1133 -0.9981 -1.0207
  113CHL1   C2214604   1.856   5.980   7.202 -0.4753 -0.1131  0.4399
  113CHL1  H22A14605   1.817   5.881   7.233  0.3026 -0.4585  0.3215
  113CHL1  H22B14606   1.773   6.055   7.196  1.7603  2.5394  0.4479
  113CHL1   C2314607   1.914   5.973   7.065  0.1916 -0.0271  0.3024
  113CHL1  H23A14608   1.946   6.071   7.023 -1.6832  0.8818  0.8816
  113CHL1  H23B14609   1.997   5.900   7.064  1.0247  0.8283 -2.6496
  113CHL1   C2414610   1.810   5.921   6.961 -0.7338 -0.2152 -0.1959
  113CHL1  H24A14611   1.799   5.813   6.984 -2.5282 -0.1127 -0.4402
  113CHL1  H24B14612   1.708   5.962   6.976 -0.4962  0.4405 -0.3499
  113CHL1   C2514613   1.858   5.935   6.816 -0.3897 -0.4662  0.1461
  113CHL1   H2514614   1.967   5.915   6.821 -0.6799 -1.9156  1.4049
  113CHL1   C2614615   1.805   5.831   6.722  0.3332  0.0394 -0.1849
  113CHL1  H26A14616   1.809   5.726   6.757  0.7884  0.2826  0.5234
  113CHL1  H26B14617   1.702   5.864   6.698 -0.2895 -0.4004  1.7543
  113CHL1  H26C14618   1.868   5.834   6.630  0.7719 -2.6329 -0.0444
  113CHL1   C2714619   1.821   6.078   6.762 -0.3439  0.2546  0.7630
  113CHL1  H27A14620   1.712   6.087   6.741  0.3996  0.9192 -3.9089
  113CHL1  H27B14621   1.859   6.145   6.843  2.5889 -1.3393  0.8225
  113CHL1  H27C14622   1.870   6.099   6.665  0.1458 -3.6682  0.0317
  114CHL1    C314623   4.682   1.546   8.334 -0.0192 -0.4696  0.0031
  114CHL1    H314624   4.762   1.610   8.292 -0.8607  0.4961 -0.1867
  114CHL1    O314625   4.686   1.526   8.475 -0.0697 -0.7687 -0.1291
  114CHL1   H3'14626   4.638   1.444   8.489 -0.7700 -0.0872  1.8310
  114CHL1    C414627   4.541   1.605   8.294 -0.8630 -0.4336 -0.0975
  114CHL1   H4A14628   4.468   1.542   8.349  1.4327 -2.6593  0.6306
  114CHL1   H4B14629   4.535   1.709   8.331  0.7632  1.1172 -3.7652
  114CHL1    C514630   4.516   1.596   8.147  0.6516  0.2169 -0.2907
  114CHL1    C614631   4.479   1.706   8.077  0.2030 -0.1363 -0.0283
  114CHL1    H614632   4.464   1.791   8.145 -2.1672 -0.5010 -0.0252
  114CHL1    C714633   4.472   1.720   7.929 -0.0609 -0.4111 -0.2294
  114CHL1   H7A14634   4.377   1.771   7.903 -2.1006 -3.4806  0.6681
  114CHL1   H7B14635   4.560   1.778   7.892 -0.6344 -1.1212 -2.9014
  114CHL1    C814636   4.473   1.582   7.865 -0.2768 -0.2556  0.1003
  114CHL1    H814637   4.376   1.529   7.878 -0.4450 -0.7526 -2.5761
  114CHL1   C1414638   4.499   1.598   7.716 -0.2927  0.1741  0.1829
  114CHL1   H1414639   4.601   1.637   7.697  0.7461 -2.6795 -0.5943
  114CHL1   C1514640   4.409   1.700   7.639 -0.1630 -0.8519  0.2386
  114CHL1  H15A14641   4.307   1.690   7.681 -0.4237  0.1020 -0.1397
  114CHL1  H15B14642   4.447   1.804   7.647  0.0361 -0.5896 -2.8126
  114CHL1   C1614643   4.418   1.650   7.491  0.1514 -0.3910  0.4335
  114CHL1  H16A14644   4.313   1.633   7.459 -0.0473 -0.9401  1.3281
  114CHL1  H16B14645   4.448   1.737   7.428 -0.1517 -0.9999 -0.5708
  114CHL1   C1714646   4.510   1.527   7.486 -0.3999  0.9608 -0.1305
  114CHL1   H1714647   4.611   1.571   7.472 -0.2518  1.0464  1.1547
  114CHL1   C1314648   4.497   1.466   7.629 -0.6015  0.1789 -1.4276
  114CHL1   C1814649   4.356   1.399   7.644  0.5640  0.3628 -0.4350
  114CHL1  H18A14650   4.320   1.350   7.737  1.0721  0.8852  0.0438
  114CHL1  H18B14651   4.275   1.469   7.617  0.8762  1.0630  0.3843
  114CHL1  H18C14652   4.342   1.316   7.571  1.6477 -1.6312  1.4797
  114CHL1   C1214653   4.620   1.386   7.685 -0.9520  0.0756 -0.7621
  114CHL1  H12A14654   4.646   1.300   7.620 -1.5821 -1.0438  0.4172
  114CHL1  H12B14655   4.711   1.449   7.682 -1.5527  1.2240  2.0527
  114CHL1   C1114656   4.595   1.364   7.831  0.6944 -0.2929  0.8569
  114CHL1  H11A14657   4.501   1.305   7.831  1.2539 -1.2310  1.8798
  114CHL1  H11B14658   4.671   1.299   7.880 -3.0792 -2.8730  3.9232
  114CHL1    C914659   4.582   1.493   7.918 -0.3681 -0.1575 -0.1290
  114CHL1    H914660   4.676   1.550   7.907 -0.2149 -0.5208 -0.7558
  114CHL1   C1014661   4.563   1.470   8.074 -0.3425  0.4740 -0.9684
  114CHL1   C1914662   4.461   1.360   8.091  0.0856 -0.3537 -0.2909
  114CHL1  H19A14663   4.436   1.358   8.199 -0.8797  3.4323 -0.3051
  114CHL1  H19B14664   4.361   1.382   8.049  0.2334  1.5608  0.2630
  114CHL1  H19C14665   4.508   1.265   8.058  2.9244  0.6099  0.6491
  114CHL1    C114666   4.691   1.415   8.125  0.2368 -0.4637 -0.3621
  114CHL1   H1A14667   4.706   1.309   8.094 -0.0583 -1.0420  1.3528
  114CHL1   H1B14668   4.776   1.476   8.088 -1.0515  0.5544 -1.7211
  114CHL1    C214669   4.700   1.404   8.281 -0.4273  0.4047  0.1406
  114CHL1   H2A14670   4.804   1.370   8.302  0.3929  1.6473 -1.6713
  114CHL1   H2B14671   4.631   1.324   8.316  1.7045 -1.3406  0.5830
  114CHL1   C2014672   4.481   1.438   7.365 -0.2763  0.3955 -0.4508
  114CHL1   H2014673   4.372   1.417   7.366 -0.6152  2.0063  0.2551
  114CHL1   C2114674   4.551   1.304   7.371 -0.0453  0.0482  0.1702
  114CHL1  H21A14675   4.500   1.250   7.453 -1.0988 -1.2280 -1.2724
  114CHL1  H21B14676   4.662   1.304   7.377 -0.0073 -3.0834  1.2575
  114CHL1  H21C14677   4.525   1.253   7.276 -1.7118 -1.1953  1.2364
  114CHL1   C2214678   4.520   1.504   7.232  0.3251 -0.2696  0.1129
  114CHL1  H22A14679   4.511   1.615   7.233  2.2100 -0.0705 -0.8294
  114CHL1  H22B14680   4.629   1.485   7.235  0.4882  0.5094 -0.6513
  114CHL1   C2314681   4.443   1.454   7.108 -0.1029  0.1088  0.4477
  114CHL1  H23A14682   4.433   1.344   7.106  1.4553 -0.0943 -2.6419
  114CHL1  H23B14683   4.337   1.481   7.127 -1.1064 -0.6169 -3.4053
  114CHL1   C2414684   4.496   1.509   6.976 -0.7995  0.3392  0.7163
  114CHL1  H24A14685   4.508   1.619   6.975  1.7496  0.1355 -0.7938
  114CHL1  H24B14686   4.595   1.466   6.950 -0.1385  1.7014  0.9181
  114CHL1   C2514687   4.418   1.462   6.846  0.2887  0.0702  0.0553
  114CHL1   H2514688   4.421   1.351   6.836 -0.3075  0.0405  0.1756
  114CHL1   C2614689   4.268   1.494   6.859  0.1355 -0.1274 -0.5806
  114CHL1  H26A14690   4.211   1.472   6.766 -0.6544  1.8489 -0.6014
  114CHL1  H26B14691   4.235   1.444   6.952  2.6520 -0.1799  0.3523
  114CHL1  H26C14692   4.242   1.600   6.880 -0.2946  0.1495 -2.3295
  114CHL1   C2714693   4.471   1.533   6.725  0.1134  0.3208  0.9840
  114CHL1  H27A14694   4.456   1.643   6.724 -2.2494  0.0709  2.0896
  114CHL1  H27B14695   4.577   1.501   6.723  0.6024  1.7871 -2.1159
  114CHL1  H27C14696   4.421   1.491   6.636  2.7656 -0.8926 -0.0469
  115CHL1    C314697   3.090   2.577   7.673 -0.2349  1.1785 -0.3597
  115CHL1    H314698   3.151   2.669   7.665 -1.6428  2.0981 -0.7366
  115CHL1    O314699   3.089   2.536   7.809  0.2252  0.0033  0.5281
  115CHL1   H3'14700   3.004   2.569   7.837 -1.3978 -1.4761 -2.1929
  115CHL1    C414701   2.947   2.615   7.626  0.1176  0.4773 -0.6448
  115CHL1   H4A14702   2.876   2.532   7.644 -0.5683  1.5049  1.8289
  115CHL1   H4B14703   2.911   2.696   7.693  2.6931 -1.0900  2.9802
  115CHL1    C514704   2.942   2.654   7.480 -0.3325 -0.2409  0.2304
  115CHL1    C614705   2.904   2.773   7.434 -0.2005  0.1887 -0.8752
  115CHL1    H614706   2.872   2.853   7.504 -1.1821 -0.4380 -0.5866
  115CHL1    C714707   2.914   2.813   7.289 -0.2436  0.4855  0.5104
  115CHL1   H7A14708   2.828   2.877   7.262  0.9336  2.7182  1.7512
  115CHL1   H7B14709   3.007   2.873   7.283 -0.1490  0.3542  0.6655
  115CHL1    C814710   2.916   2.686   7.196  0.3216 -0.4491 -0.3954
  115CHL1    H814711   2.817   2.636   7.200 -0.2828  0.8142  1.3780
  115CHL1   C1414712   2.940   2.726   7.049 -0.5801 -0.5013  0.0740
  115CHL1   H1414713   3.039   2.774   7.060 -1.8490  1.8538  2.3154
  115CHL1   C1514714   2.840   2.823   6.981  0.1154 -0.2883  0.1820
  115CHL1  H15A14715   2.733   2.795   6.991  0.2843 -0.4132  1.9732
  115CHL1  H15B14716   2.847   2.930   7.009 -2.1841 -0.0668  0.0861
  115CHL1   C1614717   2.872   2.803   6.829 -0.4671  0.1565  0.1993
  115CHL1  H16A14718   2.787   2.764   6.770  1.0985 -1.6147 -1.0109
  115CHL1  H16B14719   2.905   2.894   6.774  2.5461  0.9110  2.9556
  115CHL1   C1714720   2.980   2.686   6.816 -0.3438  0.6597  0.5593
  115CHL1   H1714721   3.081   2.731   6.825  0.2576 -0.3654 -0.7088
  115CHL1   C1314722   2.960   2.610   6.950  1.0595  0.5371  0.1091
  115CHL1   C1814723   2.826   2.531   6.941  0.2111 -0.3786  0.2959
  115CHL1  H18A14724   2.748   2.601   6.904  0.9316 -0.3042 -1.1814
  115CHL1  H18B14725   2.846   2.452   6.866  1.3855  0.0975  0.0774
  115CHL1  H18C14726   2.808   2.492   7.043  2.1116  2.5014  1.8735
  115CHL1   C1214727   3.076   2.518   6.996  0.3771 -0.2422  0.7247
  115CHL1  H12A14728   3.087   2.429   6.930 -0.5895  0.2837 -0.1630
  115CHL1  H12B14729   3.172   2.572   6.984 -0.2806  1.0832  1.2632
  115CHL1   C1114730   3.064   2.475   7.145  0.5514  0.2818  0.0650
  115CHL1  H11A14731   2.979   2.404   7.151  0.4657  0.2243 -1.5404
  115CHL1  H11B14732   3.154   2.423   7.184 -0.4428 -1.0615  0.6571
  115CHL1    C914733   3.023   2.592   7.246  0.2105 -0.2122 -0.2118
  115CHL1    H914734   3.110   2.661   7.249 -0.7388  1.0834 -1.2319
  115CHL1   C1014735   3.000   2.547   7.395  0.1265  0.0495  0.2088
  115CHL1   C1914736   2.898   2.425   7.394 -0.3174 -0.2397 -0.0488
  115CHL1  H19A14737   2.813   2.461   7.332  1.4209  0.6014 -2.0677
  115CHL1  H19B14738   2.943   2.329   7.360 -0.4540 -0.5101  0.5227
  115CHL1  H19C14739   2.855   2.403   7.494  0.3005  0.1367  0.3133
  115CHL1    C114740   3.139   2.490   7.447 -0.0327  0.3185 -0.3505
  115CHL1   H1A14741   3.175   2.405   7.385  0.8283  1.4584 -1.4820
  115CHL1   H1B14742   3.216   2.568   7.427  0.6885  0.0972  1.4028
  115CHL1    C214743   3.137   2.452   7.591  0.3040 -0.0818  0.0790
  115CHL1   H2A14744   3.231   2.407   7.629 -1.1282 -0.6089  3.3713
  115CHL1   H2B14745   3.059   2.374   7.606  0.8908 -0.8566 -0.8243
  115CHL1   C2014746   2.980   2.608   6.683  0.0821  0.7831  0.1958
  115CHL1   H2014747   2.888   2.546   6.689  0.7554 -0.1589  0.9583
  115CHL1   C2114748   3.100   2.515   6.677  0.0004 -0.0594  0.5230
  115CHL1  H21A14749   3.113   2.482   6.571  2.0668 -0.6030  0.9008
  115CHL1  H21B14750   3.080   2.427   6.742 -0.8079  0.6360  1.2368
  115CHL1  H21C14751   3.187   2.565   6.724 -0.7991  0.3289  1.6205
  115CHL1   C2214752   2.964   2.704   6.557  0.3250  0.4213 -0.1312
  115CHL1  H22A14753   2.946   2.641   6.467 -1.1594  0.6347 -0.0016
  115CHL1  H22B14754   2.874   2.769   6.557  0.1037  0.2030 -2.3929
  115CHL1   C2314755   3.081   2.797   6.534  0.1917 -0.1831  0.0941
  115CHL1  H23A14756   3.072   2.868   6.620 -0.0304  0.3739 -0.3835
  115CHL1  H23B14757   3.184   2.759   6.547  0.8352  1.7016  0.9432
  115CHL1   C2414758   3.073   2.878   6.404  0.2489 -0.6629  0.0248
  115CHL1  H24A14759   3.088   2.810   6.317 -0.9362  1.1564 -1.6754
  115CHL1  H24B14760   2.969   2.915   6.397 -0.8434 -2.8031  2.7541
  115CHL1   C2514761   3.172   2.994   6.397 -0.4875  0.1810 -0.5466
  115CHL1   H2514762   3.273   2.949   6.388  0.6282  2.4741 -0.3282
  115CHL1   C2614763   3.162   3.061   6.259  0.3841  0.0833  0.2409
  115CHL1  H26A14764   3.241   3.135   6.238  0.3264  0.0912  0.0549
  115CHL1  H26B14765   3.188   2.974   6.194  0.7453  0.5741 -0.2758
  115CHL1  H26C14766   3.056   3.090   6.242  0.2628 -0.0779  0.7058
  115CHL1   C2714767   3.161   3.092   6.518  0.4387 -0.3579  0.1291
  115CHL1  H27A14768   3.060   3.135   6.531  0.3687 -0.6666  0.6110
  115CHL1  H27B14769   3.189   3.043   6.613 -0.8707 -0.4360  0.4907
  115CHL1  H27C14770   3.222   3.183   6.497  0.2775  0.0211  1.2326
  116CHL1    C314771   3.385   3.009   8.226 -0.4543  0.5103  0.4092
  116CHL1    H314772   3.405   3.118   8.214 -0.4883  0.4438 -0.3318
  116CHL1    O314773   3.369   2.986   8.362  0.0397 -0.3347 -0.6368
  116CHL1   H3'14774   3.295   3.045   8.384 -0.1266 -0.5561 -0.6002
  116CHL1    C414775   3.259   2.966   8.142 -0.1965 -0.2947 -0.0467
  116CHL1   H4A14776   3.238   2.858   8.161  0.0925 -0.4186 -0.4214
  116CHL1   H4B14777   3.170   3.028   8.167  1.0137  1.5360 -0.0700
  116CHL1    C514778   3.274   2.986   7.996 -0.8681 -0.0598  0.4105
  116CHL1    C614779   3.185   3.052   7.925  0.0612  0.4185 -0.7373
  116CHL1    H614780   3.092   3.090   7.969 -0.7913 -1.2606 -0.9977
  116CHL1    C714781   3.193   3.076   7.777  0.1425  0.1401  0.4627
  116CHL1   H7A14782   3.105   3.063   7.712  2.0941 -1.7129 -2.0080
  116CHL1   H7B14783   3.222   3.182   7.760  0.3497  0.3686  2.0311
  116CHL1    C814784   3.302   2.987   7.709  0.1413 -0.4014 -0.2352
  116CHL1    H814785   3.269   2.882   7.700  2.2091 -0.9927 -1.8243
  116CHL1   C1414786   3.344   3.030   7.569  0.3534  0.2857  0.2936
  116CHL1   H1414787   3.392   3.130   7.570 -0.2064  0.5493  1.6431
  116CHL1   C1514788   3.231   3.046   7.468  0.1510 -0.6810  0.1530
  116CHL1  H15A14789   3.163   2.958   7.473 -0.6240 -0.1471 -0.7038
  116CHL1  H15B14790   3.169   3.137   7.486  1.6382  0.3160  0.3767
  116CHL1   C1614791   3.298   3.048   7.334  0.1781 -0.0453  0.2688
  116CHL1  H16A14792   3.233   2.988   7.266 -1.5217  1.0055  0.8799
  116CHL1  H16B14793   3.307   3.156   7.309 -3.3171  0.7969  2.0096
  116CHL1   C1714794   3.442   3.003   7.352 -0.4927 -0.4011 -0.6768
  116CHL1   H1714795   3.503   3.096   7.351 -1.3155  0.1515 -1.8049
  116CHL1   C1314796   3.450   2.938   7.500 -0.4890 -0.5333 -0.1065
  116CHL1   C1814797   3.403   2.790   7.497  0.8363  0.2209  0.1629
  116CHL1  H18A14798   3.311   2.781   7.436 -0.4041  1.7504  1.7181
  116CHL1  H18B14799   3.487   2.727   7.459 -2.4241 -2.7212 -2.9187
  116CHL1  H18C14800   3.376   2.747   7.596 -1.1681  0.1120 -0.3792
  116CHL1   C1214801   3.583   2.953   7.575 -0.3240 -0.2735 -0.1781
  116CHL1  H12A14802   3.655   2.896   7.513 -0.0634  0.0569 -0.1849
  116CHL1  H12B14803   3.614   3.058   7.554 -1.0242 -0.4334 -2.1970
  116CHL1   C1114804   3.563   2.925   7.722 -0.9397 -0.0785 -0.6407
  116CHL1  H11A14805   3.554   2.815   7.735  1.1248 -0.1616  0.4497
  116CHL1  H11B14806   3.654   2.952   7.779  0.8418 -0.0980 -3.2612
  116CHL1    C914807   3.438   2.991   7.789  0.3001 -0.3225  0.3635
  116CHL1    H914808   3.460   3.099   7.798 -1.9490  0.2053  0.1859
  116CHL1   C1014809   3.411   2.934   7.936 -0.0645 -0.2192  0.2499
  116CHL1   C1914810   3.395   2.779   7.926 -0.2637  0.1647 -0.9710
  116CHL1  H19A14811   3.357   2.736   8.022 -0.0960 -0.1051 -1.0251
  116CHL1  H19B14812   3.313   2.766   7.852 -0.6269 -1.2086 -0.3770
  116CHL1  H19C14813   3.494   2.739   7.896 -0.9370 -0.4592 -2.4764
  116CHL1    C114814   3.533   2.974   8.029  0.8239 -0.1818 -0.3212
  116CHL1   H1A14815   3.628   2.933   7.987  0.6138 -1.3530  0.3009
  116CHL1   H1B14816   3.544   3.084   8.022  0.4635 -0.1840 -0.9855
  116CHL1    C214817   3.515   2.936   8.180 -1.1022  0.8038 -0.2649
  116CHL1   H2A14818   3.604   2.976   8.233 -2.0099  1.7691  0.5836
  116CHL1   H2B14819   3.503   2.827   8.192 -2.2044  0.9773  0.3174
  116CHL1   C2014820   3.499   2.912   7.232  0.0156 -0.6514 -0.8825
  116CHL1   H2014821   3.510   2.809   7.272 -2.9836 -2.3512 -3.8999
  116CHL1   C2114822   3.639   2.980   7.196  0.3801  0.1607  0.7048
  116CHL1  H21A14823   3.707   2.922   7.131  0.9154  3.3292 -1.8011
  116CHL1  H21B14824   3.692   3.005   7.291  1.7187  1.8936 -0.4483
  116CHL1  H21C14825   3.614   3.077   7.148  0.5484 -0.7130 -1.2186
  116CHL1   C2214826   3.401   2.891   7.110 -1.1012  0.1481 -0.3351
  116CHL1  H22A14827   3.316   2.822   7.125 -1.2151  0.2519 -0.4990
  116CHL1  H22B14828   3.360   2.993   7.091  0.1920  1.1813  1.9743
  116CHL1   C2314829   3.485   2.831   6.997  0.6075 -0.0918 -0.1129
  116CHL1  H23A14830   3.552   2.912   6.961  0.2754 -0.4931 -1.6897
  116CHL1  H23B14831   3.544   2.747   7.040 -0.0210  0.1494  1.2752
  116CHL1   C2414832   3.412   2.789   6.871 -0.4038  0.3732  0.3514
  116CHL1  H24A14833   3.342   2.704   6.885 -0.4987  0.0891 -1.6328
  116CHL1  H24B14834   3.337   2.869   6.853 -1.3346 -0.2241  1.4081
  116CHL1   C2514835   3.506   2.753   6.757 -0.0291  0.5163 -0.4166
  116CHL1   H2514836   3.593   2.706   6.808  0.2740 -0.1289 -1.5099
  116CHL1   C2614837   3.447   2.643   6.674 -0.7172  0.5174  0.1367
  116CHL1  H26A14838   3.353   2.668   6.619 -1.1774  0.6447  0.9663
  116CHL1  H26B14839   3.530   2.601   6.612 -0.4718 -0.6408  1.2135
  116CHL1  H26C14840   3.420   2.559   6.740  0.2873 -0.5590 -0.7804
  116CHL1   C2714841   3.534   2.871   6.672 -0.2511  0.3002 -0.4309
  116CHL1  H27A14842   3.581   2.831   6.579 -0.2371 -0.2602 -0.1898
  116CHL1  H27B14843   3.445   2.929   6.642  0.0249  0.9065 -0.0916
  116CHL1  H27C14844   3.607   2.939   6.722 -0.3676  0.9949 -1.1782
  117CHL1    C314845   5.092   2.638   8.114 -0.4027 -0.4524  0.7793
  117CHL1    H314846   5.047   2.739   8.108 -0.5024 -0.4494  1.4533
  117CHL1    O314847   5.132   2.621   8.245 -0.9767  0.5816 -0.3064
  117CHL1   H3'14848   5.048   2.600   8.288 -1.1830 -0.1435 -1.0288
  117CHL1    C414849   4.994   2.536   8.063 -0.4550  0.8259 -0.1596
  117CHL1   H4A14850   5.034   2.432   8.073 -0.9144  0.5866 -0.7506
  117CHL1   H4B14851   4.910   2.540   8.135  0.6310  0.3578  1.1945
  117CHL1    C514852   4.951   2.561   7.921 -0.3502 -0.8612 -0.3024
  117CHL1    C614853   4.826   2.596   7.885 -0.3503 -0.6858 -0.8879
  117CHL1    H614854   4.742   2.606   7.955 -1.0273 -3.2717 -1.2409
  117CHL1    C714855   4.787   2.616   7.740  0.8311 -0.0478 -0.1547
  117CHL1   H7A14856   4.703   2.548   7.712  0.2502 -0.0270  1.4242
  117CHL1   H7B14857   4.762   2.723   7.722 -1.3153 -0.6037 -0.8299
  117CHL1    C814858   4.898   2.576   7.635  0.3994  0.4430  0.3306
  117CHL1    H814859   4.893   2.465   7.633 -0.3376  0.4656  0.7346
  117CHL1   C1414860   4.868   2.632   7.504  0.2585  0.1798  0.3753
  117CHL1   H1414861   4.871   2.742   7.518 -4.0063  0.3970  1.0315
  117CHL1   C1514862   4.731   2.606   7.441  0.1543  0.2664  0.3598
  117CHL1  H15A14863   4.692   2.511   7.484 -0.9283  1.5599  2.3765
  117CHL1  H15B14864   4.654   2.672   7.486 -0.3565  0.1693 -0.3401
  117CHL1   C1614865   4.745   2.623   7.288 -0.4625  0.2242  0.5637
  117CHL1  H16A14866   4.731   2.523   7.241 -1.3138  0.7843 -0.4213
  117CHL1  H16B14867   4.667   2.679   7.232 -0.9827 -2.5706 -1.7519
  117CHL1   C1714868   4.898   2.663   7.263  0.4111  0.2824  0.0897
  117CHL1   H1714869   4.895   2.774   7.270  0.7880  0.2017  2.1670
  117CHL1   C1314870   4.972   2.604   7.390  0.4234  0.2680 -0.5467
  117CHL1   C1814871   4.988   2.453   7.367  0.6647 -0.7207 -0.2034
  117CHL1  H18A14872   5.036   2.418   7.460 -2.0265  0.8704  1.9364
  117CHL1  H18B14873   4.894   2.399   7.342 -1.8352  3.8212 -1.7721
  117CHL1  H18C14874   5.057   2.442   7.280 -1.7606  0.1125 -2.3780
  117CHL1   C1214875   5.116   2.655   7.429 -0.0735 -0.7498 -0.1427
  117CHL1  H12A14876   5.183   2.604   7.358 -0.3989 -1.9070  0.3650
  117CHL1  H12B14877   5.107   2.764   7.407  2.0128 -1.1545 -3.7840
  117CHL1   C1114878   5.143   2.615   7.577 -0.1588  0.1264 -0.5131
  117CHL1  H11A14879   5.176   2.510   7.583 -0.4594  0.0995  1.5675
  117CHL1  H11B14880   5.229   2.678   7.609 -0.6231 -0.2321  1.5719
  117CHL1    C914881   5.026   2.633   7.672  0.5890  0.3203 -0.8149
  117CHL1    H914882   5.015   2.743   7.679  0.3718  0.2768 -0.4401
  117CHL1   C1014883   5.064   2.571   7.814  0.1375  0.7236 -0.6600
  117CHL1   C1914884   5.122   2.426   7.805 -0.4978  0.3103  0.7471
  117CHL1  H19A14885   5.046   2.353   7.769  1.8306 -2.2756  0.6893
  117CHL1  H19B14886   5.215   2.413   7.745 -0.7394  0.5278  0.3212
  117CHL1  H19C14887   5.149   2.395   7.909 -1.1520 -0.6312  0.6501
  117CHL1    C114888   5.174   2.663   7.872 -0.6965 -0.0528  0.0253
  117CHL1   H1A14889   5.268   2.647   7.814  1.0705  1.7260  2.2525
  117CHL1   H1B14890   5.132   2.765   7.865 -1.5922 -0.4317 -0.2577
  117CHL1    C214891   5.215   2.635   8.021 -0.1906 -0.3803 -0.0253
  117CHL1   H2A14892   5.282   2.717   8.052  0.0540 -0.6259  0.0980
  117CHL1   H2B14893   5.282   2.547   8.018  0.2644 -0.0140 -1.3093
  117CHL1   C2014894   4.947   2.630   7.127  0.8710 -0.2307  0.6869
  117CHL1   H2014895   4.955   2.519   7.116 -0.6435 -0.2249 -1.1868
  117CHL1   C2114896   5.082   2.697   7.100  0.2182 -0.4009 -0.3261
  117CHL1  H21A14897   5.158   2.667   7.175  0.2336 -1.6160 -0.7869
  117CHL1  H21B14898   5.079   2.808   7.098 -2.3826 -0.4250 -0.0460
  117CHL1  H21C14899   5.126   2.671   7.001  1.6598  1.2996 -0.1756
  117CHL1   C2214900   4.850   2.676   7.016  0.1884  0.4359  1.0956
  117CHL1  H22A14901   4.747   2.643   7.039 -0.4482  2.3506  1.1725
  117CHL1  H22B14902   4.850   2.787   7.019 -0.0227  0.5342 -0.9385
  117CHL1   C2314903   4.895   2.631   6.877  0.2385  0.2338  0.3440
  117CHL1  H23A14904   4.996   2.662   6.841  0.3163 -1.9063 -1.4775
  117CHL1  H23B14905   4.877   2.522   6.871  2.6081 -0.1784 -0.6491
  117CHL1   C2414906   4.789   2.663   6.770 -0.5104 -0.6554  0.2649
  117CHL1  H24A14907   4.687   2.661   6.815 -0.7265 -0.4900 -0.2168
  117CHL1  H24B14908   4.812   2.771   6.755 -2.3868 -0.6004 -3.1637
  117CHL1   C2514909   4.807   2.599   6.632  0.0768 -0.0082  0.7698
  117CHL1   H2514910   4.781   2.491   6.634  1.4335 -0.3695 -0.0458
  117CHL1   C2614911   4.711   2.657   6.525  0.1974 -0.2426  0.2818
  117CHL1  H26A14912   4.719   2.605   6.427 -0.8967 -0.0024  0.0544
  117CHL1  H26B14913   4.617   2.613   6.566  1.3517 -1.5958  1.5853
  117CHL1  H26C14914   4.710   2.767   6.507  0.8867 -0.5720 -2.1350
  117CHL1   C2714915   4.951   2.602   6.576 -0.3028 -0.5167 -0.0722
  117CHL1  H27A14916   4.994   2.703   6.560  0.8110 -1.1264 -1.0766
  117CHL1  H27B14917   5.011   2.542   6.647  0.0038 -2.5301 -1.9442
  117CHL1  H27C14918   4.946   2.560   6.474 -0.8488  1.3571 -0.8696
  118CHL1    C314919   0.519   4.162   8.549 -0.6905  0.3699 -0.1869
  118CHL1    H314920   0.579   4.249   8.516  0.5320  0.4073  1.9020
  118CHL1    O314921   0.530   4.172   8.689  0.2783  0.5407  0.0189
  118CHL1   H3'14922   0.604   4.112   8.704 -0.9883 -0.6102  2.1149
  118CHL1    C414923   0.378   4.180   8.492 -0.5942  0.2220 -0.0109
  118CHL1   H4A14924   0.315   4.095   8.526  1.8790 -1.9905 -0.5852
  118CHL1   H4B14925   0.326   4.266   8.539 -2.3159  0.2190 -1.8005
  118CHL1    C514926   0.388   4.195   8.342  0.9811  0.6421  0.3879
  118CHL1    C614927   0.339   4.299   8.279 -0.8251 -0.4002  0.6279
  118CHL1    H614928   0.287   4.381   8.331  0.0450  1.2434 -0.9407
  118CHL1    C714929   0.344   4.331   8.129 -0.1492  0.2025  0.1128
  118CHL1   H7A14930   0.245   4.359   8.087 -0.9646 -1.9027  0.4848
  118CHL1   H7B14931   0.419   4.412   8.120  1.9508 -1.7761 -1.5369
  118CHL1    C814932   0.385   4.198   8.050 -0.0951  0.7626  0.6828
  118CHL1    H814933   0.295   4.133   8.049  1.8015 -2.0400  1.5230
  118CHL1   C1414934   0.413   4.232   7.902  0.4945 -0.7038  0.0053
  118CHL1   H1414935   0.500   4.300   7.912  1.8609 -2.4646  0.5251
  118CHL1   C1514936   0.310   4.305   7.819 -0.2436 -0.5548 -0.3632
  118CHL1  H15A14937   0.203   4.278   7.823  0.0433 -1.8023 -0.5843
  118CHL1  H15B14938   0.305   4.410   7.856  0.6952 -0.0679 -1.5511
  118CHL1   C1614939   0.367   4.296   7.682 -0.3289  0.4026  0.7498
  118CHL1  H16A14940   0.292   4.272   7.605 -0.6960  0.7870  0.9803
  118CHL1  H16B14941   0.416   4.391   7.650  0.3772  0.1010  0.9026
  118CHL1   C1714942   0.489   4.191   7.683 -0.0601 -0.8417 -0.4038
  118CHL1   H1714943   0.579   4.254   7.701 -1.4954  0.7685  1.5145
  118CHL1   C1314944   0.465   4.116   7.818 -0.3491  0.1379  0.2215
  118CHL1   C1814945   0.357   4.012   7.800 -0.8587 -0.0074 -0.3371
  118CHL1  H18A14946   0.367   3.943   7.714 -2.8706 -0.1961 -0.4442
  118CHL1  H18B14947   0.325   3.958   7.892  0.7966  1.3661  1.1215
  118CHL1  H18C14948   0.264   4.063   7.767 -0.7340  0.9393  0.7084
  118CHL1   C1214949   0.591   4.057   7.882  0.5984  0.1103 -0.2375
  118CHL1  H12A14950   0.629   3.973   7.820  0.2442 -0.2501  0.0234
  118CHL1  H12B14951   0.672   4.133   7.882  0.4327  0.3000 -1.1469
  118CHL1   C1114952   0.567   4.014   8.031  0.9873 -0.5166 -0.6542
  118CHL1  H11A14953   0.491   3.934   8.017 -0.3071  0.7246 -0.9090
  118CHL1  H11B14954   0.655   3.976   8.087 -0.6402 -1.9652  1.0486
  118CHL1    C914955   0.507   4.126   8.120  0.0961  0.2441 -0.0787
  118CHL1    H914956   0.581   4.208   8.127 -0.9384  1.1494  0.5567
  118CHL1   C1014957   0.467   4.082   8.268 -0.0313 -0.4567 -1.1794
  118CHL1   C1914958   0.370   3.960   8.258 -0.2824 -0.3032  0.5301
  118CHL1  H19A14959   0.345   3.933   8.363 -1.5717  0.9931  0.5860
  118CHL1  H19B14960   0.276   3.989   8.208 -0.5103 -1.6014  0.1772
  118CHL1  H19C14961   0.428   3.881   8.205  0.2302  1.1444 -1.1751
  118CHL1    C114962   0.600   4.050   8.338  0.9764 -0.3511  0.4798
  118CHL1   H1A14963   0.658   3.965   8.298  1.6550  1.4522 -2.7181
  118CHL1   H1B14964   0.661   4.142   8.326  2.5235 -1.6200 -2.2150
  118CHL1    C214965   0.578   4.032   8.490 -0.1314  0.3434  0.6809
  118CHL1   H2A14966   0.679   4.023   8.536 -0.6174 -4.4643  1.2719
  118CHL1   H2B14967   0.523   3.938   8.510  0.9924 -1.1283 -2.5611
  118CHL1   C2014968   0.513   4.117   7.552 -1.1379 -0.7514 -0.3491
  118CHL1   H2014969   0.413   4.074   7.528 -2.6288  0.8492  2.3849
  118CHL1   C2114970   0.619   4.006   7.562  0.0090  0.1242  0.5216
  118CHL1  H21A14971   0.577   3.931   7.632 -0.6459  1.0722  1.1641
  118CHL1  H21B14972   0.717   4.047   7.595  1.8139  1.1078 -4.9354
  118CHL1  H21C14973   0.634   3.945   7.470  3.3240  0.9621  0.3827
  118CHL1   C2214974   0.548   4.222   7.445  0.2373  0.0046 -0.2465
  118CHL1  H22A14975   0.487   4.313   7.462 -1.0031 -0.8852  0.2717
  118CHL1  H22B14976   0.653   4.256   7.442  0.0799  0.6083  0.7203
  118CHL1   C2314977   0.522   4.174   7.305 -0.0060  0.3061 -0.4153
  118CHL1  H23A14978   0.561   4.073   7.278 -0.6543  0.2945 -1.3482
  118CHL1  H23B14979   0.413   4.157   7.315  0.0131 -0.1259 -0.8724
  118CHL1   C2414980   0.553   4.296   7.215  0.2933 -0.1035  0.3237
  118CHL1  H24A14981   0.564   4.391   7.271 -0.1769 -0.2836  0.7256
  118CHL1  H24B14982   0.657   4.272   7.183  0.2127 -3.3957  2.1441
  118CHL1   C2514983   0.467   4.328   7.098  1.0126 -0.6628  0.1626
  118CHL1   H2514984   0.372   4.363   7.143  1.1224  1.2295 -0.9795
  118CHL1   C2614985   0.524   4.446   7.018 -0.6486  0.5287 -0.1789
  118CHL1  H26A14986   0.607   4.417   6.950 -0.5275  0.0636  0.1608
  118CHL1  H26B14987   0.444   4.477   6.946 -1.6821 -1.1174  0.1975
  118CHL1  H26C14988   0.556   4.532   7.080  2.4121 -0.8083  0.2836
  118CHL1   C2714989   0.431   4.202   7.011 -0.6910 -0.5873  0.2752
  118CHL1  H27A14990   0.370   4.230   6.922 -1.0379  0.3896  0.8032
  118CHL1  H27B14991   0.527   4.161   6.972  0.8404  1.8815  1.1906
  118CHL1  H27C14992   0.378   4.129   7.075 -0.1040 -0.1566  1.2750
  119CHL1    C314993   2.268   3.550   7.741 -0.1182  0.0333 -0.1083
  119CHL1    H314994   2.245   3.656   7.717  1.0273 -0.3795 -3.6845
  119CHL1    O314995   2.265   3.523   7.879 -0.2979 -1.0377  0.2855
  119CHL1   H3'14996   2.293   3.431   7.874  0.8048 -0.6574 -2.1152
  119CHL1    C414997   2.165   3.458   7.681 -0.3067 -0.0977 -0.0143
  119CHL1   H4A14998   2.176   3.349   7.700  3.0917  0.6384  3.3863
  119CHL1   H4B14999   2.065   3.474   7.727 -0.0559 -2.0874  1.3763
  119CHL1    C515000   2.159   3.481   7.530 -0.3416  0.4326 -0.3059
  119CHL1    C615001   2.048   3.507   7.458  0.8961 -0.4894 -0.5358
  119CHL1    H615002   1.952   3.521   7.509  1.2439 -0.4283  0.1205
  119CHL1    C715003   2.048   3.522   7.311 -0.9081  0.2849 -0.0186
  119CHL1   H7A15004   1.955   3.482   7.266 -0.6470  1.9827 -2.2380
  119CHL1   H7B15005   2.054   3.627   7.275  0.8829  0.1330 -0.2556
  119CHL1    C815006   2.177   3.459   7.238  0.4853  0.0250 -0.3940
  119CHL1    H815007   2.163   3.350   7.252 -3.2314  0.3665 -0.3152
  119CHL1   C1415008   2.184   3.504   7.094 -0.1245 -0.2873 -0.3022
  119CHL1   H1415009   2.202   3.614   7.095  0.5031 -0.3875  0.1767
  119CHL1   C1515010   2.052   3.486   7.017  0.3265  1.4773 -0.6252
  119CHL1  H15A15011   2.003   3.387   7.033  0.1510  1.2985 -2.1671
  119CHL1  H15B15012   1.982   3.564   7.052  0.2064  0.5502  1.3696
  119CHL1   C1615013   2.103   3.495   6.875 -0.2938 -0.3754 -0.2225
  119CHL1  H16A15014   2.082   3.407   6.811 -3.0703  0.5688 -0.7558
  119CHL1  H16B15015   2.062   3.581   6.818  0.2314  0.2365  0.3006
  119CHL1   C1715016   2.257   3.517   6.874 -0.2339  0.1578 -0.3188
  119CHL1   H1715017   2.277   3.626   6.874  1.4756 -0.1125  0.9079
  119CHL1   C1315018   2.296   3.462   7.013 -0.6247 -0.0521 -0.2986
  119CHL1   C1815019   2.296   3.303   6.999 -0.2498  0.2293  0.5635
  119CHL1  H18A15020   2.192   3.270   6.978  0.9374 -2.4841 -1.6805
  119CHL1  H18B15021   2.356   3.279   6.909 -1.4721  0.9275 -0.4699
  119CHL1  H18C15022   2.315   3.252   7.096  0.9501 -0.5818 -0.0772
  119CHL1   C1215023   2.427   3.510   7.081 -0.0089 -0.1223  0.2394
  119CHL1  H12A15024   2.511   3.456   7.033  0.1800 -0.1055  0.5509
  119CHL1  H12B15025   2.444   3.618   7.059  2.5139 -1.0130 -2.9727
  119CHL1   C1115026   2.431   3.481   7.239  0.6552  0.0283 -0.1574
  119CHL1  H11A15027   2.449   3.371   7.230  1.8736  0.3191 -1.6195
  119CHL1  H11B15028   2.518   3.526   7.291  0.4207  2.3153 -1.6143
  119CHL1    C915029   2.300   3.512   7.312  0.7223 -0.1964  0.8764
  119CHL1    H915030   2.283   3.621   7.301  1.0089 -0.1477  0.8947
  119CHL1   C1015031   2.303   3.473   7.462 -0.3447  0.1257  0.5426
  119CHL1   C1915032   2.335   3.317   7.477  0.0047  0.0814  0.1258
  119CHL1  H19A15033   2.347   3.280   7.581  0.8897  1.2010  0.4357
  119CHL1  H19B15034   2.268   3.252   7.417  3.8619 -2.4352 -1.9580
  119CHL1  H19C15035   2.439   3.298   7.441  0.6725  2.4628  0.6204
  119CHL1    C115036   2.407   3.559   7.538 -0.1754 -0.6140  0.1275
  119CHL1   H1A15037   2.510   3.544   7.501 -0.0529  0.6155 -0.0779
  119CHL1   H1B15038   2.395   3.668   7.520  0.1392 -0.5900  0.0628
  119CHL1    C215039   2.411   3.526   7.684 -0.5012  0.1731 -0.2977
  119CHL1   H2A15040   2.486   3.587   7.739 -0.6186  0.4184 -0.4086
  119CHL1   H2B15041   2.436   3.419   7.700  0.2572  0.3369 -0.3578
  119CHL1   C2015042   2.325   3.481   6.734 -0.8443 -0.5518 -0.3858
  119CHL1   H2015043   2.326   3.370   6.728  0.4844 -0.7362  1.9769
  119CHL1   C2115044   2.475   3.536   6.752 -0.0030 -0.1942  0.5441
  119CHL1  H21A15045   2.463   3.642   6.783 -0.5935 -1.0496  3.6496
  119CHL1  H21B15046   2.549   3.505   6.675 -0.4600 -0.6206  0.2739
  119CHL1  H21C15047   2.511   3.480   6.841 -1.9449  0.3060  1.7047
  119CHL1   C2215048   2.249   3.562   6.617  0.4806 -0.2060 -0.0455
  119CHL1  H22A15049   2.155   3.508   6.590 -0.2495  1.4634 -0.9861
  119CHL1  H22B15050   2.218   3.665   6.645 -0.5086 -0.4505 -0.1892
  119CHL1   C2315051   2.326   3.570   6.488  0.4872 -0.2204 -0.1959
  119CHL1  H23A15052   2.423   3.615   6.516  0.0180  0.6450  0.0642
  119CHL1  H23B15053   2.336   3.468   6.445  1.2557 -0.3685  0.3206
  119CHL1   C2415054   2.256   3.651   6.381 -0.3699  0.5499  0.0054
  119CHL1  H24A15055   2.160   3.605   6.348 -0.2061  0.6512 -0.6135
  119CHL1  H24B15056   2.218   3.744   6.429 -2.7020 -0.9839  1.3288
  119CHL1   C2515057   2.349   3.684   6.265  0.0855 -0.4686 -0.1296
  119CHL1   H2515058   2.445   3.716   6.310 -0.6867 -0.1699  1.3784
  119CHL1   C2615059   2.381   3.562   6.175  0.3611  0.1456 -0.4113
  119CHL1  H26A15060   2.291   3.500   6.159  1.3899 -0.9848 -2.2364
  119CHL1  H26B15061   2.426   3.594   6.079  0.9290  1.4235  0.2550
  119CHL1  H26C15062   2.457   3.506   6.234 -0.3101  1.9947  2.4191
  119CHL1   C2715063   2.305   3.809   6.191  0.3270 -0.3015  0.5434
  119CHL1  H27A15064   2.284   3.896   6.257  3.2531  1.0721 -0.1517
  119CHL1  H27B15065   2.382   3.834   6.115  1.4395 -0.2271  1.6606
  119CHL1  H27C15066   2.209   3.783   6.142  1.6149  1.2350 -3.1915
  120CHL1    C315067   0.271   2.722   8.314 -0.3953  0.7353 -1.1558
  120CHL1    H315068   0.211   2.813   8.333  0.8166  0.9902  2.1092
  120CHL1    O315069   0.327   2.680   8.439 -0.3249 -0.5134  0.4810
  120CHL1   H3'15070   0.252   2.633   8.477 -1.7119  1.2125  0.0464
  120CHL1    C415071   0.192   2.608   8.258  0.6848  0.1740 -0.1008
  120CHL1   H4A15072   0.251   2.514   8.262  0.0145 -0.3007 -0.9879
  120CHL1   H4B15073   0.108   2.584   8.327  0.0737 -3.4791 -1.8598
  120CHL1    C515074   0.132   2.635   8.120  0.2263  0.0900 -0.0306
  120CHL1    C615075   0.005   2.625   8.094  0.3814 -0.1439  0.6029
  120CHL1    H615076  -0.074   2.610   8.168 -0.9475 -3.2071 -1.2146
  120CHL1    C715077  -0.058   2.646   7.959 -0.2085 -0.1265 -0.4861
  120CHL1   H7A15078  -0.124   2.562   7.927 -0.0180  0.5188 -2.7644
  120CHL1   H7B15079  -0.127   2.733   7.966  0.6071  0.4241  1.3396
  120CHL1    C815080   0.050   2.652   7.847  0.4340  0.4736 -0.3264
  120CHL1    H815081   0.070   2.545   7.824  1.7406  0.2359  1.6174
  120CHL1   C1415082  -0.016   2.716   7.721 -0.7762  0.5677 -1.0311
  120CHL1   H1415083  -0.045   2.821   7.741 -0.4244  0.1438  2.1121
  120CHL1   C1515084  -0.143   2.652   7.664  0.2822  0.5246 -0.2915
  120CHL1  H15A15085  -0.143   2.542   7.675 -1.7499  0.6528  1.8707
  120CHL1  H15B15086  -0.226   2.704   7.717  0.8344  1.6937 -0.5266
  120CHL1   C1615087  -0.151   2.688   7.515 -0.0143  0.4452  0.0922
  120CHL1  H16A15088  -0.164   2.594   7.458  0.6818 -0.4760  1.4321
  120CHL1  H16B15089  -0.226   2.767   7.488  0.0347  0.3299 -0.3907
  120CHL1   C1715090  -0.015   2.761   7.485 -0.2671 -0.3372  0.4225
  120CHL1   H1715091  -0.035   2.869   7.498  0.1432 -0.0298 -1.2482
  120CHL1   C1315092   0.075   2.710   7.596  0.8066 -0.1051  0.1266
  120CHL1   C1815093   0.115   2.565   7.569  0.0208  0.2389  0.0601
  120CHL1  H18A15094   0.168   2.513   7.651 -0.0401  1.4778  0.9153
  120CHL1  H18B15095   0.025   2.503   7.548 -0.8519  0.3103  3.0958
  120CHL1  H18C15096   0.176   2.569   7.476 -2.5551  1.1632 -1.7328
  120CHL1   C1215097   0.197   2.794   7.632 -0.2581 -0.4615 -0.7397
  120CHL1  H12A15098   0.267   2.796   7.546  0.8583 -0.5669  0.1437
  120CHL1  H12B15099   0.158   2.897   7.646  3.5643  1.0382  0.1081
  120CHL1   C1115100   0.273   2.751   7.760  0.3899  0.0914 -0.3967
  120CHL1  H11A15101   0.338   2.670   7.722 -1.9242 -2.1473  0.1737
  120CHL1  H11B15102   0.330   2.840   7.794  0.9287 -0.6834  0.7827
  120CHL1    C915103   0.175   2.722   7.882 -0.5629  0.3181 -0.1131
  120CHL1    H915104   0.146   2.827   7.904  0.7555  0.7963 -0.5266
  120CHL1   C1015105   0.233   2.665   8.019 -0.0321 -0.1364  0.0957
  120CHL1   C1915106   0.324   2.544   7.974 -0.1205 -0.1218  0.5044
  120CHL1  H19A15107   0.396   2.577   7.897  0.1208 -0.1727  0.7090
  120CHL1  H19B15108   0.378   2.502   8.061  0.0240  0.4480  0.6938
  120CHL1  H19C15109   0.272   2.469   7.911  0.3222  1.0320 -1.3159
  120CHL1    C115110   0.321   2.781   8.077 -0.3956 -0.2558  0.9898
  120CHL1   H1A15111   0.405   2.797   8.007 -0.4287 -0.5992  0.8692
  120CHL1   H1B15112   0.268   2.879   8.072  0.6654  0.2840 -0.2516
  120CHL1    C215113   0.385   2.752   8.219 -0.2897 -0.1932  0.6091
  120CHL1   H2A15114   0.440   2.843   8.251 -0.3311 -0.3715  1.1907
  120CHL1   H2B15115   0.456   2.668   8.209 -0.5211 -0.1855 -1.9471
  120CHL1   C2015116   0.020   2.742   7.336 -0.2152 -0.8511  0.0528
  120CHL1   H2015117   0.031   2.632   7.321 -1.5288 -0.8376 -1.2987
  120CHL1   C2115118   0.163   2.798   7.307 -0.9675  0.4290  0.0686
  120CHL1  H21A15119   0.242   2.730   7.345 -0.2538  0.2040 -1.7168
  120CHL1  H21B15120   0.179   2.894   7.360  3.0348  0.1338 -0.3660
  120CHL1  H21C15121   0.177   2.809   7.198  1.1036 -0.0174  0.2563
  120CHL1   C2215122  -0.080   2.799   7.235 -0.8985  0.3880  0.5660
  120CHL1  H22A15123  -0.180   2.770   7.276 -0.8837 -0.1808  0.2110
  120CHL1  H22B15124  -0.052   2.905   7.219 -1.0773  0.2114 -1.0547
  120CHL1   C2315125  -0.085   2.728   7.103  0.7230 -0.1546  0.6514
  120CHL1  H23A15126   0.011   2.760   7.056  0.1472 -0.2976 -0.6860
  120CHL1  H23B15127  -0.102   2.619   7.118  0.0268 -0.0647  0.5331
  120CHL1   C2415128  -0.191   2.782   6.999  0.6172 -0.5303 -0.4468
  120CHL1  H24A15129  -0.291   2.758   7.041  1.8605 -1.9299  1.9612
  120CHL1  H24B15130  -0.178   2.892   6.995 -0.2226 -0.3272  1.4536
  120CHL1   C2515131  -0.185   2.719   6.858  0.8802  0.5617  0.9814
  120CHL1   H2515132  -0.185   2.608   6.850  0.8488  0.6105  0.2353
  120CHL1   C2615133  -0.318   2.759   6.794  0.4298 -0.6173  0.0741
  120CHL1  H26A15134  -0.324   2.870   6.787 -1.4722 -0.7851 -1.8652
  120CHL1  H26B15135  -0.336   2.716   6.693 -1.3525 -1.4725  0.7254
  120CHL1  H26C15136  -0.396   2.736   6.869  1.9685  0.5655  2.1251
  120CHL1   C2715137  -0.065   2.771   6.777 -0.3329  0.3142 -0.2523
  120CHL1  H27A15138   0.018   2.699   6.790 -2.7874 -2.3218  2.4749
  120CHL1  H27B15139  -0.091   2.776   6.670  0.6211 -1.2666 -0.5927
  120CHL1  H27C15140  -0.035   2.872   6.812  2.5785 -0.9210  1.2164
  121CHL1    C315141   3.389   6.260   4.540  0.0622  0.3581  0.7328
  121CHL1    H315142   3.431   6.363   4.536  0.9764 -0.0510 -2.5690
  121CHL1    O315143   3.365   6.221   4.406  0.2776 -0.0896 -0.0893
  121CHL1   H3'15144   3.447   6.176   4.385 -0.2746 -3.2728  3.4137
  121CHL1    C415145   3.488   6.165   4.606  0.1351  0.1377 -0.6613
  121CHL1   H4A15146   3.463   6.058   4.589 -1.1308  0.3276 -0.1358
  121CHL1   H4B15147   3.583   6.193   4.555  1.1102  3.7976  2.6742
  121CHL1    C515148   3.493   6.194   4.755  0.5254 -0.1839  0.0993
  121CHL1    C615149   3.614   6.231   4.807  0.4736 -0.3587  0.4704
  121CHL1    H615150   3.701   6.238   4.740 -0.0749  0.3379 -0.1850
  121CHL1    C715151   3.636   6.263   4.949  0.3625  0.1781 -0.2476
  121CHL1   H7A15152   3.735   6.225   4.982 -0.1324  0.4965  1.7256
  121CHL1   H7B15153   3.632   6.374   4.960 -1.7305  0.0384  0.8260
  121CHL1    C815154   3.523   6.204   5.033  0.2710 -0.6623  0.4644
  121CHL1    H815155   3.529   6.093   5.034 -0.5453 -0.7119  0.9114
  121CHL1   C1415156   3.529   6.265   5.171 -0.1154  0.3724  0.9238
  121CHL1   H1415157   3.522   6.376   5.166 -1.0984  0.2711 -0.8832
  121CHL1   C1515158   3.663   6.242   5.241 -0.3442  0.0809  0.2430
  121CHL1  H15A15159   3.717   6.144   5.244  0.2581  0.4381  1.6048
  121CHL1  H15B15160   3.741   6.317   5.214 -2.1210  1.3624 -1.5487
  121CHL1   C1615161   3.627   6.282   5.384 -0.0980  0.4268  0.1520
  121CHL1  H16A15162   3.654   6.194   5.446  2.1959  1.4968  0.7878
  121CHL1  H16B15163   3.661   6.380   5.424  0.5499 -1.1170  3.7993
  121CHL1   C1715164   3.468   6.291   5.394 -0.8143 -0.5040 -0.1014
  121CHL1   H1715165   3.445   6.398   5.376  0.3689 -0.1718  0.2534
  121CHL1   C1315166   3.419   6.224   5.269  0.8049 -0.0493  0.2699
  121CHL1   C1815167   3.423   6.074   5.293  0.5612 -0.4899 -0.2357
  121CHL1  H18A15168   3.523   6.049   5.336 -0.0744 -0.4316  1.3495
  121CHL1  H18B15169   3.344   6.040   5.363  0.0500  0.6070 -0.2579
  121CHL1  H18C15170   3.424   6.015   5.199 -1.0646  2.9356 -2.6074
  121CHL1   C1215171   3.284   6.265   5.207 -0.1036 -0.0945 -0.0953
  121CHL1  H12A15172   3.207   6.225   5.276  0.0666 -1.7306 -0.8054
  121CHL1  H12B15173   3.276   6.376   5.208 -0.1552 -0.0994  0.3493
  121CHL1   C1115174   3.265   6.211   5.064  0.1679 -0.2622 -0.3762
  121CHL1  H11A15175   3.251   6.101   5.070 -0.4331 -0.1572  0.1684
  121CHL1  H11B15176   3.169   6.250   5.024 -0.4168  0.2134  1.4098
  121CHL1    C915177   3.384   6.239   4.974 -0.0077  0.1197 -0.2360
  121CHL1    H915178   3.379   6.349   4.962 -0.0231  0.0794 -0.5882
  121CHL1   C1015179   3.362   6.194   4.837  0.1552 -0.3576  0.2811
  121CHL1   C1915180   3.302   6.052   4.825 -0.2411 -0.1559 -0.7494
  121CHL1  H19A15181   3.344   5.972   4.890  0.7378  0.9250  0.0119
  121CHL1  H19B15182   3.193   6.070   4.834  0.3494  3.2595  1.8619
  121CHL1  H19C15183   3.311   6.015   4.721 -1.6583  1.9093 -1.6708
  121CHL1    C115184   3.267   6.295   4.758 -0.3883  0.0959  0.5421
  121CHL1   H1A15185   3.172   6.286   4.815 -0.4104 -1.8685  0.2603
  121CHL1   H1B15186   3.308   6.397   4.771 -2.7327  0.7853  3.7630
  121CHL1    C215187   3.249   6.263   4.608 -0.3998 -0.2569 -0.7026
  121CHL1   H2A15188   3.188   6.345   4.564  1.9396  0.7692 -2.2310
  121CHL1   H2B15189   3.195   6.167   4.602 -0.0265 -0.4682 -0.6853
  121CHL1   C2015190   3.414   6.251   5.534  0.3930 -0.7651 -0.2323
  121CHL1   H2015191   3.440   6.147   5.565  0.3015 -0.5456  0.5932
  121CHL1   C2115192   3.261   6.252   5.545  0.1974  0.6866  0.0858
  121CHL1  H21A15193   3.226   6.342   5.489 -0.7331 -0.6756 -1.6416
  121CHL1  H21B15194   3.221   6.249   5.648  0.5053 -1.0662  0.1856
  121CHL1  H21C15195   3.217   6.163   5.496  0.0253 -0.0576  1.5379
  121CHL1   C2215196   3.467   6.352   5.639  0.3680 -0.2073  0.3262
  121CHL1  H22A15197   3.568   6.390   5.610  0.5065 -0.9776 -0.2455
  121CHL1  H22B15198   3.397   6.438   5.632  2.1588  1.2212 -2.1495
  121CHL1   C2315199   3.480   6.299   5.777 -0.2122 -0.0301  0.5421
  121CHL1  H23A15200   3.382   6.254   5.804  0.2446 -1.0215  0.5854
  121CHL1  H23B15201   3.554   6.217   5.775  0.2076  0.3475  0.3261
  121CHL1   C2415202   3.515   6.409   5.876 -0.3453 -0.5031 -0.0602
  121CHL1  H24A15203   3.611   6.452   5.839 -0.0802  0.5143  1.6783
  121CHL1  H24B15204   3.446   6.495   5.865 -1.0969 -1.0673  0.1676
  121CHL1   C2515205   3.525   6.357   6.020  0.2878 -0.0986 -0.0847
  121CHL1   H2515206   3.599   6.275   6.017 -1.6387 -1.9126 -2.7346
  121CHL1   C2615207   3.583   6.459   6.118  0.3174  0.2671 -0.0422
  121CHL1  H26A15208   3.686   6.491   6.091  0.8266 -1.6933 -0.5925
  121CHL1  H26B15209   3.517   6.547   6.129 -0.1874  0.1691 -1.8925
  121CHL1  H26C15210   3.593   6.412   6.218  3.4954 -0.8766 -0.7697
  121CHL1   C2715211   3.394   6.315   6.087  0.1821  0.0684  0.6500
  121CHL1  H27A15212   3.348   6.237   6.023  1.9139 -0.1705 -0.3969
  121CHL1  H27B15213   3.398   6.268   6.187 -1.3646 -1.3511  0.0778
  121CHL1  H27C15214   3.323   6.400   6.091  0.1939  0.0633  0.9897
  122CHL1    C315215   0.320   6.491   4.913 -0.2559 -0.4544 -0.0682
  122CHL1    H315216   0.403   6.427   4.951  0.3702 -0.4256 -1.3359
  122CHL1    O315217   0.326   6.501   4.772  0.4152  0.2200  0.4279
  122CHL1   H3'15218   0.266   6.572   4.750  0.8382  0.5619  0.3586
  122CHL1    C415219   0.184   6.442   4.957  0.5630 -0.1161  0.1059
  122CHL1   H4A15220   0.103   6.503   4.911  0.0673 -0.5269  0.4142
  122CHL1   H4B15221   0.175   6.339   4.919  1.2877  0.2939 -1.2392
  122CHL1    C515222   0.154   6.444   5.113  0.8455 -0.4248  0.3600
  122CHL1    C615223   0.106   6.332   5.176 -0.6065  0.0714 -0.5150
  122CHL1    H615224   0.093   6.248   5.106  0.8507 -0.0776 -0.6367
  122CHL1    C715225   0.076   6.327   5.322 -0.6396 -0.3434  0.0871
  122CHL1   H7A15226  -0.024   6.284   5.344 -0.4185 -1.2221 -0.5723
  122CHL1   H7B15227   0.156   6.258   5.356  0.5882 -0.8157 -3.3375
  122CHL1    C815228   0.085   6.466   5.390  0.0035 -0.8132  0.7684
  122CHL1    H815229  -0.016   6.510   5.379 -0.0847 -0.9489  1.0131
  122CHL1   C1415230   0.120   6.454   5.539 -0.1116 -0.2728  0.1693
  122CHL1   H1415231   0.225   6.418   5.527  0.1621 -0.4606  2.5381
  122CHL1   C1515232   0.062   6.344   5.629 -0.1440  0.3697 -0.0039
  122CHL1  H15A15233  -0.047   6.346   5.609 -0.4412 -1.8212  1.0564
  122CHL1  H15B15234   0.105   6.244   5.604 -1.3808 -0.1433 -0.1574
  122CHL1   C1615235   0.086   6.388   5.773 -0.1301 -0.2365 -0.2134
  122CHL1  H16A15236  -0.010   6.389   5.829  0.6823 -0.7956  1.2725
  122CHL1  H16B15237   0.153   6.308   5.812 -0.0347  0.3883  0.9439
  122CHL1   C1715238   0.148   6.535   5.766 -0.4754  0.5682 -0.0170
  122CHL1   H1715239   0.258   6.518   5.760 -0.5745  0.1574 -0.6527
  122CHL1   C1315240   0.119   6.580   5.621 -0.4012  0.7639  0.2546
  122CHL1   C1815241  -0.029   6.627   5.627 -0.4090  0.1052  0.3095
  122CHL1  H18A15242  -0.069   6.652   5.526 -0.3234  0.0991  0.2739
  122CHL1  H18B15243  -0.099   6.559   5.680  0.6753 -3.3935 -2.3693
  122CHL1  H18C15244  -0.031   6.721   5.687  0.4694 -0.4374  1.2018
  122CHL1   C1215245   0.214   6.681   5.557  0.5040 -0.1940  0.0292
  122CHL1  H12A15246   0.205   6.782   5.601 -0.2618 -0.3205  0.1772
  122CHL1  H12B15247   0.314   6.633   5.571 -0.9084 -3.0818  1.1735
  122CHL1   C1115248   0.198   6.698   5.403 -0.5623 -0.1769 -0.1296
  122CHL1  H11A15249   0.100   6.745   5.379 -1.0532 -1.1192 -0.0503
  122CHL1  H11B15250   0.291   6.749   5.371  0.2750 -1.8102 -0.4235
  122CHL1    C915251   0.189   6.560   5.327  0.2442  0.0886  0.4027
  122CHL1    H915252   0.283   6.507   5.351  0.5372 -0.1812 -1.2301
  122CHL1   C1015253   0.187   6.578   5.178 -0.6798 -0.2513  0.0127
  122CHL1   C1915254   0.074   6.676   5.136  0.4761 -0.0551 -0.1215
  122CHL1  H19A15255   0.042   6.676   5.030 -0.7045 -0.1087  0.2239
  122CHL1  H19B15256  -0.012   6.665   5.205 -1.2361  0.7548 -2.0287
  122CHL1  H19C15257   0.100   6.782   5.153 -1.7100  0.2702  1.5884
  122CHL1    C115258   0.320   6.630   5.127 -0.5620 -0.1440 -0.3121
  122CHL1   H1A15259   0.332   6.732   5.169  0.9580 -0.9634  1.4008
  122CHL1   H1B15260   0.394   6.559   5.172  0.3391  1.0631  0.1683
  122CHL1    C215261   0.343   6.627   4.976  0.1023  0.0311 -0.1392
  122CHL1   H2A15262   0.443   6.667   4.948  1.0575 -2.0079  0.1537
  122CHL1   H2B15263   0.264   6.694   4.938 -1.4302 -1.2405  0.6636
  122CHL1   C2015264   0.121   6.624   5.892  0.3064  0.3664 -0.2456
  122CHL1   H2015265   0.020   6.668   5.879 -0.9665 -2.6621 -1.4110
  122CHL1   C2115266   0.237   6.730   5.895  0.2680 -0.5729 -0.4122
  122CHL1  H21A15267   0.244   6.780   5.994  1.4995  1.0471 -1.2651
  122CHL1  H21B15268   0.208   6.814   5.829 -1.6086 -1.1483 -0.3830
  122CHL1  H21C15269   0.339   6.696   5.869  1.0873  1.7750 -0.4663
  122CHL1   C2215270   0.119   6.555   6.025 -0.0909  0.6385 -0.3596
  122CHL1  H22A15271   0.038   6.479   6.020  0.1389  0.4009 -0.5133
  122CHL1  H22B15272   0.216   6.501   6.028 -1.4055 -1.8489  0.0301
  122CHL1   C2315273   0.087   6.636   6.143 -0.1452  0.7415  0.1488
  122CHL1  H23A15274   0.161   6.716   6.163 -2.2149  2.9486 -0.6626
  122CHL1  H23B15275  -0.001   6.701   6.129  0.6066  1.8529  0.4786
  122CHL1   C2415276   0.064   6.557   6.272 -0.4214 -0.0409  0.1163
  122CHL1  H24A15277  -0.031   6.502   6.252 -1.3574  1.6028 -0.1277
  122CHL1  H24B15278   0.158   6.498   6.282  0.3314  0.5560 -2.7450
  122CHL1   C2515279   0.040   6.641   6.392  1.3429  0.0143 -0.9725
  122CHL1   H2515280  -0.053   6.699   6.371  0.7013 -0.7793 -0.4106
  122CHL1   C2615281   0.007   6.552   6.510 -0.4075  0.0215  0.2300
  122CHL1  H26A15282  -0.094   6.508   6.503  0.2233 -1.8718  1.9620
  122CHL1  H26B15283   0.081   6.469   6.518  1.1375  1.4345  1.5565
  122CHL1  H26C15284   0.010   6.609   6.606  1.7293  2.0246 -0.9192
  122CHL1   C2715285   0.157   6.733   6.433 -0.2705  0.3723  0.4226
  122CHL1  H27A15286   0.160   6.816   6.359  0.1593  0.5125  0.5939
  122CHL1  H27B15287   0.146   6.789   6.528 -3.7343  1.0282 -0.2344
  122CHL1  H27C15288   0.252   6.674   6.436 -1.3044 -1.5228 -1.4897
  123CHL1    C315289   4.843   1.047   4.996 -0.6516  0.1080 -0.7945
  123CHL1    H315290   4.803   1.149   5.016  2.0056  0.9319  0.8697
  123CHL1    O315291   4.874   1.029   4.856 -0.0664 -0.1433 -0.5076
  123CHL1   H3'15292   4.958   1.071   4.839  0.3798 -0.8163 -0.0347
  123CHL1    C415293   4.964   1.033   5.089  0.2480  0.6015  0.3316
  123CHL1   H4A15294   5.013   0.934   5.076 -0.3696  0.5342 -1.7318
  123CHL1   H4B15295   5.035   1.115   5.066  0.9783 -0.3740 -0.9994
  123CHL1    C515296   4.924   1.045   5.234  0.2027 -0.1449  0.2034
  123CHL1    C615297   4.987   1.129   5.315 -0.3304  0.0633  0.0113
  123CHL1    H615298   5.069   1.195   5.283  0.5004  0.0733  1.9943
  123CHL1    C715299   4.948   1.155   5.458 -0.2829  0.0014 -0.1682
  123CHL1   H7A15300   5.038   1.166   5.523  0.1548 -3.1008 -0.1007
  123CHL1   H7B15301   4.876   1.239   5.461  0.2855  0.6019 -2.0421
  123CHL1    C815302   4.876   1.032   5.518  0.0790 -0.2102  0.6671
  123CHL1    H815303   4.951   0.950   5.524 -0.2612 -0.5500  0.3538
  123CHL1   C1415304   4.828   1.068   5.658 -0.1951  0.3842  0.0699
  123CHL1   H1415305   4.756   1.150   5.637  0.0941 -0.0886 -3.2491
  123CHL1   C1515306   4.930   1.121   5.759 -0.2976 -0.2961 -0.1333
  123CHL1  H15A15307   5.023   1.061   5.750  0.6220  1.1619 -0.6814
  123CHL1  H15B15308   4.959   1.225   5.736 -0.4807  0.2490  1.9584
  123CHL1   C1615309   4.865   1.101   5.889  0.0785 -1.0337 -0.9271
  123CHL1  H16A15310   4.920   1.032   5.958 -1.5117  0.8573  2.5081
  123CHL1  H16B15311   4.849   1.201   5.934  0.6451 -0.8346 -1.1590
  123CHL1   C1715312   4.718   1.036   5.861 -0.0621  0.2943  0.1174
  123CHL1   H1715313   4.640   1.110   5.834 -1.2862 -1.2595 -0.7605
  123CHL1   C1315314   4.743   0.960   5.729  0.1190 -0.0896  0.5652
  123CHL1   C1815315   4.820   0.835   5.760  0.2396 -0.0668  0.2754
  123CHL1  H18A15316   4.897   0.855   5.837 -0.9725  2.3815  0.9635
  123CHL1  H18B15317   4.755   0.753   5.797  2.1855 -1.4079  0.8263
  123CHL1  H18C15318   4.861   0.787   5.669  0.4292  1.2989 -0.3948
  123CHL1   C1215319   4.625   0.929   5.641  0.5958 -0.7202 -0.5385
  123CHL1  H12A15320   4.571   0.838   5.675 -0.0989  0.0311  0.4442
  123CHL1  H12B15321   4.560   1.018   5.655  1.2148 -0.5640  1.8651
  123CHL1   C1115322   4.660   0.899   5.495  0.0493  0.5338  0.3859
  123CHL1  H11A15323   4.703   0.796   5.492 -0.1526  0.4640 -0.2838
  123CHL1  H11B15324   4.567   0.907   5.434  1.4156 -0.4289 -1.9545
  123CHL1    C915325   4.758   0.997   5.423 -0.3016 -0.4835  0.0736
  123CHL1    H915326   4.696   1.089   5.419 -1.4343 -1.2153  0.3833
  123CHL1   C1015327   4.805   0.958   5.279 -0.6859 -0.6002 -0.1501
  123CHL1   C1915328   4.850   0.815   5.288 -0.3527  0.0174 -0.2152
  123CHL1  H19A15329   4.914   0.783   5.203 -0.9773  0.8211 -1.0161
  123CHL1  H19B15330   4.919   0.799   5.374  1.1174  0.8729 -1.1884
  123CHL1  H19C15331   4.763   0.748   5.301 -0.0216 -0.3999 -0.1202
  123CHL1    C115332   4.690   0.973   5.181 -0.3821  0.1001  0.2488
  123CHL1   H1A15333   4.616   0.898   5.216 -0.1440  0.0901  0.7487
  123CHL1   H1B15334   4.647   1.075   5.186  0.1498  0.4777 -1.7934
  123CHL1    C215335   4.738   0.949   5.039  0.7757  0.3194  0.1562
  123CHL1   H2A15336   4.645   0.963   4.979 -1.4618 -1.4495  2.9485
  123CHL1   H2B15337   4.758   0.840   5.040 -1.5929 -0.1717  0.6306
  123CHL1   C2015338   4.666   0.965   5.991 -0.1252  0.1903  0.0593
  123CHL1   H2015339   4.730   0.879   6.020  2.2619  1.1490 -1.9751
  123CHL1   C2115340   4.532   0.905   5.951  0.8354  0.6353 -0.3672
  123CHL1  H21A15341   4.476   0.985   5.897  0.0806  1.6994  1.8695
  123CHL1  H21B15342   4.473   0.884   6.042 -1.4650  2.1679 -1.4178
  123CHL1  H21C15343   4.530   0.815   5.886 -2.4426 -0.0483  0.5024
  123CHL1   C2215344   4.634   1.056   6.113 -0.5818  0.2962 -0.6339
  123CHL1  H22A15345   4.728   1.106   6.143  0.1937 -0.3426 -1.8955
  123CHL1  H22B15346   4.573   1.143   6.081 -0.4320  1.7035  2.5229
  123CHL1   C2315347   4.583   0.996   6.243  0.4014  0.4066  0.7878
  123CHL1  H23A15348   4.483   0.952   6.224  0.2997  1.8207 -2.5357
  123CHL1  H23B15349   4.648   0.915   6.284 -1.7850 -1.3677  0.9030
  123CHL1   C2415350   4.579   1.094   6.357  0.5651 -0.6610  0.4609
  123CHL1  H24A15351   4.659   1.169   6.341  1.8242 -2.1824 -0.6344
  123CHL1  H24B15352   4.486   1.151   6.337  0.1828 -1.4649 -0.1013
  123CHL1   C2515353   4.568   1.036   6.500  0.0841  0.2611  1.4409
  123CHL1   H2515354   4.636   0.948   6.504 -0.3611 -0.1724  0.0190
  123CHL1   C2615355   4.607   1.145   6.603  0.8932  0.5380  0.6080
  123CHL1  H26A15356   4.605   1.108   6.708  1.5797 -1.3160  0.0039
  123CHL1  H26B15357   4.709   1.183   6.582  2.0333 -1.3333  2.4012
  123CHL1  H26C15358   4.534   1.228   6.605 -0.1765 -0.3498 -0.4192
  123CHL1   C2715359   4.427   0.980   6.531 -0.1669 -0.2175 -0.3574
  123CHL1  H27A15360   4.341   1.048   6.550 -2.0217 -2.3709 -0.5316
  123CHL1  H27B15361   4.395   0.918   6.445  1.1704 -0.5697 -0.6232
  123CHL1  H27C15362   4.436   0.920   6.625  0.3811  0.5862  0.1200
  124CHL1    C315363   2.364   1.313   4.489  0.2882  0.0194  0.3103
  124CHL1    H315364   2.432   1.400   4.498 -0.4050  0.6120 -0.0751
  124CHL1    O315365   2.327   1.297   4.353 -0.1336  0.1805  0.2666
  124CHL1   H3'15366   2.286   1.210   4.355 -1.8537  0.9007 -1.0559
  124CHL1    C415367   2.436   1.186   4.541  0.3931  0.9851  0.9145
  124CHL1   H4A15368   2.380   1.091   4.528  0.3335  1.1058  0.2614
  124CHL1   H4B15369   2.528   1.179   4.479  0.0608 -1.5565  0.6019
  124CHL1    C515370   2.471   1.186   4.687  0.0557  0.4298 -0.8655
  124CHL1    C615371   2.597   1.167   4.728  0.1476  0.1465  0.5808
  124CHL1    H615372   2.672   1.136   4.653 -0.6082 -0.8832  0.2239
  124CHL1    C715373   2.645   1.175   4.871  0.0013  0.5817  0.7814
  124CHL1   H7A15374   2.710   1.090   4.901  1.8569  2.0626  1.2196
  124CHL1   H7B15375   2.701   1.271   4.881  1.0724  0.1877 -0.9738
  124CHL1    C815376   2.523   1.173   4.968 -0.4147 -0.0221  0.3515
  124CHL1    H815377   2.506   1.063   4.968 -0.7372  0.0281  0.4810
  124CHL1   C1415378   2.566   1.220   5.107  0.2517  0.0855  0.1816
  124CHL1   H1415379   2.597   1.327   5.107 -2.1727  0.8528  0.8594
  124CHL1   C1515380   2.690   1.165   5.174 -0.3095  0.3737  0.5817
  124CHL1  H15A15381   2.695   1.055   5.156 -1.5940  0.5354 -0.9837
  124CHL1  H15B15382   2.777   1.227   5.144  0.4314 -0.5915  0.6844
  124CHL1   C1615383   2.672   1.204   5.316  1.1238 -0.2195 -0.3995
  124CHL1  H16A15384   2.672   1.105   5.367 -1.7011  1.1601  2.6300
  124CHL1  H16B15385   2.756   1.264   5.357 -0.2619 -0.0762  2.4778
  124CHL1   C1715386   2.532   1.269   5.336  0.2403  0.0635  0.6832
  124CHL1   H1715387   2.535   1.378   5.317  0.8990  0.0827  0.8843
  124CHL1   C1315388   2.456   1.211   5.211  0.6162 -0.3062 -0.3433
  124CHL1   C1815389   2.407   1.065   5.233  0.2332 -0.2059  0.1104
  124CHL1  H18A15390   2.319   1.059   5.300  0.1176  0.8606  0.0642
  124CHL1  H18B15391   2.373   1.013   5.141 -1.7007  0.3340  0.4861
  124CHL1  H18C15392   2.487   0.999   5.274  2.9227  1.5128 -1.9620
  124CHL1   C1215393   2.343   1.299   5.159  0.1259  0.7804  0.3283
  124CHL1  H12A15394   2.260   1.284   5.232  1.4436  0.0802  1.7254
  124CHL1  H12B15395   2.382   1.403   5.151  2.5804 -0.1352 -0.2625
  124CHL1   C1115396   2.284   1.256   5.023  0.8475  0.1119 -0.2983
  124CHL1  H11A15397   2.238   1.156   5.031  0.0164  0.4469 -0.7321
  124CHL1  H11B15398   2.205   1.326   4.988  0.7603 -0.9595 -2.3678
  124CHL1    C915399   2.398   1.253   4.915 -0.2660  0.4593  0.6640
  124CHL1    H915400   2.436   1.357   4.908 -0.1330  0.4606  1.3552
  124CHL1   C1015401   2.347   1.213   4.773 -0.1655  0.1404  0.8039
  124CHL1   C1915402   2.256   1.091   4.777  0.1727  0.0647 -0.3995
  124CHL1  H19A15403   2.232   1.052   4.675  0.9769  1.6222 -1.2209
  124CHL1  H19B15404   2.303   1.005   4.830  1.2746  0.5717 -0.5184
  124CHL1  H19C15405   2.159   1.107   4.829  0.3250  0.6021 -0.2737
  124CHL1    C115406   2.278   1.336   4.720  0.8360  0.3994 -0.4189
  124CHL1   H1A15407   2.190   1.353   4.786 -1.3895 -2.9069 -2.2563
  124CHL1   H1B15408   2.342   1.427   4.728 -0.3019  1.3273 -1.3986
  124CHL1    C215409   2.235   1.332   4.575  0.2341 -0.6542  0.2355
  124CHL1   H2A15410   2.195   1.434   4.556  0.0350 -0.8520 -0.4211
  124CHL1   H2B15411   2.159   1.262   4.535  0.3824 -0.0285 -1.2044
  124CHL1   C2015412   2.473   1.232   5.481 -0.7334 -0.0896  0.4006
  124CHL1   H2015413   2.465   1.122   5.477 -1.3571 -0.0915  1.3932
  124CHL1   C2115414   2.337   1.296   5.501 -0.1479  1.0036  0.1114
  124CHL1  H21A15415   2.268   1.243   5.432  0.5485 -1.4211  1.1531
  124CHL1  H21B15416   2.324   1.406   5.487 -2.4160  0.7409 -0.2883
  124CHL1  H21C15417   2.305   1.278   5.605  1.0003  2.7760  0.8181
  124CHL1   C2215418   2.570   1.286   5.586  0.3934  0.2092 -0.2123
  124CHL1  H22A15419   2.676   1.274   5.555  0.6234 -3.1537  1.4069
  124CHL1  H22B15420   2.550   1.394   5.600 -3.3745 -0.4443  0.5228
  124CHL1   C2315421   2.543   1.217   5.724 -0.5627  0.5329 -0.1354
  124CHL1  H23A15422   2.453   1.251   5.779  0.9091  2.6791  1.1376
  124CHL1  H23B15423   2.531   1.108   5.709  1.8462 -0.0805  1.7448
  124CHL1   C2415424   2.660   1.240   5.821 -0.0334  0.2603  0.3122
  124CHL1  H24A15425   2.754   1.198   5.780 -0.1114  1.0038 -0.6896
  124CHL1  H24B15426   2.672   1.351   5.817  0.0883  0.2601  0.6469
  124CHL1   C2515427   2.653   1.213   5.975  0.7141 -0.1671 -0.6132
  124CHL1   H2515428   2.753   1.228   6.020  0.1469  2.2193 -0.0235
  124CHL1   C2615429   2.563   1.324   6.052 -0.8684  0.0569  0.3334
  124CHL1  H26A15430   2.629   1.413   6.050  0.1080 -0.6763 -1.2147
  124CHL1  H26B15431   2.469   1.351   5.998  0.1770 -1.0732 -2.1973
  124CHL1  H26C15432   2.540   1.299   6.158 -1.6889  1.4984  0.5267
  124CHL1   C2715433   2.603   1.071   6.005  0.2595 -0.3455  0.6095
  124CHL1  H27A15434   2.558   1.079   6.106  2.6276 -0.1322  1.7135
  124CHL1  H27B15435   2.524   1.039   5.933  0.9587 -1.3021  0.2531
  124CHL1  H27C15436   2.679   0.991   5.997 -1.1082 -1.6241 -0.2831
  125CHL1    C315437   3.413   0.164   4.490  0.4206 -0.1269  0.3124
  125CHL1    H315438   3.403   0.275   4.493  1.5695 -0.0122  0.8473
  125CHL1    O315439   3.403   0.122   4.352  0.1138  0.1637  0.5327
  125CHL1   H3'15440   3.349   0.043   4.352 -0.6084  0.5745 -1.9148
  125CHL1    C415441   3.551   0.126   4.543  0.7733 -0.0446  0.1258
  125CHL1   H4A15442   3.562   0.016   4.541 -1.5177 -0.3350 -2.4743
  125CHL1   H4B15443   3.636   0.172   4.489  0.9187  0.2073  0.5585
  125CHL1    C515444   3.566   0.174   4.685  0.3129 -0.7007  0.2320
  125CHL1    C615445   3.666   0.250   4.724 -0.8499  0.7745  0.5666
  125CHL1    H615446   3.736   0.278   4.643 -0.4688  2.1583  1.3470
  125CHL1    C715447   3.701   0.287   4.861  0.0758  0.3564 -0.7312
  125CHL1   H7A15448   3.809   0.264   4.875 -0.7407 -3.5341  0.6164
  125CHL1   H7B15449   3.671   0.392   4.880 -1.5516  0.0227 -1.2592
  125CHL1    C815450   3.628   0.204   4.963  0.2174  0.2387 -0.1889
  125CHL1    H815451   3.665   0.099   4.963  0.8346  0.4471  0.5820
  125CHL1   C1415452   3.624   0.265   5.109  1.0703  0.4108  0.0373
  125CHL1   H1415453   3.572   0.363   5.103 -0.7200 -0.4470  1.0310
  125CHL1   C1515454   3.761   0.294   5.167  0.2636 -1.0724 -0.2798
  125CHL1  H15A15455   3.834   0.211   5.154  0.2629 -0.7674 -2.6701
  125CHL1  H15B15456   3.815   0.382   5.126 -0.1858 -1.2325 -1.2419
  125CHL1   C1615457   3.726   0.315   5.314 -0.0161  0.0166  0.9158
  125CHL1  H16A15458   3.812   0.269   5.367  1.7471  0.3150 -1.5247
  125CHL1  H16B15459   3.733   0.425   5.333  1.3802 -0.2080  1.8494
  125CHL1   C1715460   3.588   0.256   5.343  0.0092 -0.0040  0.5083
  125CHL1   H1715461   3.522   0.343   5.362 -1.1631 -1.1488  1.9457
  125CHL1   C1315462   3.547   0.183   5.213 -0.3519 -0.1653  0.2255
  125CHL1   C1815463   3.607   0.032   5.215  0.5105 -0.3299  0.0804
  125CHL1  H18A15464   3.714   0.033   5.244  0.7680  1.3925 -0.7847
  125CHL1  H18B15465   3.552  -0.027   5.291 -0.5105  1.5815  0.8969
  125CHL1  H18C15466   3.587  -0.007   5.113 -3.0947  0.1629  0.4625
  125CHL1   C1215467   3.397   0.192   5.163  0.7834  0.6741 -0.2938
  125CHL1  H12A15468   3.345   0.125   5.235  2.1978 -2.4479 -2.0056
  125CHL1  H12B15469   3.362   0.296   5.180 -1.0557 -0.1622  1.4525
  125CHL1   C1115470   3.373   0.127   5.021 -0.0272 -0.2050 -0.7324
  125CHL1  H11A15471   3.376   0.017   5.036  1.2530 -0.0570  0.3605
  125CHL1  H11B15472   3.273   0.151   4.980  0.2682  0.6413 -0.9899
  125CHL1    C915473   3.477   0.182   4.920  0.0051 -0.2869 -0.2341
  125CHL1    H915474   3.436   0.284   4.902  3.1200  1.3988  1.4004
  125CHL1   C1015475   3.464   0.120   4.785 -0.2245 -0.1126 -0.1680
  125CHL1   C1915476   3.485  -0.033   4.804 -0.0568  0.1504  1.0189
  125CHL1  H19A15477   3.588  -0.057   4.838  0.3031  1.4830  0.9361
  125CHL1  H19B15478   3.410  -0.083   4.869 -1.8985  0.5690 -0.6826
  125CHL1  H19C15479   3.469  -0.089   4.709  1.2749 -1.5642  1.7581
  125CHL1    C115480   3.320   0.139   4.722 -0.4739  0.0153 -0.5244
  125CHL1   H1A15481   3.252   0.075   4.782 -1.8192  1.4239 -0.4778
  125CHL1   H1B15482   3.295   0.247   4.714 -0.1406  0.1717  0.4121
  125CHL1    C215483   3.306   0.091   4.573 -0.2154  0.1452 -0.2020
  125CHL1   H2A15484   3.202   0.115   4.542  0.0799  2.3912  0.3755
  125CHL1   H2B15485   3.327  -0.018   4.562 -0.7109  0.2539 -2.9171
  125CHL1   C2015486   3.578   0.179   5.474 -0.4457 -0.3103  0.0593
  125CHL1   H2015487   3.653   0.097   5.465 -1.2661 -1.1585  0.7118
  125CHL1   C2115488   3.435   0.118   5.502  0.1623  0.6478  0.5836
  125CHL1  H21A15489   3.421   0.054   5.591 -1.5724  2.4262  1.6689
  125CHL1  H21B15490   3.418   0.051   5.415  2.6637 -2.3447  2.1887
  125CHL1  H21C15491   3.355   0.196   5.507  0.1454  0.9225 -2.1923
  125CHL1   C2215492   3.627   0.260   5.597  0.2543  0.1186  0.1852
  125CHL1  H22A15493   3.731   0.295   5.580  1.2855 -2.5092  0.5399
  125CHL1  H22B15494   3.568   0.354   5.599  0.5293  0.2839  1.2687
  125CHL1   C2315495   3.621   0.188   5.728  0.2302  0.5689  0.2028
  125CHL1  H23A15496   3.518   0.163   5.762  0.3970  1.1612  1.1655
  125CHL1  H23B15497   3.655   0.082   5.717 -2.3766 -0.3201 -0.0680
  125CHL1   C2415498   3.705   0.260   5.829 -0.2528 -0.2713 -0.1718
  125CHL1  H24A15499   3.796   0.296   5.777 -1.5670 -0.6134 -2.8709
  125CHL1  H24B15500   3.643   0.340   5.876 -0.1990 -0.2378 -0.1579
  125CHL1   C2515501   3.741   0.157   5.945  0.1658 -0.1318  0.3094
  125CHL1   H2515502   3.648   0.103   5.972  1.2979 -1.1494  2.4430
  125CHL1   C2615503   3.851   0.049   5.904 -0.0023  0.2373  0.2635
  125CHL1  H26A15504   3.827  -0.018   5.819  3.5108 -0.4694 -0.3111
  125CHL1  H26B15505   3.940   0.108   5.874  0.2774 -0.2840  0.0742
  125CHL1  H26C15506   3.865  -0.022   5.988 -2.7666 -0.9054 -0.1473
  125CHL1   C2715507   3.792   0.233   6.062 -0.1366  0.2147 -0.6705
  125CHL1  H27A15508   3.707   0.300   6.087 -1.5397 -1.8398  0.3756
  125CHL1  H27B15509   3.816   0.162   6.144 -1.0061 -1.1854 -1.5800
  125CHL1  H27C15510   3.882   0.293   6.034  1.9455 -1.9900  0.8494
  126CHL1    C315511   0.062   2.368   4.391  0.5656  0.3290  0.0074
  126CHL1    H315512  -0.035   2.325   4.424 -0.6465  0.9441 -2.4932
  126CHL1    O315513   0.069   2.370   4.248 -0.1452  0.0026 -0.5196
  126CHL1   H3'15514   0.161   2.364   4.222  0.1934 -2.2421  0.8858
  126CHL1    C415515   0.067   2.512   4.440  0.2502  0.4664 -0.2403
  126CHL1   H4A15516   0.154   2.554   4.385  1.0027  0.5660  0.9826
  126CHL1   H4B15517  -0.017   2.572   4.399  0.9069  0.8186 -1.1152
  126CHL1    C515518   0.076   2.531   4.588 -0.1891  0.4016 -1.2126
  126CHL1    C615519  -0.012   2.604   4.653 -0.1344 -0.8576  0.6012
  126CHL1    H615520  -0.088   2.658   4.594  1.0794 -2.0719 -2.2542
  126CHL1    C715521  -0.020   2.623   4.802 -0.2521 -0.4452 -0.2695
  126CHL1   H7A15522  -0.022   2.732   4.825  0.6218 -0.3256 -0.7195
  126CHL1   H7B15523  -0.103   2.562   4.842 -0.5356  0.9448  1.3854
  126CHL1    C815524   0.108   2.571   4.873  0.4046  0.1943  0.6516
  126CHL1    H815525   0.188   2.646   4.854 -0.1026  1.2686  2.5119
  126CHL1   C1415526   0.085   2.560   5.027  0.2882  0.0929  0.9411
  126CHL1   H1415527  -0.002   2.490   5.028  0.3737 -0.0021  1.7906
  126CHL1   C1515528   0.046   2.692   5.089 -1.3379  0.1019 -0.4563
  126CHL1  H15A15529   0.110   2.773   5.047 -1.7243  1.2505  1.0698
  126CHL1  H15B15530  -0.058   2.732   5.085 -0.5106  2.3556 -1.3068
  126CHL1   C1615531   0.080   2.657   5.231  0.2382  0.4190 -0.1449
  126CHL1  H16A15532   0.147   2.730   5.282  0.0696 -0.3330  1.2152
  126CHL1  H16B15533  -0.010   2.648   5.296  0.8026  1.4208  0.8143
  126CHL1   C1715534   0.157   2.519   5.248 -0.2281 -0.7684 -0.6799
  126CHL1   H1715535   0.089   2.438   5.281  0.0860 -1.3845 -1.5126
  126CHL1   C1315536   0.203   2.499   5.101  0.0994  0.5741 -0.6094
  126CHL1   C1815537   0.330   2.590   5.076  0.0178 -0.1534 -0.6248
  126CHL1  H18A15538   0.333   2.686   5.133  3.6339 -0.6683  0.3010
  126CHL1  H18B15539   0.421   2.533   5.106  0.7269  1.8023  1.2592
  126CHL1  H18C15540   0.341   2.611   4.968 -1.4793  0.1031 -0.7522
  126CHL1   C1215541   0.215   2.352   5.052 -0.2759 -0.1968  0.3818
  126CHL1  H12A15542   0.298   2.296   5.099  0.4537  1.7414  1.5644
  126CHL1  H12B15543   0.118   2.300   5.066  0.3473 -2.0422 -1.7461
  126CHL1   C1115544   0.256   2.353   4.901  0.1236 -0.3280 -0.2914
  126CHL1  H11A15545   0.359   2.393   4.887 -0.2328  0.7627  0.0983
  126CHL1  H11B15546   0.249   2.248   4.866  0.2128  0.6222 -3.5135
  126CHL1    C915547   0.150   2.434   4.816  0.2838 -1.2349 -0.4448
  126CHL1    H915548   0.051   2.384   4.828  0.0344 -0.6628 -0.0895
  126CHL1   C1015549   0.178   2.436   4.663  0.8840  0.0154  0.1709
  126CHL1   C1915550   0.319   2.491   4.642 -0.2791 -0.0828 -0.2666
  126CHL1  H19A15551   0.397   2.419   4.677  1.1326  1.8062  0.6766
  126CHL1  H19B15552   0.321   2.524   4.536  0.6567 -0.3523 -0.3466
  126CHL1  H19C15553   0.332   2.586   4.698  0.8827 -1.1057  1.2907
  126CHL1    C115554   0.163   2.293   4.605  0.8856 -0.0395 -0.5254
  126CHL1   H1A15555   0.244   2.228   4.646  0.1137 -0.9841 -0.4533
  126CHL1   H1B15556   0.069   2.250   4.646 -0.6717  0.4030 -3.3348
  126CHL1    C215557   0.170   2.288   4.455 -0.2599  0.7739  0.6593
  126CHL1   H2A15558   0.169   2.185   4.414 -2.1319 -0.5881  3.7598
  126CHL1   H2B15559   0.269   2.329   4.423 -1.2222  0.5182 -3.0702
  126CHL1   C2015560   0.265   2.520   5.356  0.2655 -0.6390  0.1703
  126CHL1   H2015561   0.346   2.588   5.322  0.3799 -1.1336 -0.5632
  126CHL1   C2115562   0.320   2.379   5.369  0.5314 -0.0605 -1.0924
  126CHL1  H21A15563   0.380   2.347   5.281 -0.7187  0.0417 -2.0155
  126CHL1  H21B15564   0.239   2.309   5.399  1.2858 -0.2517  0.6075
  126CHL1  H21C15565   0.391   2.372   5.453  0.8569 -0.4735 -1.3969
  126CHL1   C2215566   0.211   2.563   5.494  0.1290  0.2789  0.2929
  126CHL1  H22A15567   0.153   2.658   5.483 -1.6899 -0.6963  1.0744
  126CHL1  H22B15568   0.133   2.491   5.527  1.0383 -1.9163 -1.9963
  126CHL1   C2315569   0.313   2.602   5.594  0.0634 -0.9729 -0.4319
  126CHL1  H23A15570   0.359   2.515   5.645 -1.0225 -0.7064  1.0858
  126CHL1  H23B15571   0.405   2.645   5.549  1.3503 -2.6416  0.4655
  126CHL1   C2415572   0.251   2.691   5.707 -0.6712  0.2830  0.1796
  126CHL1  H24A15573   0.330   2.739   5.768 -1.2353 -0.2155  1.3378
  126CHL1  H24B15574   0.188   2.774   5.668 -1.2586  0.9356  2.3589
  126CHL1   C2515575   0.161   2.618   5.818  0.8262 -0.1640 -0.2097
  126CHL1   H2515576   0.069   2.584   5.766  1.2158  0.0944 -1.0852
  126CHL1   C2615577   0.226   2.506   5.892  1.1053 -0.4139 -0.5739
  126CHL1  H26A15578   0.160   2.473   5.975  2.2817 -1.4771 -0.0182
  126CHL1  H26B15579   0.241   2.416   5.828 -0.7078  0.8269 -2.9097
  126CHL1  H26C15580   0.315   2.542   5.948 -0.6674 -0.5793  2.5905
  126CHL1   C2715581   0.130   2.721   5.928  0.3374  0.0049 -0.4298
  126CHL1  H27A15582   0.064   2.800   5.885  0.5631  0.2656 -0.2965
  126CHL1  H27B15583   0.094   2.682   6.025  1.6726 -0.7201 -0.2165
  126CHL1  H27C15584   0.225   2.775   5.946  1.3477 -1.6602 -0.4947
  127CHL1    C315585   1.590   2.004   4.672 -0.1731  0.1208 -0.0085
  127CHL1    H315586   1.621   2.105   4.708  0.0998 -0.7639  2.4380
  127CHL1    O315587   1.587   1.986   4.533  0.3858 -1.2826 -0.2799
  127CHL1   H3'15588   1.508   1.935   4.514  0.7600 -1.4171 -1.5310
  127CHL1    C415589   1.695   1.909   4.728  0.4980  0.3416 -0.8288
  127CHL1   H4A15590   1.681   1.805   4.691 -1.8714  0.2302  0.2287
  127CHL1   H4B15591   1.796   1.933   4.687 -0.2401  0.5427 -2.6273
  127CHL1    C515592   1.699   1.913   4.876 -0.5342 -0.2237 -0.5423
  127CHL1    C615593   1.815   1.930   4.935  0.6589 -0.2220 -0.0559
  127CHL1    H615594   1.909   1.954   4.882  0.7577  0.5348  0.4350
  127CHL1    C715595   1.819   1.958   5.085 -0.1204  0.1435 -0.8141
  127CHL1   H7A15596   1.910   1.904   5.118 -0.2553 -0.0148 -0.7020
  127CHL1   H7B15597   1.842   2.062   5.117  2.6723 -0.6511  0.0625
  127CHL1    C815598   1.696   1.884   5.157 -0.5891  0.1801 -0.8452
  127CHL1    H815599   1.719   1.777   5.139  0.4737  0.0910  0.8599
  127CHL1   C1415600   1.689   1.927   5.308 -0.0385  0.2999  0.9046
  127CHL1   H1415601   1.674   2.037   5.302 -1.5994  0.0355 -2.1147
  127CHL1   C1515602   1.824   1.913   5.384 -0.2850  0.8573  0.4436
  127CHL1  H15A15603   1.843   1.804   5.374 -3.5536 -0.0792  2.5976
  127CHL1  H15B15604   1.902   1.977   5.338  2.6831 -2.0969  0.9663
  127CHL1   C1615605   1.780   1.934   5.529  0.1167  0.4394  0.0915
  127CHL1  H16A15606   1.836   1.863   5.593  0.2156 -0.6544 -1.1781
  127CHL1  H16B15607   1.802   2.038   5.561  1.4856  0.7606 -1.7334
  127CHL1   C1715608   1.622   1.922   5.527 -0.3062 -0.3913  0.1759
  127CHL1   H1715609   1.584   2.026   5.527  1.0035  0.1256 -0.6412
  127CHL1   C1315610   1.582   1.861   5.390 -1.1663 -0.1435  0.6259
  127CHL1   C1815611   1.591   1.707   5.391  0.2072 -0.1604  0.5247
  127CHL1  H18A15612   1.506   1.663   5.447  0.1655 -0.3943  0.2805
  127CHL1  H18B15613   1.596   1.667   5.287 -0.5945 -0.2749  0.5207
  127CHL1  H18C15614   1.689   1.671   5.430  1.0547  0.8628 -0.5920
  127CHL1   C1215615   1.445   1.903   5.333  0.1905 -0.3702  0.3785
  127CHL1  H12A15616   1.361   1.848   5.382 -1.1330  1.4355  0.2146
  127CHL1  H12B15617   1.443   2.010   5.359  2.5047 -0.5802  1.6472
  127CHL1   C1115618   1.437   1.877   5.180 -0.5304  0.1434 -0.5893
  127CHL1  H11A15619   1.415   1.769   5.174 -2.3448  0.5017 -1.0318
  127CHL1  H11B15620   1.355   1.941   5.140  0.4035  1.2041 -0.8593
  127CHL1    C915621   1.565   1.926   5.104  0.2532  0.0008  0.2815
  127CHL1    H915622   1.556   2.036   5.110 -1.1411 -0.0704  0.0213
  127CHL1   C1015623   1.561   1.890   4.955 -0.4321  0.4649  0.0073
  127CHL1   C1915624   1.522   1.741   4.932 -0.1840  0.0209  0.0993
  127CHL1  H19A15625   1.526   1.707   4.826 -0.8810  1.4269 -0.3973
  127CHL1  H19B15626   1.589   1.677   4.993  0.9823  1.1077  0.0003
  127CHL1  H19C15627   1.418   1.718   4.965  0.4105 -2.8919  0.2658
  127CHL1    C115628   1.457   1.978   4.891  0.9515 -0.1935  0.1325
  127CHL1   H1A15629   1.353   1.952   4.919  0.5646 -0.2246 -1.2656
  127CHL1   H1B15630   1.477   2.086   4.906  0.9754 -0.2539  0.5533
  127CHL1    C215631   1.453   1.968   4.731  0.4326 -0.4873 -0.3962
  127CHL1   H2A15632   1.387   2.049   4.694 -0.0571  0.4354  2.2977
  127CHL1   H2B15633   1.427   1.867   4.692  0.6423 -0.5807 -0.2968
  127CHL1   C2015634   1.569   1.858   5.647 -0.3296 -0.2693  0.0065
  127CHL1   H2015635   1.626   1.766   5.673  0.2251  0.0434 -0.0885
  127CHL1   C2115636   1.423   1.840   5.647 -0.0540 -0.1012  0.6398
  127CHL1  H21A15637   1.384   1.797   5.741 -1.7872  2.2532  1.0834
  127CHL1  H21B15638   1.394   1.773   5.563  0.2035  0.9894 -0.3503
  127CHL1  H21C15639   1.363   1.932   5.629 -0.9351 -1.0197 -1.4877
  127CHL1   C2215640   1.614   1.941   5.771  0.3606  0.0287  0.5553
  127CHL1  H22A15641   1.720   1.973   5.760  0.1511  0.4885 -0.1725
  127CHL1  H22B15642   1.545   2.027   5.776 -0.4788 -0.4011 -2.2309
  127CHL1   C2315643   1.592   1.875   5.903  0.2351 -0.5447 -0.4450
  127CHL1  H23A15644   1.483   1.856   5.912 -0.3942  1.8799 -1.9066
  127CHL1  H23B15645   1.646   1.779   5.911  1.5703  0.2016 -0.1768
  127CHL1   C2415646   1.621   1.969   6.021  0.2882 -0.1004 -0.1093
  127CHL1  H24A15647   1.728   1.998   6.028 -0.0472  1.2402 -0.4496
  127CHL1  H24B15648   1.559   2.061   6.026  0.6080  0.0507  2.8922
  127CHL1   C2515649   1.601   1.899   6.161  0.3389  0.1536 -0.1514
  127CHL1   H2515650   1.680   1.822   6.173  0.8778  0.6370 -0.5386
  127CHL1   C2615651   1.622   2.013   6.266  0.4250  0.1736 -0.0522
  127CHL1  H26A15652   1.587   1.983   6.367 -1.8635  3.7133  0.3743
  127CHL1  H26B15653   1.728   2.045   6.282  0.5216 -1.0542  2.2022
  127CHL1  H26C15654   1.565   2.104   6.240  0.6277  0.8740  1.7992
  127CHL1   C2715655   1.462   1.831   6.173  0.8464  1.0470  1.0773
  127CHL1  H27A15656   1.381   1.897   6.133  1.6705 -0.3266 -3.4667
  127CHL1  H27B15657   1.458   1.741   6.108  0.1031  2.1847 -0.5175
  127CHL1  H27C15658   1.450   1.784   6.272  0.2617  0.7231  0.8596
  128CHL1    C315659   0.644   6.115   5.226 -0.5717  0.6033 -0.5094
  128CHL1    H315660   0.752   6.141   5.219 -0.8249  1.4163 -1.4341
  128CHL1    O315661   0.603   6.065   5.094  0.1372 -0.1933  0.1052
  128CHL1   H3'15662   0.509   6.047   5.098 -0.2048  1.0836 -1.1440
  128CHL1    C415663   0.633   5.998   5.326 -0.8080 -0.1369 -0.1541
  128CHL1   H4A15664   0.541   5.944   5.293  0.6889 -2.6321 -0.5286
  128CHL1   H4B15665   0.709   5.919   5.308 -0.4657  0.8426 -3.7694
  128CHL1    C515666   0.627   6.039   5.472  0.1688 -0.6372 -0.0450
  128CHL1    C615667   0.701   5.970   5.568  0.0602  0.1278 -0.2974
  128CHL1    H615668   0.768   5.890   5.536 -2.0394 -2.2290  0.8641
  128CHL1    C715669   0.692   5.995   5.711  0.5121 -0.8981 -0.2267
  128CHL1   H7A15670   0.662   5.898   5.756 -0.5328 -0.3777  0.2324
  128CHL1   H7B15671   0.793   6.014   5.755  0.8761  1.0071 -1.7508
  128CHL1    C815672   0.592   6.105   5.755  0.3619 -0.2346  0.4590
  128CHL1    H815673   0.499   6.046   5.769  0.2186 -0.7040 -2.0320
  128CHL1   C1415674   0.637   6.161   5.885  0.3682 -0.2338  0.6088
  128CHL1   H1415675   0.724   6.226   5.862 -0.8856  1.1614 -0.3844
  128CHL1   C1515676   0.667   6.059   5.990  0.4041 -0.2710  0.7805
  128CHL1  H15A15677   0.580   5.991   5.994 -1.6214  2.2143  1.3927
  128CHL1  H15B15678   0.765   6.006   5.978  1.3746  1.4175  1.0027
  128CHL1   C1615679   0.649   6.134   6.122 -0.0630  0.1205  0.4848
  128CHL1  H16A15680   0.566   6.082   6.173  1.1516 -2.4678 -0.0200
  128CHL1  H16B15681   0.739   6.135   6.188 -0.1695  1.2569  0.6292
  128CHL1   C1715682   0.595   6.276   6.083  0.0038 -0.2648  0.2196
  128CHL1   H1715683   0.687   6.335   6.061 -0.4780  0.5313  0.3052
  128CHL1   C1315684   0.525   6.256   5.942 -0.4352  0.3973 -0.0969
  128CHL1   C1815685   0.388   6.190   5.955  0.9776  0.2868  0.4183
  128CHL1  H18A15686   0.349   6.152   5.858  0.2881  1.3268  0.2571
  128CHL1  H18B15687   0.395   6.102   6.022 -0.9513  0.6254  1.1407
  128CHL1  H18C15688   0.312   6.258   6.001  2.0199  1.6661  0.1846
  128CHL1   C1215689   0.511   6.379   5.851 -0.5922 -0.6148  0.3810
  128CHL1  H12A15690   0.435   6.452   5.885  3.7181  3.5998  1.9774
  128CHL1  H12B15691   0.599   6.445   5.846 -1.6862  0.8572 -0.3082
  128CHL1   C1115692   0.489   6.343   5.694  0.3024 -0.7012 -0.1747
  128CHL1  H11A15693   0.380   6.323   5.684  0.3185 -0.2922 -1.2638
  128CHL1  H11B15694   0.507   6.427   5.625  0.5094  1.4605  2.3393
  128CHL1    C915695   0.577   6.220   5.647  0.2352 -0.1342 -0.6741
  128CHL1    H915696   0.680   6.262   5.645  0.5191 -0.6992  0.7289
  128CHL1   C1015697   0.541   6.163   5.510 -0.4841  0.9009  0.2727
  128CHL1   C1915698   0.398   6.114   5.514 -0.7182  0.1072 -0.4814
  128CHL1  H19A15699   0.382   6.050   5.603  0.5296 -1.6022 -1.4285
  128CHL1  H19B15700   0.338   6.207   5.514  0.5522  0.9438 -0.2256
  128CHL1  H19C15701   0.372   6.059   5.421  1.7590 -0.3438 -0.9748
  128CHL1    C115702   0.558   6.277   5.405 -1.0830  0.5078 -0.3736
  128CHL1   H1A15703   0.480   6.353   5.426 -1.4672 -0.3648  1.6275
  128CHL1   H1B15704   0.663   6.304   5.428 -0.1236 -2.7617 -0.3545
  128CHL1    C215705   0.548   6.230   5.260 -0.0934  0.4258 -0.5090
  128CHL1   H2A15706   0.569   6.317   5.195  1.3151 -1.4304 -2.6837
  128CHL1   H2B15707   0.445   6.195   5.238 -0.7177  0.8209  1.5056
  128CHL1   C2015708   0.504   6.340   6.190 -0.7293 -0.1907  0.2202
  128CHL1   H2015709   0.404   6.294   6.200 -1.3057  1.3554  2.3305
  128CHL1   C2115710   0.487   6.491   6.168  0.7164 -0.2232 -0.1122
  128CHL1  H21A15711   0.453   6.532   6.070  3.1718  3.4498  0.3759
  128CHL1  H21B15712   0.583   6.544   6.187  0.0940  2.0546 -2.5536
  128CHL1  H21C15713   0.417   6.527   6.246 -0.0022  1.0219 -1.2836
  128CHL1   C2215714   0.563   6.327   6.333  0.1498  0.1455  0.2667
  128CHL1  H22A15715   0.611   6.227   6.341  0.3538  0.2018 -0.2014
  128CHL1  H22B15716   0.649   6.397   6.338  1.5720 -1.5682  1.0195
  128CHL1   C2315717   0.470   6.358   6.446 -0.0206 -0.4626 -0.6426
  128CHL1  H23A15718   0.449   6.467   6.454 -0.9791 -0.4860 -2.2597
  128CHL1  H23B15719   0.370   6.309   6.443 -0.9977  0.9822  3.0236
  128CHL1   C2415720   0.523   6.308   6.587 -0.7008 -0.1415  0.3619
  128CHL1  H24A15721   0.564   6.206   6.574 -2.5910 -1.4530  3.5856
  128CHL1  H24B15722   0.593   6.379   6.636 -0.2843  1.2142 -2.0779
  128CHL1   C2515723   0.410   6.284   6.697 -0.7085  0.3510  0.2417
  128CHL1   H2515724   0.332   6.221   6.648 -0.7786  1.3167 -0.9192
  128CHL1   C2615725   0.472   6.218   6.820 -0.2971 -0.4175  0.5630
  128CHL1  H26A15726   0.398   6.179   6.893 -0.2788  0.2574  0.9561
  128CHL1  H26B15727   0.528   6.131   6.780 -1.7910 -1.7830  1.3136
  128CHL1  H26C15728   0.547   6.292   6.856 -1.1336 -0.4180  2.3820
  128CHL1   C2715729   0.350   6.423   6.729 -0.2152  0.4519 -0.0610
  128CHL1  H27A15730   0.275   6.407   6.810 -1.6612 -0.6744 -1.5560
  128CHL1  H27B15731   0.431   6.491   6.761  0.5298 -0.9513  1.1731
  128CHL1  H27C15732   0.294   6.462   6.642  1.9691  4.0054 -0.0708
  129CHL1    C315733   5.424   1.843   4.823  0.8995 -0.4841  0.2895
  129CHL1    H315734   5.520   1.802   4.786  0.4765 -0.9952 -0.2805
  129CHL1    O315735   5.356   1.887   4.702  0.1954  0.2702 -0.2368
  129CHL1   H3'15736   5.275   1.920   4.740 -0.4427 -1.3158 -0.1576
  129CHL1    C415737   5.325   1.753   4.900  0.6843  0.3471  0.4781
  129CHL1   H4A15738   5.226   1.803   4.908 -0.3033 -1.3734 -0.3874
  129CHL1   H4B15739   5.304   1.661   4.841  1.6343 -0.7817  1.8376
  129CHL1    C515740   5.372   1.716   5.043 -0.6206 -0.6278 -0.6014
  129CHL1    C615741   5.385   1.587   5.080  0.7444  0.8924 -0.2483
  129CHL1    H615742   5.363   1.511   5.003 -0.3546  0.1839  0.7282
  129CHL1    C715743   5.435   1.537   5.215 -0.6291 -0.7608 -0.2261
  129CHL1   H7A15744   5.386   1.445   5.252 -0.6694 -0.3159  0.8621
  129CHL1   H7B15745   5.544   1.517   5.213 -0.8407 -2.6964  2.4271
  129CHL1    C815746   5.423   1.653   5.320  0.0775 -0.0727  0.5938
  129CHL1    H815747   5.314   1.664   5.339 -0.0107 -1.0329  0.7305
  129CHL1   C1415748   5.492   1.603   5.444  0.5990 -0.2822  0.0627
  129CHL1   H1415749   5.598   1.584   5.418  0.1084  0.1032 -2.5243
  129CHL1   C1515750   5.443   1.469   5.505 -0.0067  0.2432  0.4102
  129CHL1  H15A15751   5.333   1.474   5.516 -0.1482 -1.2800 -0.1841
  129CHL1  H15B15752   5.473   1.380   5.446 -1.2253  2.3045 -3.7043
  129CHL1   C1615753   5.505   1.475   5.646  0.0192 -0.2279 -0.1047
  129CHL1  H16A15754   5.431   1.425   5.713 -0.1374 -0.5283 -0.5002
  129CHL1  H16B15755   5.594   1.412   5.662  0.0796  0.1600  1.2510
  129CHL1   C1715756   5.541   1.623   5.676 -0.0743 -0.5516  0.1925
  129CHL1   H1715757   5.649   1.630   5.653 -0.4829 -1.9711 -2.5147
  129CHL1   C1315758   5.487   1.703   5.556  0.1054 -0.6699 -0.1871
  129CHL1   C1815759   5.342   1.753   5.596  0.3945 -0.0636  0.5041
  129CHL1  H18A15760   5.356   1.836   5.668 -0.3270  0.6369 -0.1481
  129CHL1  H18B15761   5.291   1.797   5.508 -1.1769  0.7380  1.7649
  129CHL1  H18C15762   5.289   1.668   5.644  0.5866  0.0100  0.8509
  129CHL1   C1215763   5.573   1.822   5.502 -0.6322 -0.5124  0.7362
  129CHL1  H12A15764   5.585   1.902   5.578  1.5242 -0.1161  0.0543
  129CHL1  H12B15765   5.679   1.791   5.489 -1.5559 -3.1829 -1.1548
  129CHL1   C1115766   5.508   1.892   5.378 -0.3782 -0.5358  0.0188
  129CHL1  H11A15767   5.413   1.940   5.408 -0.4418  0.6682 -1.8885
  129CHL1  H11B15768   5.579   1.971   5.344  1.0054 -1.6937  0.1039
  129CHL1    C915769   5.484   1.788   5.265  0.2656  0.4814  0.0074
  129CHL1    H915770   5.588   1.762   5.238  0.0135 -0.6303  0.0413
  129CHL1   C1015771   5.413   1.831   5.131  0.5578 -0.7031  0.3613
  129CHL1   C1915772   5.289   1.916   5.181 -0.2822  0.3547 -0.0352
  129CHL1  H19A15773   5.225   1.856   5.249 -0.1812  1.2563  0.8973
  129CHL1  H19B15774   5.329   2.010   5.226  1.2038 -0.4531  0.3746
  129CHL1  H19C15775   5.230   1.954   5.095  0.5660 -1.6407 -1.5469
  129CHL1    C115776   5.504   1.921   5.047 -0.4889 -0.1189 -0.5520
  129CHL1   H1A15777   5.525   2.014   5.105 -0.8058 -1.1942  1.3928
  129CHL1   H1B15778   5.597   1.862   5.037  2.2800  3.6879  0.3280
  129CHL1    C215779   5.450   1.962   4.908 -0.5440  0.3221  0.5658
  129CHL1   H2A15780   5.527   2.026   4.862 -2.2996  0.9977 -1.6265
  129CHL1   H2B15781   5.357   2.021   4.921 -3.1057 -3.1751 -0.1703
  129CHL1   C2015782   5.516   1.680   5.824 -0.1279 -0.0973  0.3689
  129CHL1   H2015783   5.410   1.680   5.856 -0.0032  1.7899  0.8821
  129CHL1   C2115784   5.575   1.826   5.831 -1.3088 -0.4529 -0.6610
  129CHL1  H21A15785   5.682   1.833   5.805 -1.5370  2.5488 -1.0780
  129CHL1  H21B15786   5.563   1.856   5.937 -2.6329  0.2247 -0.9768
  129CHL1  H21C15787   5.518   1.903   5.775 -2.2458  0.5936  1.5858
  129CHL1   C2215788   5.577   1.585   5.932 -0.0340 -0.6359  1.2285
  129CHL1  H22A15789   5.557   1.478   5.909  1.9164 -0.8277  0.1966
  129CHL1  H22B15790   5.687   1.602   5.941 -0.0675 -0.4848  1.3468
  129CHL1   C2315791   5.516   1.609   6.074 -0.5077 -0.1328  0.3202
  129CHL1  H23A15792   5.510   1.719   6.079  2.3609  0.2058 -1.6544
  129CHL1  H23B15793   5.417   1.558   6.078 -0.9508  0.6033 -0.9802
  129CHL1   C2415794   5.611   1.553   6.181 -1.0536 -0.2840 -0.4855
  129CHL1  H24A15795   5.637   1.450   6.147 -0.2640  0.1395 -1.2124
  129CHL1  H24B15796   5.705   1.613   6.182 -0.1400 -1.6121  1.5454
  129CHL1   C2515797   5.544   1.527   6.318  0.1547 -0.3114 -0.2080
  129CHL1   H2515798   5.447   1.477   6.295  0.0863 -0.4797  0.4313
  129CHL1   C2615799   5.626   1.421   6.393  0.6365  0.4772  0.0057
  129CHL1  H26A15800   5.567   1.368   6.470  0.9734 -0.8191 -0.5989
  129CHL1  H26B15801   5.662   1.345   6.321 -1.0496  0.5496 -0.9718
  129CHL1  H26C15802   5.719   1.469   6.430  1.0589  0.5471 -1.1045
  129CHL1   C2715803   5.522   1.654   6.407 -0.5567  0.4706 -0.4228
  129CHL1  H27A15804   5.459   1.628   6.494  1.0423 -0.8699  0.3856
  129CHL1  H27B15805   5.622   1.691   6.438 -0.1667 -0.2121 -0.8398
  129CHL1  H27C15806   5.465   1.723   6.341 -0.5284  1.1141  0.2136
  130CHL1    C315807   1.943   2.404   4.438 -0.4822 -0.0017  0.0476
  130CHL1    H315808   1.845   2.443   4.473 -0.7136 -0.8865  0.4209
  130CHL1    O315809   1.950   2.392   4.295  0.0722  0.4927  0.7263
  130CHL1   H3'15810   1.897   2.462   4.256  0.1844 -0.6234 -1.5621
  130CHL1    C415811   2.052   2.497   4.490  0.1274  0.1651 -0.3546
  130CHL1   H4A15812   2.146   2.473   4.436 -0.9517 -1.8056 -1.4943
  130CHL1   H4B15813   2.039   2.596   4.442  0.3453 -0.5368 -1.9509
  130CHL1    C515814   2.057   2.500   4.641  0.0695 -0.2777  0.6025
  130CHL1    C615815   2.046   2.614   4.717  0.1405  0.2551 -0.4791
  130CHL1    H615816   2.026   2.710   4.667 -0.9056 -0.0836 -0.7256
  130CHL1    C715817   2.048   2.615   4.867  0.1037 -0.8726  0.5053
  130CHL1   H7A15818   2.088   2.709   4.912 -0.2491  0.8529 -2.5146
  130CHL1   H7B15819   1.941   2.622   4.892  0.1331  2.2683  0.1181
  130CHL1    C815820   2.111   2.484   4.935  0.1969 -0.8734  0.4106
  130CHL1    H815821   2.219   2.501   4.913  0.2444 -1.0843  0.4797
  130CHL1   C1415822   2.090   2.473   5.080  0.1195 -0.0227 -0.1065
  130CHL1   H1415823   1.981   2.460   5.099  0.3080  0.2010  1.2115
  130CHL1   C1515824   2.128   2.600   5.168 -0.2695 -0.2544  0.1108
  130CHL1  H15A15825   2.226   2.638   5.131 -0.9895 -1.4297 -3.4356
  130CHL1  H15B15826   2.057   2.684   5.159  3.1541  3.0790  1.6523
  130CHL1   C1615827   2.137   2.546   5.314 -0.4264  0.1674 -0.0986
  130CHL1  H16A15828   2.237   2.570   5.357 -0.5601  3.4405 -1.3697
  130CHL1  H16B15829   2.062   2.597   5.377 -0.6774 -0.1374 -0.1465
  130CHL1   C1715830   2.114   2.389   5.298  0.3865 -0.0771 -0.1492
  130CHL1   H1715831   2.005   2.369   5.306  0.8803 -2.5870  1.4158
  130CHL1   C1315832   2.154   2.354   5.149  0.4813 -0.0456 -0.4689
  130CHL1   C1815833   2.304   2.337   5.123  0.2282 -0.3418 -0.1653
  130CHL1  H18A15834   2.360   2.421   5.169  0.8193  0.2877 -1.9371
  130CHL1  H18B15835   2.345   2.244   5.169  1.3387 -0.2315 -0.8785
  130CHL1  H18C15836   2.325   2.348   5.014 -0.4845  1.7291 -0.1320
  130CHL1   C1215837   2.087   2.235   5.085  0.6604  0.5800 -0.4686
  130CHL1  H12A15838   2.133   2.141   5.122 -0.2614 -0.2402 -1.3508
  130CHL1  H12B15839   1.979   2.225   5.108  0.4082  1.4251 -1.2125
  130CHL1   C1115840   2.087   2.227   4.930  0.3084 -0.2806  0.4283
  130CHL1  H11A15841   2.187   2.194   4.896  0.4570  0.0824  0.5020
  130CHL1  H11B15842   2.026   2.142   4.894 -0.9894  0.6036  0.4764
  130CHL1    C915843   2.054   2.358   4.863  0.1367 -0.1930 -0.1233
  130CHL1    H915844   1.945   2.374   4.879 -0.3847 -1.0106 -2.5035
  130CHL1   C1015845   2.072   2.360   4.704  0.7839 -0.2789 -0.0469
  130CHL1   C1915846   2.221   2.314   4.676 -0.5684  0.6053 -0.7690
  130CHL1  H19A15847   2.236   2.207   4.701 -1.0862  0.6825 -0.0797
  130CHL1  H19B15848   2.233   2.323   4.566 -1.3962 -2.1658 -1.1759
  130CHL1  H19C15849   2.299   2.370   4.732 -0.9002  2.2116 -1.8677
  130CHL1    C115850   1.975   2.250   4.639  0.6372  0.5425 -0.2079
  130CHL1   H1A15851   2.006   2.149   4.672  2.8616  1.5321  0.9256
  130CHL1   H1B15852   1.873   2.263   4.681 -1.0256 -1.2436 -3.3042
  130CHL1    C215853   1.964   2.259   4.486 -0.5118 -0.6959  0.7144
  130CHL1   H2A15854   1.875   2.204   4.450 -1.0412 -0.3076  1.4151
  130CHL1   H2B15855   2.052   2.215   4.434 -0.1718 -1.8315  2.1759
  130CHL1   C2015856   2.178   2.311   5.419 -0.0652  0.1274  0.1247
  130CHL1   H2015857   2.285   2.340   5.423 -0.0083 -0.1858  1.1700
  130CHL1   C2115858   2.160   2.160   5.392 -1.0188  0.7115  0.0303
  130CHL1  H21A15859   2.051   2.142   5.375 -0.9023  0.8739 -0.9592
  130CHL1  H21B15860   2.203   2.100   5.475 -2.0049 -2.6689 -1.7200
  130CHL1  H21C15861   2.229   2.138   5.308  0.6979  1.3646  1.2075
  130CHL1   C2215862   2.106   2.345   5.544 -0.4709 -0.1659  0.1812
  130CHL1  H22A15863   2.107   2.456   5.549  0.5277 -0.2063  1.1255
  130CHL1  H22B15864   2.000   2.313   5.536 -0.3614 -1.3108  2.5457
  130CHL1   C2315865   2.146   2.274   5.673 -0.0854 -0.1310 -0.5883
  130CHL1  H23A15866   2.085   2.310   5.759  0.4285  0.2074 -0.3555
  130CHL1  H23B15867   2.127   2.165   5.666  2.2413 -0.5433 -1.3911
  130CHL1   C2415868   2.295   2.299   5.711  0.0156 -0.4442 -0.8071
  130CHL1  H24A15869   2.358   2.260   5.628  1.4802  1.4914 -0.6747
  130CHL1  H24B15870   2.318   2.407   5.705  1.4004 -0.7285 -1.0319
  130CHL1   C2515871   2.323   2.245   5.852  0.2834 -0.0288  0.2118
  130CHL1   H2515872   2.235   2.258   5.919 -0.2781 -2.1349 -0.0164
  130CHL1   C2615873   2.342   2.095   5.832 -0.0914  0.3944  0.2240
  130CHL1  H26A15874   2.252   2.039   5.799  0.2321 -0.4518  0.7460
  130CHL1  H26B15875   2.426   2.085   5.760 -1.2994  0.5352 -1.2603
  130CHL1  H26C15876   2.367   2.047   5.929 -1.3384  1.5789  1.1739
  130CHL1   C2715877   2.454   2.313   5.908  0.3524 -0.1479 -0.0906
  130CHL1  H27A15878   2.537   2.291   5.838  0.5022  1.8934 -0.6464
  130CHL1  H27B15879   2.438   2.423   5.921  0.9416 -0.0926  0.1836
  130CHL1  H27C15880   2.466   2.261   6.005 -0.7538 -1.0294 -0.4117
  131CHL1    C315881   1.819   1.003   4.803  0.2866 -0.1148  0.0992
  131CHL1    H315882   1.868   1.102   4.806 -0.8309  0.5166 -1.2295
  131CHL1    O315883   1.797   0.966   4.670 -0.2554  0.3857  0.5368
  131CHL1   H3'15884   1.708   0.994   4.647 -0.0491 -0.5697 -1.7710
  131CHL1    C415885   1.897   0.887   4.863 -0.3864 -0.8013 -0.0490
  131CHL1   H4A15886   1.837   0.796   4.840 -0.0486 -1.2667  0.8507
  131CHL1   H4B15887   1.993   0.877   4.808  1.2339 -1.4582  2.6613
  131CHL1    C515888   1.929   0.903   5.011 -0.2144 -0.2539  1.1959
  131CHL1    C615889   2.053   0.896   5.052  0.2491 -0.6422  0.3991
  131CHL1    H615890   2.143   0.875   4.993  2.5930 -0.8545  3.8051
  131CHL1    C715891   2.081   0.932   5.198 -0.4000 -0.3051  0.2058
  131CHL1   H7A15892   2.159   0.865   5.240 -1.5031 -2.8762 -1.5823
  131CHL1   H7B15893   2.115   1.035   5.220  0.6301 -0.2328 -1.5073
  131CHL1    C815894   1.958   0.912   5.290 -0.2223  0.1106 -0.0044
  131CHL1    H815895   1.937   0.803   5.291 -1.4934  0.3176 -1.5302
  131CHL1   C1415896   1.979   0.976   5.427  0.1886  0.1499  0.4579
  131CHL1   H1415897   1.987   1.086   5.417 -0.8908  0.6371  3.7318
  131CHL1   C1515898   2.109   0.935   5.500  0.1869  0.5367 -0.5671
  131CHL1  H15A15899   2.139   0.830   5.518 -0.3105  0.5715  0.5623
  131CHL1  H15B15900   2.197   0.979   5.448  2.5670 -2.0502  1.0177
  131CHL1   C1615901   2.087   0.990   5.649  0.6090  0.1020  0.5516
  131CHL1  H16A15902   2.124   0.927   5.732 -1.0000  0.2196  1.4095
  131CHL1  H16B15903   2.124   1.094   5.663  0.4529  0.1128  0.9001
  131CHL1   C1715904   1.934   1.003   5.664  0.1011  0.0307 -0.4381
  131CHL1   H1715905   1.913   1.111   5.656  0.0732  0.0675  0.0766
  131CHL1   C1315906   1.878   0.945   5.536  0.2165 -0.4131 -0.3674
  131CHL1   C1815907   1.854   0.792   5.548 -0.0922  0.2219  0.3292
  131CHL1  H18A15908   1.850   0.744   5.448  2.2787  0.5228  0.0261
  131CHL1  H18B15909   1.940   0.749   5.604  0.0842  0.3283  0.1397
  131CHL1  H18C15910   1.757   0.774   5.599  0.2197 -1.7965  0.2780
  131CHL1   C1215911   1.741   1.013   5.486  0.0831  0.0393  0.4964
  131CHL1  H12A15912   1.667   0.966   5.554 -0.6230  1.2476  0.5922
  131CHL1  H12B15913   1.737   1.123   5.501 -4.3965 -0.0798  1.6092
  131CHL1   C1115914   1.708   0.964   5.343 -0.4452 -0.5804  0.0643
  131CHL1  H11A15915   1.686   0.855   5.352  0.6853 -0.8444 -0.3129
  131CHL1  H11B15916   1.613   1.009   5.305  0.5972  1.9002  0.2101
  131CHL1    C915917   1.828   0.975   5.238  0.1737 -0.1720 -0.9626
  131CHL1    H915918   1.857   1.083   5.232  2.3213 -0.6255  0.1661
  131CHL1   C1015919   1.804   0.929   5.091  0.7564  0.7594 -0.1379
  131CHL1   C1915920   1.723   0.797   5.101 -0.1227  0.4119  0.2425
  131CHL1  H19A15921   1.689   0.775   4.998  0.4877  0.7922 -0.0417
  131CHL1  H19B15922   1.795   0.714   5.121 -1.0363 -0.4789 -0.0702
  131CHL1  H19C15923   1.637   0.784   5.171  0.0843 -1.3249  0.2158
  131CHL1    C115924   1.722   1.042   5.027  0.4987 -0.2549  0.1644
  131CHL1   H1A15925   1.623   1.040   5.078  0.7515  0.3714  0.7105
  131CHL1   H1B15926   1.780   1.135   5.046  2.6296 -1.9457  2.7798
  131CHL1    C215927   1.688   1.013   4.884  0.0614 -0.8965  0.3829
  131CHL1   H2A15928   1.632   1.102   4.848  0.7715  0.0858  1.6331
  131CHL1   H2B15929   1.626   0.924   4.861  0.1430 -0.3840 -2.0852
  131CHL1   C2015930   1.877   0.953   5.801  0.0180 -0.2352 -0.4669
  131CHL1   H2015931   1.876   0.842   5.806 -2.6795 -0.1961  2.8330
  131CHL1   C2115932   1.733   1.012   5.814 -0.4097  0.0722  0.2037
  131CHL1  H21A15933   1.693   0.981   5.913 -1.2055 -1.8914 -0.6918
  131CHL1  H21B15934   1.660   0.974   5.739  1.0161 -0.1373 -1.1312
  131CHL1  H21C15935   1.740   1.123   5.817 -0.9479  0.1738 -1.2867
  131CHL1   C2215936   1.960   1.000   5.916 -0.6103  0.4102  0.4674
  131CHL1  H22A15937   1.898   0.969   6.003 -1.8453 -1.3805 -0.9507
  131CHL1  H22B15938   2.044   0.928   5.925 -0.0041  1.2357  1.5424
  131CHL1   C2315939   2.008   1.147   5.934 -0.0104  0.5238  0.5359
  131CHL1  H23A15940   2.068   1.178   5.845  0.7163 -2.4601 -0.1513
  131CHL1  H23B15941   1.926   1.221   5.945 -1.0141 -0.3417 -0.7907
  131CHL1   C2415942   2.104   1.167   6.054 -0.2742  0.0629  0.3660
  131CHL1  H24A15943   2.083   1.097   6.138 -0.2304 -0.1610  0.1905
  131CHL1  H24B15944   2.205   1.139   6.019 -0.5281  0.7375 -0.9708
  131CHL1   C2515945   2.093   1.316   6.097 -0.2684 -0.2423 -0.3722
  131CHL1   H2515946   1.987   1.344   6.118  0.0169  1.0424 -0.5227
  131CHL1   C2615947   2.181   1.342   6.220  0.0359  0.0799 -0.2561
  131CHL1  H26A15948   2.193   1.450   6.244 -0.3156  0.0872 -0.1088
  131CHL1  H26B15949   2.137   1.306   6.316 -1.6809 -1.2369 -1.4673
  131CHL1  H26C15950   2.280   1.295   6.199  1.0720  1.9991  0.1295
  131CHL1   C2715951   2.152   1.411   5.987  0.9771 -0.1776  0.6297
  131CHL1  H27A15952   2.250   1.370   5.955  0.9553 -1.1183  1.7221
  131CHL1  H27B15953   2.080   1.402   5.903 -0.2762 -0.2252  1.6805
  131CHL1  H27C15954   2.155   1.521   6.004  2.8369 -0.2337  0.8841
  132CHL1    C315955   2.986   2.519   4.467  0.2720 -0.1929 -0.0103
  132CHL1    H315956   2.983   2.630   4.479  0.0222 -0.2342  0.3086
  132CHL1    O315957   2.950   2.497   4.334 -0.7744 -0.0981  0.1687
  132CHL1   H3'15958   3.030   2.491   4.281 -0.0302  0.3172  1.2112
  132CHL1    C415959   3.119   2.465   4.495  0.0572 -0.4449 -0.8081
  132CHL1   H4A15960   3.129   2.366   4.447 -1.3436 -1.1247  0.2196
  132CHL1   H4B15961   3.190   2.525   4.434 -2.1581  2.3811 -0.8557
  132CHL1    C515962   3.157   2.465   4.644 -0.3131  0.5580 -1.1148
  132CHL1    C615963   3.265   2.535   4.684  0.3028  0.1360  0.9317
  132CHL1    H615964   3.327   2.579   4.604 -2.2468  0.1371 -1.1850
  132CHL1    C715965   3.303   2.544   4.830  0.7239  0.0987 -1.0977
  132CHL1   H7A15966   3.413   2.548   4.844  0.6242 -2.3770  0.9520
  132CHL1   H7B15967   3.264   2.636   4.880  0.3064  0.0130 -1.2616
  132CHL1    C815968   3.252   2.430   4.914  0.4788 -0.2041 -0.1595
  132CHL1    H815969   3.286   2.331   4.879 -3.0193 -1.2133 -1.1466
  132CHL1   C1415970   3.279   2.440   5.060 -0.6187 -0.0589 -0.1796
  132CHL1   H1415971   3.225   2.529   5.097 -0.2528 -0.0985  0.4736
  132CHL1   C1515972   3.432   2.448   5.094  0.9671  0.1395  0.1590
  132CHL1  H15A15973   3.485   2.368   5.038 -1.8423 -1.7634 -0.0133
  132CHL1  H15B15974   3.473   2.548   5.072  0.2981  0.4460  0.2668
  132CHL1   C1615975   3.437   2.415   5.243  0.6123 -0.2184  0.0605
  132CHL1  H16A15976   3.497   2.322   5.253 -0.4419 -0.8971  0.1925
  132CHL1  H16B15977   3.468   2.500   5.307 -2.5532 -0.5306  2.2276
  132CHL1   C1715978   3.286   2.382   5.287  0.1087 -0.4815  0.0519
  132CHL1   H1715979   3.241   2.475   5.327  0.7595 -0.0762 -0.1397
  132CHL1   C1315980   3.214   2.336   5.154  0.1533  0.1891 -0.0487
  132CHL1   C1815981   3.252   2.190   5.128  0.4344 -0.5712 -0.1707
  132CHL1  H18A15982   3.226   2.160   5.024  2.4650 -1.0752 -0.5721
  132CHL1  H18B15983   3.362   2.185   5.132  0.6080  2.2449  0.3886
  132CHL1  H18C15984   3.206   2.118   5.199  1.7066 -0.9970  0.2388
  132CHL1   C1215985   3.058   2.362   5.143 -1.0059 -0.1434 -0.7688
  132CHL1  H12A15986   3.000   2.279   5.190 -0.7260 -1.2268 -2.2615
  132CHL1  H12B15987   3.036   2.457   5.197  1.1057 -0.1041  0.0851
  132CHL1   C1115988   3.016   2.353   4.996  0.2809 -0.0697  1.3385
  132CHL1  H11A15989   3.005   2.246   4.968  0.5280  0.1269  0.4419
  132CHL1  H11B15990   2.910   2.387   4.994 -0.3664 -1.9840  1.2646
  132CHL1    C915991   3.101   2.431   4.890  0.5087 -0.0795  0.0403
  132CHL1    H915992   3.076   2.539   4.900  2.4691  0.3450  0.7985
  132CHL1   C1015993   3.055   2.397   4.742 -0.4188 -0.0261 -0.6790
  132CHL1   C1915994   3.050   2.240   4.731  0.3184  0.1904 -0.0697
  132CHL1  H19A15995   3.137   2.203   4.789  0.4436  0.1494 -0.2858
  132CHL1  H19B15996   2.958   2.195   4.776  1.8339 -3.3665 -0.2144
  132CHL1  H19C15997   3.049   2.213   4.624  0.4462  1.0108 -0.2847
  132CHL1    C115998   2.914   2.464   4.706 -0.2138 -0.3852 -0.3346
  132CHL1   H1A15999   2.834   2.407   4.758 -0.4787 -1.9399 -2.3280
  132CHL1   H1B16000   2.903   2.566   4.748 -1.1538 -0.4491 -0.4025
  132CHL1    C216001   2.880   2.462   4.557 -0.8472  0.7153  0.4415
  132CHL1   H2A16002   2.791   2.528   4.544 -0.4385  1.1471 -0.2382
  132CHL1   H2B16003   2.869   2.353   4.542  0.7167  0.3677  1.5841
  132CHL1   C2016004   3.265   2.292   5.410  0.0151 -0.2161 -0.4221
  132CHL1   H2016005   3.302   2.187   5.401  0.7293  0.0599 -0.7466
  132CHL1   C2116006   3.113   2.288   5.445 -0.0559  0.2656  0.0972
  132CHL1  H21A16007   3.099   2.246   5.547  0.1859  1.3195  0.5756
  132CHL1  H21B16008   3.066   2.208   5.383  0.6010  0.9753 -1.3802
  132CHL1  H21C16009   3.060   2.385   5.434  0.6150  0.7182  0.7863
  132CHL1   C2216010   3.334   2.365   5.531 -0.0107  0.9210 -0.5658
  132CHL1  H22A16011   3.440   2.382   5.501  0.5103 -1.9706 -0.6613
  132CHL1  H22B16012   3.288   2.465   5.548 -2.2232  0.4097 -2.9604
  132CHL1   C2316013   3.333   2.271   5.655 -0.2843 -0.5939  0.1258
  132CHL1  H23A16014   3.228   2.262   5.691 -0.6680 -0.9113 -1.0049
  132CHL1  H23B16015   3.359   2.169   5.619 -1.4770 -0.7848 -0.2365
  132CHL1   C2416016   3.429   2.315   5.761 -0.1882 -0.3710  0.8155
  132CHL1  H24A16017   3.532   2.334   5.725  0.7993 -1.3724  2.9277
  132CHL1  H24B16018   3.397   2.405   5.818  0.0160 -0.2881  0.8012
  132CHL1   C2516019   3.450   2.209   5.869 -1.2086  0.2958 -0.8027
  132CHL1   H2516020   3.469   2.114   5.816 -1.2379 -1.2952  1.8480
  132CHL1   C2616021   3.569   2.231   5.962  0.0623 -0.1009  0.0911
  132CHL1  H26A16022   3.579   2.157   6.045  4.5887  2.0438  1.8296
  132CHL1  H26B16023   3.663   2.240   5.903  0.2238 -0.9257  0.2068
  132CHL1  H26C16024   3.548   2.331   6.005 -0.7666  0.6379 -1.9178
  132CHL1   C2716025   3.325   2.175   5.949  0.1182 -0.7183 -0.4675
  132CHL1  H27A16026   3.341   2.096   6.025 -1.6676  0.0856  0.8117
  132CHL1  H27B16027   3.301   2.272   5.998 -0.1758 -0.0518 -1.8959
  132CHL1  H27C16028   3.238   2.155   5.883  0.3618 -1.3223 -0.6135
  133CHL1    C316029   6.614   5.573   5.295 -0.6265 -0.0358 -0.7580
  133CHL1    H316030   6.679   5.656   5.332  0.0612 -0.1874 -1.5913
  133CHL1    O316031   6.619   5.572   5.153 -0.3427  0.4141  0.1199
  133CHL1   H3'16032   6.549   5.514   5.122  0.9399 -1.7475  0.9973
  133CHL1    C416033   6.670   5.448   5.366  0.2498 -0.0539 -0.0902
  133CHL1   H4A16034   6.604   5.368   5.327 -0.4201  0.3644  0.1609
  133CHL1   H4B16035   6.769   5.444   5.317  0.1699  1.5223 -0.4397
  133CHL1    C516036   6.672   5.453   5.517  0.9075 -0.3618 -0.0478
  133CHL1    C616037   6.777   5.431   5.597 -0.7953  0.5350  0.8982
  133CHL1    H616038   6.868   5.396   5.545 -0.5014  0.9453  1.1287
  133CHL1    C716039   6.781   5.424   5.752  0.7055 -0.2794 -0.2577
  133CHL1   H7A16040   6.827   5.328   5.782  0.4907 -1.5575 -3.5403
  133CHL1   H7B16041   6.835   5.516   5.783 -1.1697  1.4953 -1.8865
  133CHL1    C816042   6.634   5.431   5.806 -0.3421  0.2747 -0.3480
  133CHL1    H816043   6.609   5.323   5.814  2.2732 -0.7987 -4.0772
  133CHL1   C1416044   6.643   5.484   5.951 -0.5293  0.0805 -0.2171
  133CHL1   H1416045   6.680   5.587   5.930  0.6594 -0.5136 -1.1852
  133CHL1   C1516046   6.749   5.423   6.052  0.6857  0.6361 -0.2555
  133CHL1  H15A16047   6.748   5.313   6.040 -1.4758  0.2526  2.4222
  133CHL1  H15B16048   6.850   5.469   6.040  1.9776 -2.0501 -0.3295
  133CHL1   C1616049   6.692   5.467   6.194  0.3859  0.2524 -0.0866
  133CHL1  H16A16050   6.661   5.368   6.236  0.2964  0.1941 -0.2859
  133CHL1  H16B16051   6.771   5.511   6.258  0.8325 -0.4536 -0.1370
  133CHL1   C1716052   6.572   5.556   6.158 -0.4686  0.6778 -0.7212
  133CHL1   H1716053   6.611   5.657   6.134 -0.8038  0.8596 -0.5123
  133CHL1   C1316054   6.508   5.493   6.025 -0.3485 -0.9384 -0.1476
  133CHL1   C1816055   6.463   5.348   6.050  0.3148 -0.5734 -0.3949
  133CHL1  H18A16056   6.441   5.297   5.954  2.2265  0.1727 -1.2839
  133CHL1  H18B16057   6.535   5.285   6.106  0.9101  1.6929  1.5592
  133CHL1  H18C16058   6.375   5.354   6.117  1.2815  2.7642  0.7941
  133CHL1   C1216059   6.417   5.583   5.939 -0.6173 -0.5150 -0.0184
  133CHL1  H12A16060   6.318   5.591   5.989  0.1186  0.7493  1.3263
  133CHL1  H12B16061   6.475   5.678   5.934 -1.5620  0.0528 -0.6739
  133CHL1   C1116062   6.402   5.531   5.797  0.0111  0.4547  0.0859
  133CHL1  H11A16063   6.348   5.434   5.792  0.0869  0.4682 -1.6023
  133CHL1  H11B16064   6.334   5.593   5.735  0.8643 -0.8340 -2.2704
  133CHL1    C916065   6.536   5.517   5.728 -0.1101 -0.1570  0.0094
  133CHL1    H916066   6.579   5.618   5.744  1.6954 -1.1067  1.4481
  133CHL1   C1016067   6.533   5.480   5.578 -0.2150  0.1529  0.6283
  133CHL1   C1916068   6.451   5.352   5.554 -0.2117 -0.0519  0.4774
  133CHL1  H19A16069   6.358   5.361   5.613  0.8766 -1.8725  2.6092
  133CHL1  H19B16070   6.428   5.331   5.447  3.6054 -0.7455 -0.3524
  133CHL1  H19C16071   6.513   5.270   5.598  1.1989  0.2105 -0.9271
  133CHL1    C116072   6.465   5.598   5.494 -0.2730 -0.4902  0.1747
  133CHL1   H1A16073   6.360   5.611   5.529 -0.6151 -1.2912 -0.5171
  133CHL1   H1B16074   6.520   5.693   5.510 -0.3195 -0.2487 -1.0491
  133CHL1    C216075   6.470   5.587   5.339  0.3669 -0.1096  0.1862
  133CHL1   H2A16076   6.426   5.681   5.300 -1.6247 -1.6431 -1.4950
  133CHL1   H2B16077   6.394   5.512   5.309  0.4863  0.1003 -0.6626
  133CHL1   C2016078   6.477   5.566   6.279  0.1796 -0.5969  0.2719
  133CHL1   H2016079   6.435   5.467   6.306 -0.0125 -1.3427 -2.5337
  133CHL1   C2116080   6.367   5.667   6.252  0.1060 -0.3683  0.4379
  133CHL1  H21A16081   6.283   5.622   6.195 -1.1087 -0.1565  1.9809
  133CHL1  H21B16082   6.414   5.751   6.198  2.9816 -1.6719  0.7279
  133CHL1  H21C16083   6.317   5.698   6.346 -0.4824 -0.1760  0.0657
  133CHL1   C2216084   6.558   5.618   6.402  0.1905  0.1213  0.3180
  133CHL1  H22A16085   6.650   5.669   6.367 -0.3071  0.4092 -0.6115
  133CHL1  H22B16086   6.491   5.694   6.447 -0.7014  1.4503 -2.9826
  133CHL1   C2316087   6.574   5.510   6.511 -0.4899  0.2608 -0.2664
  133CHL1  H23A16088   6.478   5.458   6.531 -0.8435 -0.0330 -2.4814
  133CHL1  H23B16089   6.643   5.437   6.462 -2.0931 -1.2853 -0.3330
  133CHL1   C2416090   6.648   5.563   6.635 -0.1437 -0.4504  0.2748
  133CHL1  H24A16091   6.745   5.609   6.606 -0.0950 -1.0125 -0.4827
  133CHL1  H24B16092   6.586   5.648   6.668  0.6935  0.5340 -0.5881
  133CHL1   C2516093   6.685   5.462   6.741  0.2932 -0.3470 -0.9584
  133CHL1   H2516094   6.731   5.370   6.699  0.4966 -0.1555 -1.1611
  133CHL1   C2616095   6.780   5.524   6.849  0.5473  0.1782  0.7147
  133CHL1  H26A16096   6.882   5.544   6.810  0.6946 -2.4785 -0.4367
  133CHL1  H26B16097   6.726   5.605   6.903  3.0303  2.8989 -0.6198
  133CHL1  H26C16098   6.807   5.446   6.924  3.4397 -1.1225 -1.4908
  133CHL1   C2716099   6.554   5.408   6.801 -0.6319  0.7106 -0.0328
  133CHL1  H27A16100   6.490   5.376   6.716  0.0246  1.0003 -0.6392
  133CHL1  H27B16101   6.568   5.313   6.858  1.9570  0.9064 -0.2546
  133CHL1  H27C16102   6.489   5.468   6.868  1.3459  1.3973  1.3522
  134CHL1    C316103   5.659   6.160   5.066 -0.1633  0.2120  0.4279
  134CHL1    H316104   5.549   6.165   5.082 -0.1393 -3.4756  2.8233
  134CHL1    O316105   5.693   6.152   4.930  0.0475  0.2145 -0.2702
  134CHL1   H3'16106   5.776   6.107   4.918  1.4265  2.4639  0.2270
  134CHL1    C416107   5.739   6.288   5.128  0.9043 -0.2060 -0.1786
  134CHL1   H4A16108   5.844   6.260   5.106  0.7633 -0.1690 -0.9441
  134CHL1   H4B16109   5.708   6.373   5.064 -0.1011  0.4049  1.0666
  134CHL1    C516110   5.719   6.299   5.281  0.0216 -0.1633 -0.2438
  134CHL1    C616111   5.691   6.420   5.337 -0.2718  0.2664  0.7065
  134CHL1    H616112   5.673   6.507   5.272 -1.4376 -0.3051  0.2453
  134CHL1    C716113   5.686   6.441   5.483 -0.0187  0.0823 -0.3471
  134CHL1   H7A16114   5.736   6.537   5.507 -0.1665 -0.4505  2.4086
  134CHL1   H7B16115   5.580   6.454   5.511 -0.1321 -1.4067 -0.0345
  134CHL1    C816116   5.746   6.319   5.565 -0.2253  0.3712  0.6586
  134CHL1    H816117   5.856   6.334   5.555 -0.5582  1.9847 -1.4833
  134CHL1   C1416118   5.700   6.331   5.709 -0.4965  0.2870  0.1290
  134CHL1   H1416119   5.592   6.307   5.703 -0.1038 -1.3925 -1.2828
  134CHL1   C1516120   5.711   6.462   5.785 -0.0262  0.5166 -0.2173
  134CHL1  H15A16121   5.800   6.522   5.757 -0.7296  0.4692 -2.7323
  134CHL1  H15B16122   5.625   6.530   5.762  0.2805  1.3730  1.0127
  134CHL1   C1616123   5.694   6.420   5.930  0.3052 -0.3532  0.8339
  134CHL1  H16A16124   5.787   6.463   5.973  0.5803  0.6206 -0.6209
  134CHL1  H16B16125   5.612   6.470   5.986 -2.0432  0.6974 -3.1444
  134CHL1   C1716126   5.692   6.270   5.937  0.0725  0.2150  0.5786
  134CHL1   H1716127   5.585   6.241   5.935  0.5372 -1.5913 -0.5403
  134CHL1   C1316128   5.753   6.220   5.802  0.0352  0.3769  0.4448
  134CHL1   C1816129   5.906   6.231   5.810  0.5326 -0.8333  0.0065
  134CHL1  H18A16130   5.948   6.208   5.710  0.2440 -2.1624  0.1735
  134CHL1  H18B16131   5.931   6.335   5.838  1.1956 -0.5591 -1.5034
  134CHL1  H18C16132   5.949   6.157   5.881 -0.3519 -0.5898  0.8091
  134CHL1   C1216133   5.701   6.090   5.749  0.5392  0.5845 -0.0099
  134CHL1  H12A16134   5.755   6.011   5.806  0.7012  1.2831  0.8397
  134CHL1  H12B16135   5.592   6.089   5.767  0.3100  0.9683 -1.2993
  134CHL1   C1116136   5.740   6.066   5.598 -0.3565  0.5028 -0.0133
  134CHL1  H11A16137   5.849   6.051   5.589 -0.7193 -1.7898 -1.3969
  134CHL1  H11B16138   5.694   5.970   5.564 -3.0173  1.8553 -0.5692
  134CHL1    C916139   5.703   6.184   5.504 -0.1869 -0.1673  0.2799
  134CHL1    H916140   5.592   6.185   5.506 -0.2567 -1.1480 -1.3034
  134CHL1   C1016141   5.750   6.169   5.360 -0.1081 -0.0368  0.0323
  134CHL1   C1916142   5.906   6.142   5.353 -0.1494 -0.2197  0.9363
  134CHL1  H19A16143   5.916   6.044   5.404 -0.7771 -0.6687  0.2197
  134CHL1  H19B16144   5.934   6.121   5.247 -0.4883  4.2792 -0.2495
  134CHL1  H19C16145   5.974   6.215   5.401  0.5363 -0.8137  0.8850
  134CHL1    C116146   5.682   6.048   5.300  0.2481  0.5783  0.3342
  134CHL1   H1A16147   5.722   5.949   5.332 -2.0240  0.0749  1.8300
  134CHL1   H1B16148   5.575   6.038   5.329  0.1270  1.0282  0.0568
  134CHL1    C216149   5.691   6.032   5.147  0.3430  0.0726 -0.3422
  134CHL1   H2A16150   5.620   5.960   5.100 -1.7665  1.1017  1.1256
  134CHL1   H2B16151   5.798   6.006   5.136  0.5903  1.1897 -0.6693
  134CHL1   C2016152   5.742   6.210   6.066  0.3997 -0.5782 -0.1677
  134CHL1   H2016153   5.853   6.216   6.071  0.3425 -0.1956  1.4425
  134CHL1   C2116154   5.711   6.060   6.073  0.1504 -0.4084  0.0746
  134CHL1  H21A16155   5.602   6.044   6.060 -0.3600  2.0578  0.6924
  134CHL1  H21B16156   5.738   6.027   6.176 -0.2108  2.2197  1.0925
  134CHL1  H21C16157   5.767   5.994   6.004  1.0990  0.9512 -0.5071
  134CHL1   C2216158   5.686   6.290   6.196  0.6817  0.2965  0.5315
  134CHL1  H22A16159   5.707   6.399   6.188  1.1984  0.1038 -1.1967
  134CHL1  H22B16160   5.578   6.265   6.197  0.0318  2.7640 -0.3334
  134CHL1   C2316161   5.741   6.248   6.334  0.5003 -0.4585  0.0043
  134CHL1  H23A16162   5.714   6.141   6.352 -1.0120  0.2331  2.1507
  134CHL1  H23B16163   5.852   6.250   6.324  0.7630  0.3078  2.3810
  134CHL1   C2416164   5.699   6.342   6.449  0.5963 -0.1121 -0.3372
  134CHL1  H24A16165   5.726   6.447   6.424 -2.1346  0.8172  0.2830
  134CHL1  H24B16166   5.588   6.350   6.443  0.6208  3.0350  1.5641
  134CHL1   C2516167   5.746   6.306   6.588  0.2693  0.2470 -0.7350
  134CHL1   H2516168   5.856   6.324   6.586  0.1827  0.9093 -0.0714
  134CHL1   C2616169   5.687   6.400   6.693  0.0209  0.3396  0.1393
  134CHL1  H26A16170   5.579   6.384   6.710  0.4629 -3.0411  0.4077
  134CHL1  H26B16171   5.730   6.365   6.790  0.1145 -2.2334 -0.7582
  134CHL1  H26C16172   5.719   6.506   6.687  0.0009  0.4078  1.0388
  134CHL1   C2716173   5.725   6.157   6.633 -0.3121 -0.0414 -0.9557
  134CHL1  H27A16174   5.742   6.154   6.743  1.8613 -0.3756 -1.2709
  134CHL1  H27B16175   5.619   6.130   6.612 -0.4601  0.2674 -0.6209
  134CHL1  H27C16176   5.784   6.081   6.579  2.2156  0.3611  1.0360
  135CHL1    C316177   4.452   6.397   4.767 -0.1296 -0.2488 -0.2789
  135CHL1    H316178   4.343   6.412   4.784  0.0884 -1.9678  3.3605
  135CHL1    O316179   4.455   6.396   4.628 -0.3040  0.0004  0.4202
  135CHL1   H3'16180   4.539   6.435   4.601 -1.5722  1.7078 -1.3347
  135CHL1    C416181   4.531   6.513   4.826 -0.1570 -0.1482 -0.0571
  135CHL1   H4A16182   4.636   6.506   4.791 -0.2442  2.4566 -1.0420
  135CHL1   H4B16183   4.489   6.599   4.769  2.0712 -0.5176 -2.4518
  135CHL1    C516184   4.511   6.525   4.976  0.0497  0.1447  0.2043
  135CHL1    C616185   4.466   6.635   5.024 -0.4925 -0.2107 -0.6745
  135CHL1    H616186   4.454   6.720   4.956 -1.8080  0.2068  0.0376
  135CHL1    C716187   4.457   6.670   5.172  0.3742  0.4643  0.0268
  135CHL1   H7A16188   4.502   6.768   5.202  1.7277 -0.2894  0.5587
  135CHL1   H7B16189   4.352   6.671   5.207  0.7709  0.2433  1.2721
  135CHL1    C816190   4.516   6.553   5.255  0.2110 -0.5683 -0.1718
  135CHL1    H816191   4.626   6.571   5.250  0.1033 -0.3207 -2.4555
  135CHL1   C1416192   4.463   6.559   5.399  0.1083  0.1051  0.3855
  135CHL1   H1416193   4.356   6.530   5.386 -0.0588  0.5865  0.6559
  135CHL1   C1516194   4.451   6.692   5.481  0.4198  0.5982 -0.3904
  135CHL1  H15A16195   4.546   6.746   5.459  1.0003 -0.1954  0.0856
  135CHL1  H15B16196   4.361   6.751   5.457 -1.8974 -2.4147  0.2705
  135CHL1   C1616197   4.455   6.641   5.627  0.2174 -0.9544 -0.6493
  135CHL1  H16A16198   4.550   6.671   5.675  1.5406  0.4753 -3.8414
  135CHL1  H16B16199   4.365   6.681   5.679 -0.5711 -1.5566 -1.5268
  135CHL1   C1716200   4.447   6.490   5.622 -0.1264  0.0877 -1.4267
  135CHL1   H1716201   4.340   6.460   5.620 -0.0823 -0.1636 -0.3890
  135CHL1   C1316202   4.517   6.451   5.488 -0.1501  0.3380  0.5606
  135CHL1   C1816203   4.668   6.464   5.502 -0.7457  0.0044  0.6940
  135CHL1  H18A16204   4.711   6.458   5.399 -1.1985  2.0706  0.3294
  135CHL1  H18B16205   4.688   6.571   5.521  1.8965 -0.5440  1.3128
  135CHL1  H18C16206   4.713   6.389   5.570  1.3973  0.1948 -0.4188
  135CHL1   C1216207   4.469   6.316   5.432 -0.6864  0.2888 -0.0941
  135CHL1  H12A16208   4.495   6.225   5.491 -2.1622 -0.6049 -0.7655
  135CHL1  H12B16209   4.358   6.313   5.433 -0.6903 -2.2797 -0.7544
  135CHL1   C1116210   4.517   6.293   5.289  0.2801  0.1910 -0.2007
  135CHL1  H11A16211   4.627   6.276   5.281  0.3956  0.0604  1.3532
  135CHL1  H11B16212   4.468   6.206   5.241 -0.6806 -0.2580  1.5150
  135CHL1    C916213   4.482   6.413   5.193 -0.3431 -0.2884 -0.3606
  135CHL1    H916214   4.372   6.409   5.178 -0.6135  0.3113  1.2798
  135CHL1   C1016215   4.540   6.393   5.052 -0.9636 -0.8784 -0.0708
  135CHL1   C1916216   4.697   6.375   5.056  0.1776 -0.2658  1.0433
  135CHL1  H19A16217   4.743   6.379   4.955  0.0726  0.6224  1.0236
  135CHL1  H19B16218   4.742   6.458   5.115  1.4231 -1.3193  1.6301
  135CHL1  H19C16219   4.728   6.274   5.092  1.8574 -0.2512 -0.2500
  135CHL1    C116220   4.472   6.269   4.978  0.3981 -0.2527  0.2166
  135CHL1   H1A16221   4.511   6.169   5.005 -0.6670 -0.4997  0.8813
  135CHL1   H1B16222   4.363   6.275   4.999  0.5638 -1.0139  1.3645
  135CHL1    C216223   4.500   6.267   4.828  0.8063 -0.1054 -0.1540
  135CHL1   H2A16224   4.443   6.183   4.783 -2.5851  2.2517 -0.6401
  135CHL1   H2B16225   4.609   6.255   4.811  0.8863 -1.6382  1.2168
  135CHL1   C2016226   4.502   6.436   5.761  0.5464  0.3082 -0.7147
  135CHL1   H2016227   4.610   6.461   5.773  0.5184  1.1127 -1.9646
  135CHL1   C2116228   4.487   6.281   5.767 -0.2991  1.0836  0.0327
  135CHL1  H21A16229   4.390   6.242   5.727  0.8299 -2.2352  0.2072
  135CHL1  H21B16230   4.494   6.234   5.868  0.6636  1.2769  0.0652
  135CHL1  H21C16231   4.565   6.227   5.710 -2.0755  2.2686 -3.8913
  135CHL1   C2216232   4.421   6.495   5.879  0.0436  0.2091  0.1232
  135CHL1  H22A16233   4.477   6.458   5.968  0.2258  0.5761  0.1637
  135CHL1  H22B16234   4.428   6.606   5.880 -1.2827  0.3409 -1.2086
  135CHL1   C2316235   4.272   6.461   5.903 -0.3622  1.1406  0.9439
  135CHL1  H23A16236   4.205   6.480   5.817 -0.9006  3.0524  1.7471
  135CHL1  H23B16237   4.270   6.351   5.919 -1.3826  0.8714 -0.7946
  135CHL1   C2416238   4.212   6.539   6.020 -0.0042 -0.4427  0.2059
  135CHL1  H24A16239   4.221   6.648   5.998 -0.3217 -0.2529  0.9688
  135CHL1  H24B16240   4.107   6.507   6.038  0.5174 -1.8974  0.8275
  135CHL1   C2516241   4.280   6.526   6.156  0.4691 -0.3944  0.4151
  135CHL1   H2516242   4.383   6.566   6.147  2.1924 -4.5027 -0.3527
  135CHL1   C2616243   4.198   6.595   6.264  0.3344 -0.4021 -0.2788
  135CHL1  H26A16244   4.110   6.528   6.280 -0.1179 -0.5515 -2.9007
  135CHL1  H26B16245   4.258   6.611   6.356 -1.2635  2.0403  0.4256
  135CHL1  H26C16246   4.159   6.692   6.227 -3.5068 -1.3954  0.6783
  135CHL1   C2716247   4.284   6.381   6.198 -0.0483  0.1225 -0.0526
  135CHL1  H27A16248   4.308   6.365   6.305 -2.7354  0.8915  0.7291
  135CHL1  H27B16249   4.183   6.335   6.194 -1.0788  1.8684  2.9341
  135CHL1  H27C16250   4.341   6.314   6.129  0.4894 -0.6369  1.1033
  136CHL1    C316251   5.784   4.425   4.898 -0.0126 -0.2978  0.3213
  136CHL1    H316252   5.694   4.360   4.901  0.8658 -1.7324 -1.9904
  136CHL1    O316253   5.811   4.449   4.763  0.1784 -0.0203 -0.4810
  136CHL1   H3'16254   5.752   4.519   4.734  1.2934  1.2654  0.2327
  136CHL1    C416255   5.739   4.548   4.973 -0.5816  0.0069  0.0902
  136CHL1   H4A16256   5.819   4.625   4.977 -1.1252  0.5516  0.5229
  136CHL1   H4B16257   5.657   4.593   4.913  1.6215  3.2400 -0.7511
  136CHL1    C516258   5.699   4.515   5.120  0.9159 -0.2747 -0.1306
  136CHL1    C616259   5.585   4.557   5.177  0.2933  0.6939  0.5214
  136CHL1    H616260   5.520   4.615   5.110  0.1801  0.9506  0.8477
  136CHL1    C716261   5.536   4.523   5.316 -0.2209 -0.9463  0.5143
  136CHL1   H7A16262   5.485   4.611   5.361  1.9985  1.2376 -0.9629
  136CHL1   H7B16263   5.456   4.448   5.305 -1.4768  0.5159 -0.6708
  136CHL1    C816264   5.653   4.463   5.408 -0.2534 -0.0456  0.5321
  136CHL1    H816265   5.702   4.550   5.456 -2.9503  1.6028  0.5527
  136CHL1   C1416266   5.590   4.379   5.526  0.8751 -0.3931 -0.5358
  136CHL1   H1416267   5.535   4.296   5.476  0.6174  0.1987 -1.2531
  136CHL1   C1516268   5.489   4.452   5.614 -0.2395  0.1201  0.8780
  136CHL1  H15A16269   5.524   4.554   5.640  1.7855 -0.6514  1.3670
  136CHL1  H15B16270   5.385   4.447   5.575 -0.7715  2.2732  1.8244
  136CHL1   C1616271   5.490   4.367   5.738  0.1542  0.7465 -0.4775
  136CHL1  H16A16272   5.527   4.433   5.820  1.0335 -0.9628  0.5683
  136CHL1  H16B16273   5.389   4.330   5.766  0.5749  0.3102  0.5113
  136CHL1   C1716274   5.603   4.258   5.725 -0.3164  0.1377 -0.0907
  136CHL1   H1716275   5.561   4.164   5.684  0.1132 -0.8061  1.5010
  136CHL1   C1316276   5.698   4.316   5.618  0.0414 -0.3065  0.0968
  136CHL1   C1816277   5.795   4.423   5.680 -0.7360 -0.1425 -0.8731
  136CHL1  H18A16278   5.737   4.506   5.726 -0.3000  0.1713 -0.8897
  136CHL1  H18B16279   5.865   4.374   5.750 -0.6435  0.6301 -0.4186
  136CHL1  H18C16280   5.847   4.475   5.597  1.8158 -0.3393  0.5285
  136CHL1   C1216281   5.779   4.220   5.537  0.5680 -0.2638 -0.0326
  136CHL1  H12A16282   5.862   4.182   5.600  1.7624  2.3682  0.1440
  136CHL1  H12B16283   5.708   4.140   5.508  0.4189  0.4204 -1.6556
  136CHL1   C1116284   5.839   4.284   5.411 -0.4058 -0.4648 -0.3348
  136CHL1  H11A16285   5.927   4.344   5.444 -0.5459 -1.2227  1.5451
  136CHL1  H11B16286   5.867   4.195   5.350  1.0750 -0.2603 -0.0075
  136CHL1    C916287   5.742   4.369   5.326 -0.2690  0.3983 -0.6814
  136CHL1    H916288   5.668   4.294   5.292  1.7326 -1.6375 -0.7924
  136CHL1   C1016289   5.801   4.437   5.202 -0.2143 -0.3204 -0.0859
  136CHL1   C1916290   5.925   4.517   5.250  0.1787  0.2416  0.1689
  136CHL1  H19A16291   6.008   4.447   5.272  0.0083 -0.0001  0.0433
  136CHL1  H19B16292   5.962   4.593   5.178 -0.7287 -0.6761 -1.3222
  136CHL1  H19C16293   5.890   4.574   5.340 -3.2758 -1.2431 -0.0529
  136CHL1    C116294   5.852   4.315   5.113 -0.2764 -0.1953 -0.2946
  136CHL1   H1A16295   5.942   4.275   5.165  1.0326 -0.0760 -2.3290
  136CHL1   H1B16296   5.771   4.239   5.117  0.4476 -1.0988 -1.6955
  136CHL1    C216297   5.889   4.349   4.973 -0.9150 -0.2368  0.4003
  136CHL1   H2A16298   5.905   4.256   4.914  3.5564  1.4990 -1.5590
  136CHL1   H2B16299   5.983   4.408   4.968  0.6591 -2.5292  1.1513
  136CHL1   C2016300   5.661   4.227   5.869  0.0423  0.2077  0.8233
  136CHL1   H2016301   5.704   4.321   5.909  1.5028 -0.2646  0.4300
  136CHL1   C2116302   5.763   4.116   5.857 -0.2740 -0.5736  0.3249
  136CHL1  H21A16303   5.795   4.067   5.952  0.8233 -1.5241 -0.5025
  136CHL1  H21B16304   5.856   4.158   5.812 -0.7765  2.0564  1.5632
  136CHL1  H21C16305   5.734   4.035   5.787  3.8044 -0.7824 -1.3962
  136CHL1   C2216306   5.553   4.181   5.964 -0.0739 -0.3078  0.6621
  136CHL1  H22A16307   5.610   4.151   6.055 -1.0148 -0.7459  1.1251
  136CHL1  H22B16308   5.495   4.270   5.998  0.2268 -0.1155  0.6813
  136CHL1   C2316309   5.470   4.061   5.914  0.6262  0.2713  0.2576
  136CHL1  H23A16310   5.393   4.080   5.837  0.1838 -1.2401  0.3067
  136CHL1  H23B16311   5.529   3.975   5.875 -0.1219  0.1632 -0.6550
  136CHL1   C2416312   5.390   4.006   6.036 -0.2392 -0.5832 -0.3179
  136CHL1  H24A16313   5.474   3.974   6.101 -0.7585 -0.6346  0.3357
  136CHL1  H24B16314   5.337   4.091   6.083  1.2967 -0.7628  1.8632
  136CHL1   C2516315   5.309   3.892   5.994 -0.3239 -0.7030 -0.3053
  136CHL1   H2516316   5.372   3.814   5.945 -1.5195 -1.7197 -0.2875
  136CHL1   C2616317   5.256   3.824   6.118  0.4871 -0.2616 -0.2048
  136CHL1  H26A16318   5.345   3.781   6.169  2.3650  2.2652 -1.1454
  136CHL1  H26B16319   5.204   3.891   6.189 -0.1388 -0.0387 -0.8651
  136CHL1  H26C16320   5.183   3.744   6.094 -1.9544  1.4102  1.2259
  136CHL1   C2716321   5.185   3.919   5.902  0.0927 -0.0703 -0.0435
  136CHL1  H27A16322   5.113   3.985   5.954 -1.6626 -0.9231 -1.2734
  136CHL1  H27B16323   5.206   3.972   5.807 -2.0071  1.1531  0.1158
  136CHL1  H27C16324   5.132   3.823   5.882 -2.6261  1.4992 -0.7525
  137CHL1    C316325   5.276   6.352   4.991  0.3605 -0.1016  0.5827
  137CHL1    H316326   5.385   6.332   4.995  0.1397 -1.4446  0.2939
  137CHL1    O316327   5.231   6.375   4.859 -0.7284 -0.7362 -0.4808
  137CHL1   H3'16328   5.165   6.306   4.847 -0.0052 -1.5665  0.2312
  137CHL1    C416329   5.198   6.230   5.051 -0.5900  0.4436 -0.2336
  137CHL1   H4A16330   5.089   6.252   5.058 -0.3083  1.4671  1.6377
  137CHL1   H4B16331   5.218   6.140   4.990  0.7446  0.4593  0.1453
  137CHL1    C516332   5.226   6.212   5.202 -0.7002  0.1115  0.1313
  137CHL1    C616333   5.283   6.098   5.248  0.2257  0.2534  0.2273
  137CHL1    H616334   5.317   6.019   5.181  1.5532  0.5866  0.4890
  137CHL1    C716335   5.296   6.066   5.394  0.0927 -0.9026 -0.0209
  137CHL1   H7A16336   5.266   5.965   5.427  1.7710 -1.6192 -0.5581
  137CHL1   H7B16337   5.404   6.074   5.417  0.2887 -1.6775 -0.6257
  137CHL1    C816338   5.220   6.170   5.481 -0.2780 -0.5381 -0.2442
  137CHL1    H816339   5.119   6.125   5.476  0.6782 -2.6774 -2.7720
  137CHL1   C1416340   5.283   6.174   5.617  0.4487 -0.3253  0.6911
  137CHL1   H1416341   5.384   6.218   5.607 -0.0497  0.3884 -1.8305
  137CHL1   C1516342   5.302   6.034   5.674 -0.3380 -0.4072 -0.2350
  137CHL1  H15A16343   5.215   5.972   5.642 -0.9364  0.2317  0.1373
  137CHL1  H15B16344   5.399   5.988   5.646  0.1978  0.1677  0.6385
  137CHL1   C1616345   5.299   6.058   5.822 -0.4836 -0.2874  0.1452
  137CHL1  H16A16346   5.230   5.985   5.870 -0.0823 -0.5537  0.3278
  137CHL1  H16B16347   5.398   6.043   5.871 -0.7822  0.5229  1.0444
  137CHL1   C1716348   5.275   6.214   5.845 -0.4629 -0.6777  0.3886
  137CHL1   H1716349   5.376   6.261   5.842 -0.0134 -1.6633 -2.0377
  137CHL1   C1316350   5.205   6.260   5.720  0.5282  0.1500 -0.0777
  137CHL1   C1816351   5.057   6.222   5.725 -0.4388 -0.2866  0.1582
  137CHL1  H18A16352   5.043   6.121   5.768 -1.6878 -1.3113 -2.4567
  137CHL1  H18B16353   5.004   6.300   5.784 -1.2440 -0.1597 -0.7174
  137CHL1  H18C16354   5.008   6.231   5.626 -0.5144 -0.2526  0.1986
  137CHL1   C1216355   5.229   6.405   5.677  0.0785 -0.1032 -0.4357
  137CHL1  H12A16356   5.164   6.478   5.730 -0.3142 -1.3007  0.7832
  137CHL1  H12B16357   5.333   6.436   5.701  0.1780 -1.0477  0.4306
  137CHL1   C1116358   5.195   6.422   5.531  0.3542 -0.4872 -0.2909
  137CHL1  H11A16359   5.085   6.427   5.534  0.3872 -0.2834  0.8048
  137CHL1  H11B16360   5.239   6.521   5.505 -0.5298  0.6216  2.2065
  137CHL1    C916361   5.247   6.313   5.428 -0.3791 -0.0131 -0.2565
  137CHL1    H916362   5.357   6.333   5.427 -0.4520  0.6532  1.5124
  137CHL1   C1016363   5.198   6.330   5.282 -0.1796 -1.5517 -0.0625
  137CHL1   C1916364   5.045   6.371   5.284 -0.6265  0.1201 -0.3879
  137CHL1  H19A16365   5.032   6.463   5.345  2.4567 -0.2840  1.0608
  137CHL1  H19B16366   5.014   6.412   5.186  1.1378 -1.2037 -1.5669
  137CHL1  H19C16367   4.982   6.286   5.317  2.2747 -1.8043  0.5761
  137CHL1    C116368   5.281   6.450   5.222  0.2192 -0.4477  0.7735
  137CHL1   H1A16369   5.253   6.544   5.276  0.3605  0.8977 -1.3588
  137CHL1   H1B16370   5.389   6.429   5.234  0.9769  1.1473 -2.2664
  137CHL1    C216371   5.245   6.480   5.070  0.3517  0.2570 -0.7055
  137CHL1   H2A16372   5.302   6.563   5.023  0.4935 -0.2195 -1.3859
  137CHL1   H2B16373   5.135   6.498   5.065 -0.7701 -3.8460  2.7793
  137CHL1   C2016374   5.215   6.268   5.977  0.1231  0.2708  0.1639
  137CHL1   H2016375   5.107   6.243   5.970  0.0725  0.4666  0.2674
  137CHL1   C2116376   5.245   6.412   5.998  0.0015 -0.4477  0.4693
  137CHL1  H21A16377   5.176   6.476   5.940  0.6163  0.9779  1.2642
  137CHL1  H21B16378   5.352   6.427   5.972  0.3280 -0.3171  1.8032
  137CHL1  H21C16379   5.234   6.450   6.102 -1.4626 -1.3853  0.6953
  137CHL1   C2216380   5.270   6.177   6.095  0.0263 -0.1270 -0.1893
  137CHL1  H22A16381   5.260   6.068   6.074  1.1221 -0.3188  0.2209
  137CHL1  H22B16382   5.379   6.191   6.081 -0.1329 -0.1417 -1.5912
  137CHL1   C2316383   5.220   6.217   6.236 -0.1793  0.0131 -0.0248
  137CHL1  H23A16384   5.247   6.320   6.268  0.4796  0.0796 -0.7732
  137CHL1  H23B16385   5.109   6.210   6.239 -0.1811 -0.9792 -1.2688
  137CHL1   C2416386   5.285   6.132   6.344 -0.1270  0.0353  1.1680
  137CHL1  H24A16387   5.280   6.023   6.321  1.0946  0.1985 -0.0464
  137CHL1  H24B16388   5.395   6.152   6.344  0.0305 -0.5851 -0.7181
  137CHL1   C2516389   5.247   6.162   6.485  1.1586  0.5579  0.7006
  137CHL1   H2516390   5.288   6.263   6.506  2.3463  0.3739 -0.5978
  137CHL1   C2616391   5.094   6.170   6.507  0.4832  0.1515  0.1920
  137CHL1  H26A16392   5.066   6.232   6.596 -2.1272 -0.9708  0.2404
  137CHL1  H26B16393   5.043   6.227   6.426  2.4803  0.3500 -1.0020
  137CHL1  H26C16394   5.049   6.070   6.520 -2.8951  1.4519 -0.4685
  137CHL1   C2716395   5.297   6.056   6.583 -0.4525  0.3493 -0.5639
  137CHL1  H27A16396   5.252   6.063   6.685  1.4130 -0.3481  0.3561
  137CHL1  H27B16397   5.275   5.954   6.546 -1.5035  0.1326  0.6069
  137CHL1  H27C16398   5.406   6.061   6.605 -0.7187 -1.3334  1.4652
  138CHL1    C316399   6.149   4.080   4.837 -0.0854 -0.1331 -0.1198
  138CHL1    H316400   6.043   4.081   4.870 -0.0643 -1.1929  0.0057
  138CHL1    O316401   6.147   4.110   4.698 -0.7916  0.1723  0.3023
  138CHL1   H3'16402   6.236   4.133   4.671 -1.2065  2.1822  0.4661
  138CHL1    C416403   6.225   4.187   4.912 -0.4535 -0.0481 -0.2223
  138CHL1   H4A16404   6.332   4.181   4.884 -0.0611 -0.8554  1.3139
  138CHL1   H4B16405   6.183   4.288   4.893 -2.3532 -1.0254 -1.5545
  138CHL1    C516406   6.231   4.161   5.064 -0.2381  0.4017  0.1448
  138CHL1    C616407   6.213   4.258   5.150 -0.5140  0.3089  0.3196
  138CHL1    H616408   6.213   4.363   5.117  3.9736  0.1227 -0.9175
  138CHL1    C716409   6.213   4.254   5.294  0.8239 -0.5840  0.4485
  138CHL1   H7A16410   6.274   4.337   5.335  1.6858 -1.0030  0.0484
  138CHL1   H7B16411   6.107   4.267   5.325  0.3761  0.8966 -1.5020
  138CHL1    C816412   6.258   4.118   5.344  0.7505 -0.2074 -0.1774
  138CHL1    H816413   6.368   4.107   5.353  0.4174 -2.4920  3.2312
  138CHL1   C1416414   6.199   4.107   5.485  0.6235  0.3012 -0.1594
  138CHL1   H1416415   6.088   4.102   5.479  0.6893 -1.3117 -0.2091
  138CHL1   C1516416   6.214   4.226   5.583 -0.4656  0.2002 -0.2988
  138CHL1  H15A16417   6.318   4.266   5.579  0.4775 -2.1359 -0.4841
  138CHL1  H15B16418   6.131   4.298   5.565  0.6435  1.5317 -0.2989
  138CHL1   C1616419   6.192   4.158   5.717 -0.0633 -0.1364 -0.6236
  138CHL1  H16A16420   6.284   4.178   5.774 -0.0012 -1.7684 -0.1004
  138CHL1  H16B16421   6.104   4.202   5.768 -0.1940 -0.4918 -0.5418
  138CHL1   C1716422   6.157   4.015   5.689 -0.1228  0.0729 -0.0865
  138CHL1   H1716423   6.051   4.002   5.658  0.0837 -2.5945  0.1020
  138CHL1   C1316424   6.238   3.985   5.567 -0.2640 -0.5270  0.1788
  138CHL1   C1816425   6.400   3.983   5.589  0.6173  0.2148 -0.3009
  138CHL1  H18A16426   6.425   3.899   5.656  0.3072 -1.7118 -2.4754
  138CHL1  H18B16427   6.458   3.974   5.495  0.8005  0.9999 -0.2702
  138CHL1  H18C16428   6.437   4.077   5.634  3.8384  0.2213 -2.6405
  138CHL1   C1216429   6.196   3.869   5.476  0.5280 -0.0777 -0.4973
  138CHL1  H12A16430   6.223   3.778   5.533  0.7609 -0.2223 -0.8376
  138CHL1  H12B16431   6.085   3.859   5.472  0.4204  0.4816  0.6195
  138CHL1   C1116432   6.247   3.866   5.327  0.4646 -0.1406  1.0957
  138CHL1  H11A16433   6.354   3.838   5.324  1.2614  2.4828  2.3171
  138CHL1  H11B16434   6.199   3.779   5.278  1.5479  0.2693 -0.7924
  138CHL1    C916435   6.210   3.999   5.258 -0.1717  0.0442  0.0830
  138CHL1    H916436   6.099   4.011   5.260 -0.0489  1.1784  0.9759
  138CHL1   C1016437   6.258   4.015   5.109 -0.4640 -0.0708 -0.8748
  138CHL1   C1916438   6.411   3.979   5.106  0.3482 -0.1775 -0.3879
  138CHL1  H19A16439   6.468   4.036   5.182  1.7931 -0.3619 -1.2856
  138CHL1  H19B16440   6.435   3.871   5.114  1.2007  0.0979  1.0629
  138CHL1  H19C16441   6.453   4.016   5.010  2.8986  2.6356  1.6164
  138CHL1    C116442   6.184   3.909   5.020 -0.6105 -0.7396  0.4090
  138CHL1   H1A16443   6.223   3.810   5.052 -1.3753 -0.4832  2.2655
  138CHL1   H1B16444   6.077   3.928   5.043  0.0625  4.2731  0.3985
  138CHL1    C216445   6.206   3.939   4.868 -0.4333 -0.5243  0.4154
  138CHL1   H2A16446   6.142   3.874   4.803 -0.2762  0.2822 -0.5811
  138CHL1   H2B16447   6.315   3.934   4.846 -0.2600  0.0817  1.1217
  138CHL1   C2016448   6.184   3.915   5.800 -0.1434 -0.4197 -0.1856
  138CHL1   H2016449   6.267   3.846   5.774 -0.5520 -1.1270  0.3350
  138CHL1   C2116450   6.049   3.845   5.821  0.2787  0.1963  0.1065
  138CHL1  H21A16451   6.060   3.775   5.906 -0.5091 -0.5324 -0.3865
  138CHL1  H21B16452   6.017   3.791   5.730  0.5745  0.9327 -0.4500
  138CHL1  H21C16453   5.966   3.914   5.848 -2.6658 -2.5483 -1.2739
  138CHL1   C2216454   6.226   3.988   5.934 -0.0788  0.7455  0.5054
  138CHL1  H22A16455   6.323   4.038   5.914 -0.5427  1.9212  1.0901
  138CHL1  H22B16456   6.148   4.058   5.969 -2.0476 -0.4049 -1.3478
  138CHL1   C2316457   6.253   3.889   6.047  0.1296 -0.3416 -0.2178
  138CHL1  H23A16458   6.161   3.840   6.086 -1.3759  2.1782 -0.3892
  138CHL1  H23B16459   6.320   3.811   6.003  0.5388  0.6570 -1.4326
  138CHL1   C2416460   6.333   3.947   6.165  0.1889  0.3969  0.1778
  138CHL1  H24A16461   6.427   3.985   6.120  1.4949 -1.2696  1.3678
  138CHL1  H24B16462   6.279   4.031   6.214 -0.4371  0.2143 -0.1891
  138CHL1   C2516463   6.380   3.846   6.270 -0.4527 -0.0739 -0.2654
  138CHL1   H2516464   6.442   3.773   6.214  0.4743  1.7728 -1.7505
  138CHL1   C2616465   6.455   3.917   6.379 -0.5118  0.5929  0.2217
  138CHL1  H26A16466   6.471   3.846   6.463 -1.6969  0.2505  0.1726
  138CHL1  H26B16467   6.554   3.945   6.337  0.0903  0.2175  1.3748
  138CHL1  H26C16468   6.392   3.998   6.422 -2.7816  0.3158 -2.2763
  138CHL1   C2716469   6.253   3.765   6.323 -0.3705  0.1395 -0.2486
  138CHL1  H27A16470   6.280   3.689   6.399  0.4745 -0.7623 -1.3993
  138CHL1  H27B16471   6.175   3.830   6.366  0.5435  0.8714  0.3533
  138CHL1  H27C16472   6.213   3.704   6.239  0.5260  0.0891 -0.6598
  139CHL1    C316473   5.170   3.080   4.492 -0.2393 -0.3627 -0.1083
  139CHL1    H316474   5.124   3.167   4.543 -0.7221  0.7473 -2.3076
  139CHL1    O316475   5.157   3.113   4.354  0.2237 -0.0161  0.6478
  139CHL1   H3'16476   5.064   3.109   4.332 -0.0112  0.6644  1.4645
  139CHL1    C416477   5.327   3.065   4.530  0.7245 -0.5788  0.1970
  139CHL1   H4A16478   5.369   2.986   4.464 -0.7847 -0.8734 -0.4608
  139CHL1   H4B16479   5.375   3.164   4.520  0.7003 -0.4440  1.3060
  139CHL1    C516480   5.329   3.015   4.676  0.1868  0.0635  0.1138
  139CHL1    C616481   5.405   3.084   4.761 -0.2671 -0.6139 -0.8301
  139CHL1    H616482   5.448   3.180   4.729 -0.0375  0.0995  1.3951
  139CHL1    C716483   5.415   3.056   4.910  0.1780 -0.1765 -0.5536
  139CHL1   H7A16484   5.520   3.067   4.946  0.1309  0.5217 -0.6161
  139CHL1   H7B16485   5.346   3.128   4.960 -0.1235 -2.8007  3.2617
  139CHL1    C816486   5.350   2.920   4.943 -0.2282 -0.0576 -0.2360
  139CHL1    H816487   5.419   2.839   4.910  0.7785  1.0411 -0.8997
  139CHL1   C1416488   5.317   2.916   5.092 -0.6581  0.4035 -0.3943
  139CHL1   H1416489   5.239   2.991   5.114  0.3501  1.2559  0.3874
  139CHL1   C1516490   5.431   2.956   5.187 -0.7801 -0.1151 -0.2427
  139CHL1  H15A16491   5.526   2.903   5.161 -1.4203 -1.9372  0.9269
  139CHL1  H15B16492   5.454   3.064   5.182  0.1761 -0.3116 -0.4105
  139CHL1   C1616493   5.383   2.901   5.327 -0.1217 -0.7669  0.5776
  139CHL1  H16A16494   5.468   2.841   5.366  0.8785  2.0198  3.0279
  139CHL1  H16B16495   5.358   2.983   5.397  1.5876  0.4285 -0.1442
  139CHL1   C1716496   5.255   2.811   5.301  0.3562 -0.1210  0.4377
  139CHL1   H1716497   5.169   2.880   5.316 -2.0305 -2.7026 -0.5877
  139CHL1   C1316498   5.258   2.782   5.147 -0.1560  0.5927  0.3299
  139CHL1   C1816499   5.360   2.662   5.116  0.0992 -0.6403 -0.2495
  139CHL1  H18A16500   5.368   2.652   5.005  0.2752 -1.2936 -0.1823
  139CHL1  H18B16501   5.464   2.676   5.152 -0.4330  0.9837  0.7773
  139CHL1  H18C16502   5.322   2.564   5.154 -0.6118  0.0882  0.9844
  139CHL1   C1216503   5.124   2.758   5.078 -0.7469  0.6804 -0.1868
  139CHL1  H12A16504   5.082   2.657   5.099 -2.0607  0.2846 -3.9115
  139CHL1  H12B16505   5.047   2.828   5.118 -1.0297  0.9741 -1.2310
  139CHL1   C1116506   5.134   2.769   4.922  0.2117  0.5375  0.0644
  139CHL1  H11A16507   5.193   2.683   4.885  3.1939  1.8944  1.3610
  139CHL1  H11B16508   5.027   2.769   4.889  0.5950  0.1411 -1.2357
  139CHL1    C916509   5.214   2.900   4.868  0.2037  0.0862  0.0091
  139CHL1    H916510   5.153   2.990   4.892 -0.9008 -0.4939 -0.5136
  139CHL1   C1016511   5.233   2.894   4.713  0.2265 -0.0220  0.2206
  139CHL1   C1916512   5.298   2.763   4.665  0.6379 -0.4649 -0.2072
  139CHL1  H19A16513   5.337   2.794   4.567  1.5428  1.9641  0.8587
  139CHL1  H19B16514   5.368   2.717   4.738 -0.0962 -1.5383 -0.1575
  139CHL1  H19C16515   5.220   2.683   4.663 -1.0703  1.1456 -2.3564
  139CHL1    C116516   5.092   2.912   4.659  0.0842  0.8018 -0.2864
  139CHL1   H1A16517   5.037   2.817   4.676 -2.1896  2.0177 -0.4343
  139CHL1   H1B16518   5.039   2.989   4.718 -1.9701 -2.0982  1.9640
  139CHL1    C216519   5.090   2.951   4.507 -0.2351  0.3148  0.7152
  139CHL1   H2A16520   4.987   2.968   4.469 -0.1935 -1.0645 -0.0990
  139CHL1   H2B16521   5.145   2.870   4.453 -1.7932 -1.5379  1.7511
  139CHL1   C2016522   5.251   2.698   5.394 -0.0014  0.9859  0.8893
  139CHL1   H2016523   5.338   2.632   5.376 -0.5078  1.1086 -2.7862
  139CHL1   C2116524   5.125   2.609   5.372  0.2390 -0.3099 -0.6187
  139CHL1  H21A16525   5.122   2.571   5.268  0.2650  0.7230 -1.0099
  139CHL1  H21B16526   5.033   2.672   5.383  0.7498  0.2580  0.6877
  139CHL1  H21C16527   5.115   2.526   5.445  0.2110  1.5694  1.6774
  139CHL1   C2216528   5.253   2.743   5.541 -0.2105  0.3506  1.1820
  139CHL1  H22A16529   5.339   2.808   5.568 -1.7702  2.6000  1.0691
  139CHL1  H22B16530   5.162   2.807   5.545 -0.9975 -0.5589 -0.8707
  139CHL1   C2316531   5.231   2.640   5.654  0.3143  0.4957 -0.1451
  139CHL1  H23A16532   5.148   2.567   5.647 -0.2016  0.8278  1.8973
  139CHL1  H23B16533   5.326   2.582   5.652 -0.0264 -0.0554 -0.7344
  139CHL1   C2416534   5.213   2.716   5.784  0.1544  0.3737  0.0361
  139CHL1  H24A16535   5.312   2.762   5.804  0.5626  0.8405 -2.7448
  139CHL1  H24B16536   5.139   2.797   5.768 -0.2592 -0.5605 -3.5284
  139CHL1   C2516537   5.170   2.625   5.903  0.3582 -0.2130 -0.2547
  139CHL1   H2516538   5.070   2.581   5.883  1.4262 -3.4792  0.9596
  139CHL1   C2616539   5.271   2.506   5.916  0.2907  0.0495  0.0362
  139CHL1  H26A16540   5.376   2.540   5.925 -0.2052  1.3672  1.1562
  139CHL1  H26B16541   5.247   2.442   6.004  1.0104 -0.5945 -0.2219
  139CHL1  H26C16542   5.257   2.444   5.825 -0.8264  0.8683 -0.3762
  139CHL1   C2716543   5.162   2.710   6.033  0.0907  0.0690  0.4169
  139CHL1  H27A16544   5.267   2.733   6.060  0.9342  0.3636 -2.7419
  139CHL1  H27B16545   5.113   2.805   6.004 -1.1125 -0.6506  0.0394
  139CHL1  H27C16546   5.106   2.644   6.104  0.1295 -1.6594 -1.0839
  140CHL1    C316547   0.542   3.659   4.938  0.3087  0.2469 -1.0626
  140CHL1    H316548   0.492   3.758   4.946 -2.0163 -0.9885  2.4006
  140CHL1    O316549   0.569   3.624   4.801 -0.2596 -0.2400  0.9291
  140CHL1   H3'16550   0.496   3.566   4.782  0.6527 -1.1653  0.1609
  140CHL1    C416551   0.674   3.671   5.004 -0.1292  0.5437 -0.3403
  140CHL1   H4A16552   0.737   3.582   4.983 -0.6274  0.3709 -1.1226
  140CHL1   H4B16553   0.725   3.764   4.968 -0.5178  0.8723 -0.0508
  140CHL1    C516554   0.668   3.686   5.154 -0.4469  0.4002  0.3202
  140CHL1    C616555   0.727   3.789   5.213  0.3939  0.2870  0.2061
  140CHL1    H616556   0.795   3.862   5.167 -0.2866  1.1823  0.5744
  140CHL1    C716557   0.714   3.804   5.361  0.9091 -0.4891  0.0216
  140CHL1   H7A16558   0.816   3.830   5.395  0.7184 -0.0555  0.2765
  140CHL1   H7B16559   0.641   3.885   5.381 -0.1388 -1.4124  0.0457
  140CHL1    C816560   0.666   3.679   5.440 -0.2533  0.3001 -0.0583
  140CHL1    H816561   0.754   3.612   5.442  0.8297  1.6895  0.4878
  140CHL1   C1416562   0.633   3.722   5.580  0.3648  0.1702  0.3647
  140CHL1   H1416563   0.545   3.790   5.579 -1.2097 -1.7526  1.4030
  140CHL1   C1516564   0.740   3.795   5.667  0.2917 -0.6259  0.2970
  140CHL1  H15A16565   0.840   3.748   5.653  0.6635  0.7126 -2.1772
  140CHL1  H15B16566   0.761   3.903   5.660  1.3222 -0.8347  0.0417
  140CHL1   C1616567   0.696   3.768   5.816 -0.5407  0.5047 -0.8167
  140CHL1  H16A16568   0.784   3.715   5.861 -0.0442  0.8750 -1.3406
  140CHL1  H16B16569   0.661   3.858   5.870 -1.3628  0.4621 -1.2673
  140CHL1   C1716570   0.572   3.668   5.806  0.4270 -0.3070  0.4658
  140CHL1   H1716571   0.484   3.732   5.784 -0.5950 -1.8732 -0.2275
  140CHL1   C1316572   0.591   3.603   5.667 -0.5250 -0.6191  0.6764
  140CHL1   C1816573   0.699   3.489   5.675 -0.3099 -0.0363 -0.0689
  140CHL1  H18A16574   0.784   3.519   5.740 -0.9543  0.2177  0.6771
  140CHL1  H18B16575   0.659   3.398   5.724  1.0084 -0.1274  0.8668
  140CHL1  H18C16576   0.744   3.467   5.576  1.8088 -1.5002  1.1435
  140CHL1   C1216577   0.466   3.538   5.603 -0.5162 -0.3299 -0.7209
  140CHL1  H12A16578   0.439   3.449   5.664 -2.0365 -0.7002 -1.8755
  140CHL1  H12B16579   0.387   3.615   5.598  0.9663  1.2198 -1.0608
  140CHL1   C1116580   0.492   3.489   5.458 -0.5916  0.5028 -0.1777
  140CHL1  H11A16581   0.573   3.413   5.466 -2.3140 -1.6451 -1.8021
  140CHL1  H11B16582   0.400   3.437   5.423 -1.0715  1.1460  0.0996
  140CHL1    C916583   0.542   3.609   5.373 -0.7192  0.0074  0.5495
  140CHL1    H916584   0.466   3.690   5.368  0.1380  0.7528 -1.9113
  140CHL1   C1016585   0.584   3.576   5.222 -0.1206 -0.8148 -1.1162
  140CHL1   C1916586   0.665   3.442   5.219  0.3305 -0.4243 -0.8755
  140CHL1  H19A16587   0.768   3.454   5.259 -0.3356 -1.2700  1.1986
  140CHL1  H19B16588   0.614   3.361   5.276 -1.5706  0.3114 -1.4443
  140CHL1  H19C16589   0.665   3.403   5.114  0.2527  2.5938 -2.0936
  140CHL1    C116590   0.449   3.565   5.146 -0.0341  0.3679 -0.6164
  140CHL1   H1A16591   0.386   3.482   5.183 -2.7137  1.5096 -2.2862
  140CHL1   H1B16592   0.391   3.658   5.166  0.6609  0.8295 -0.6968
  140CHL1    C216593   0.452   3.547   4.995 -0.1359  0.1066 -0.2507
  140CHL1   H2A16594   0.350   3.559   4.954 -0.5708  2.1819  1.2774
  140CHL1   H2B16595   0.498   3.451   4.962 -0.4320  0.4773 -1.7979
  140CHL1   C2016596   0.537   3.575   5.921 -0.0345 -0.4090  0.7427
  140CHL1   H2016597   0.483   3.485   5.887 -0.0778  0.0641 -0.5030
  140CHL1   C2116598   0.444   3.648   6.020 -0.3674 -0.2995 -0.0025
  140CHL1  H21A16599   0.391   3.565   6.071  1.8030 -2.0126 -0.3649
  140CHL1  H21B16600   0.369   3.707   5.963 -0.6450  2.4172  2.9075
  140CHL1  H21C16601   0.496   3.707   6.098  1.3184 -1.6314 -0.0517
  140CHL1   C2216602   0.661   3.522   6.009 -0.6881 -0.2827  0.8898
  140CHL1  H22A16603   0.742   3.484   5.943 -0.9996  0.4058  0.0845
  140CHL1  H22B16604   0.703   3.612   6.059 -1.7758  0.7189  0.0808
  140CHL1   C2316605   0.630   3.415   6.110  0.1163  0.0757 -0.6476
  140CHL1  H23A16606   0.548   3.446   6.178  1.4357 -2.6720  2.4356
  140CHL1  H23B16607   0.597   3.334   6.042  0.5069 -0.4234 -0.2411
  140CHL1   C2416608   0.744   3.366   6.198  0.1266  0.4127  0.1205
  140CHL1  H24A16609   0.813   3.299   6.142 -1.2497 -2.2418  1.4301
  140CHL1  H24B16610   0.808   3.445   6.243  0.9157 -0.0330 -0.1928
  140CHL1   C2516611   0.691   3.284   6.320 -0.1975 -0.3061  0.1167
  140CHL1   H2516612   0.617   3.344   6.378 -1.5332 -2.1094  0.3871
  140CHL1   C2616613   0.804   3.240   6.415 -0.1380  0.0525 -0.4614
  140CHL1  H26A16614   0.845   3.145   6.376  0.6814  0.2764 -0.1592
  140CHL1  H26B16615   0.883   3.317   6.424  1.8217 -1.7847 -1.2384
  140CHL1  H26C16616   0.787   3.231   6.525  3.6375  2.9441  0.5651
  140CHL1   C2716617   0.604   3.162   6.275  0.2400  0.3426 -0.2820
  140CHL1  H27A16618   0.519   3.194   6.212  0.0380 -2.1562 -1.4242
  140CHL1  H27B16619   0.664   3.094   6.212 -1.8082 -4.7118  2.5307
  140CHL1  H27C16620   0.554   3.104   6.357 -1.7516  0.7657 -1.1295
  141DOPC     N16621   4.824   5.767   9.587  0.3816  0.1071 -0.6719
  141DOPC   C1216622   4.858   5.832   9.456 -0.2655 -0.5004 -0.0906
  141DOPC  H12A16623   4.847   5.940   9.460  1.3655 -0.1879 -2.3897
  141DOPC  H12B16624   4.784   5.806   9.382  0.0385  1.1049 -0.9976
  141DOPC   C1316625   4.685   5.805   9.633  0.2277 -0.6309  0.6793
  141DOPC  H13A16626   4.658   5.753   9.723 -1.4358 -1.8484 -0.4555
  141DOPC  H13B16627   4.675   5.913   9.636 -1.7732 -0.7815  0.7067
  141DOPC  H13C16628   4.609   5.788   9.558 -1.2759  0.5742  1.8389
  141DOPC   C1416629   4.928   5.820   9.687  0.6242  0.4862 -0.3299
  141DOPC  H14A16630   4.934   5.926   9.665  0.0454  0.0260 -3.0189
  141DOPC  H14B16631   4.898   5.800   9.788  4.6140  0.1070  0.9551
  141DOPC  H14C16632   5.020   5.764   9.674  0.8409  0.8325 -0.3092
  141DOPC   C1516633   4.832   5.627   9.575 -0.3712 -0.1732  1.0461
  141DOPC  H15A16634   4.756   5.586   9.511 -0.6244  1.2401  0.4018
  141DOPC  H15B16635   4.832   5.574   9.669  1.5440  0.5183  1.4979
  141DOPC  H15C16636   4.926   5.607   9.526 -2.0741  0.7033 -3.0022
  141DOPC   C1116637   4.990   5.789   9.392  0.7518  0.0014  0.3705
  141DOPC  H11A16638   4.977   5.694   9.337  1.1159 -0.1685  0.5725
  141DOPC  H11B16639   5.004   5.863   9.310  0.7355 -0.0973  0.2774
  141DOPC     P16640   5.240   5.713   9.450 -0.0393  0.4923 -0.1979
  141DOPC   O1316641   5.206   5.577   9.487 -0.4919 -0.7934  0.6361
  141DOPC   O1416642   5.356   5.775   9.510  0.0830  0.0892 -0.4134
  141DOPC   O1216643   5.105   5.790   9.477 -0.0323 -0.1706  0.0886
  141DOPC   O1116644   5.270   5.711   9.296  0.0055 -0.4272  0.1125
  141DOPC    C116645   5.292   5.843   9.236 -0.3735 -0.0968  0.1753
  141DOPC    HA16646   5.374   5.902   9.283  0.6682 -1.0879 -0.3338
  141DOPC    HB16647   5.192   5.889   9.226 -0.5175 -0.1188  1.3522
  141DOPC    C216648   5.333   5.817   9.092 -0.0252  0.3319 -0.5428
  141DOPC    HS16649   5.430   5.765   9.104 -0.6428 -0.3684  2.0294
  141DOPC   O2116650   5.344   5.947   9.016  0.6419  0.2241  0.3599
  141DOPC   C2116651   5.458   6.004   9.040  0.0433 -0.0317  0.1045
  141DOPC   O2216652   5.545   5.957   9.108 -0.4831 -0.5270 -0.2845
  141DOPC   C2216653   5.467   6.131   8.954  0.4914  0.4439 -0.0174
  141DOPC   H2R16654   5.518   6.205   9.020  1.6123  1.0391 -1.4936
  141DOPC   H2S16655   5.363   6.168   8.938  0.0722 -0.3558  0.7900
  141DOPC    C316656   5.240   5.718   9.018 -0.1780 -0.2870 -0.4549
  141DOPC    HX16657   5.137   5.740   9.052  0.8275  0.5127  2.3447
  141DOPC    HY16658   5.277   5.620   9.056  0.6295  0.1034 -0.2153
  141DOPC   O3116659   5.271   5.714   8.877  0.2366 -0.3150 -0.1953
  141DOPC   C3116660   5.172   5.757   8.801  0.1395 -0.3021  0.5712
  141DOPC   O3216661   5.072   5.813   8.841 -0.0467  0.6938  0.3628
  141DOPC   C3216662   5.205   5.741   8.655 -0.5426 -0.0390  0.0276
  141DOPC   H2X16663   5.299   5.797   8.633  0.5241 -1.9390 -0.4184
  141DOPC   H2Y16664   5.240   5.636   8.649  1.1690  0.3743  1.6640
  141DOPC   C2316665   5.555   6.129   8.825 -0.0497  0.7570  0.0760
  141DOPC   H3R16666   5.654   6.082   8.846 -0.1739 -0.7552 -2.3613
  141DOPC   H3S16667   5.580   6.230   8.787 -1.1644  0.4914 -1.4691
  141DOPC   C2416668   5.475   6.045   8.715 -0.0856  0.2442  0.2973
  141DOPC   H4R16669   5.376   6.092   8.698  1.0778  1.9600 -2.4933
  141DOPC   H4S16670   5.466   5.944   8.761 -0.1214  0.4525  0.7452
  141DOPC   C2516671   5.539   6.033   8.578  0.3250  0.2587  0.1906
  141DOPC   H5R16672   5.637   5.981   8.585  0.3052  0.1606 -0.2560
  141DOPC   H5S16673   5.555   6.135   8.537  1.8968  0.9576  2.3533
  141DOPC   C2616674   5.459   5.956   8.471 -0.1610  1.0008  0.2843
  141DOPC   H6R16675   5.355   5.995   8.472 -1.2895 -1.5037 -2.9267
  141DOPC   H6S16676   5.468   5.850   8.503  1.3573  1.4069  1.3001
  141DOPC   C2716677   5.531   5.948   8.326 -0.0954 -0.1183  0.7572
  141DOPC   H7R16678   5.631   5.914   8.360 -0.5522  1.3655  4.0030
  141DOPC   H7S16679   5.544   6.045   8.273 -0.1672 -0.0437  0.8750
  141DOPC   C2816680   5.462   5.852   8.231  0.0587 -0.6740 -0.3330
  141DOPC   H8R16681   5.367   5.894   8.193 -0.1254 -1.1504 -0.4032
  141DOPC   H8S16682   5.433   5.762   8.289 -0.6616  0.5444  1.2774
  141DOPC   C2916683   5.548   5.814   8.115  0.1795 -0.4649 -0.2592
  141DOPC   H9R16684   5.652   5.794   8.143 -0.3376 -0.4880  1.8081
  141DOPC  C21016685   5.508   5.808   7.987 -0.2302 -0.5601  0.4981
  141DOPC  H10R16686   5.581   5.777   7.911 -0.4654  1.0135 -0.4214
  141DOPC  C21116687   5.379   5.827   7.919 -0.0359 -0.0167  0.2863
  141DOPC  H11R16688   5.314   5.891   7.983  1.0606  1.6452 -0.2072
  141DOPC  H11S16689   5.328   5.730   7.899  1.1467 -0.1760 -2.4244
  141DOPC  C21216690   5.390   5.906   7.785 -0.4922 -0.8917  0.0785
  141DOPC  H12R16691   5.424   6.006   7.820  0.7732 -1.3806  0.2792
  141DOPC  H12S16692   5.287   5.923   7.746 -0.4795  0.0019  0.4113
  141DOPC  C21316693   5.477   5.855   7.674  0.1601  0.1604 -0.2415
  141DOPC  H13R16694   5.446   5.750   7.655  2.2593 -0.5393  0.0309
  141DOPC  H13S16695   5.582   5.842   7.706  1.0064  2.5627 -1.7748
  141DOPC  C21416696   5.470   5.940   7.553 -0.0883 -0.8684  0.3287
  141DOPC  H14R16697   5.516   6.038   7.577  1.5535 -1.1397 -1.4193
  141DOPC  H14S16698   5.365   5.966   7.526  0.5558 -1.3871 -3.2816
  141DOPC  C21516699   5.534   5.877   7.432  0.8695  0.5007  0.1553
  141DOPC  H15R16700   5.494   5.775   7.412 -0.7514  1.0348  0.5187
  141DOPC  H15S16701   5.639   5.858   7.460  0.2822 -2.7892  0.4567
  141DOPC  C21616702   5.521   5.973   7.317  0.2223  0.4419  1.4046
  141DOPC  H16R16703   5.584   6.062   7.334  2.7738 -0.7300 -1.1671
  141DOPC  H16S16704   5.415   5.998   7.293  0.1622 -0.7193  0.3536
  141DOPC  C21716705   5.590   5.912   7.189  0.5232  0.0163  0.2690
  141DOPC  H17R16706   5.563   5.808   7.158  1.5819  0.1053 -0.9833
  141DOPC  H17S16707   5.698   5.918   7.215  0.6584  1.6483 -0.6002
  141DOPC  C21816708   5.576   5.996   7.059 -0.0701  0.3808  1.5093
  141DOPC  H18R16709   5.474   5.989   7.016  0.2555 -1.9050  0.9554
  141DOPC  H18S16710   5.635   5.955   6.974 -2.0022 -1.4236  0.9463
  141DOPC  H18T16711   5.600   6.102   7.079  1.5251  0.4275 -0.4405
  141DOPC   C3316712   5.091   5.766   8.551 -0.5865  0.2646 -0.7571
  141DOPC   H3X16713   5.049   5.869   8.551 -4.1182 -1.0495  0.5717
  141DOPC   H3Y16714   5.002   5.709   8.585 -1.1440  1.5313 -0.0227
  141DOPC   C3416715   5.137   5.719   8.413  0.0322 -0.3064 -0.4068
  141DOPC   H4X16716   5.173   5.614   8.424  1.8073  0.2330 -0.6920
  141DOPC   H4Y16717   5.223   5.785   8.389  0.6758 -1.0702 -0.2702
  141DOPC   C3516718   5.023   5.715   8.308  0.3987 -0.3324 -0.0293
  141DOPC   H5X16719   4.977   5.815   8.324  0.4648 -0.5915  2.1055
  141DOPC   H5Y16720   4.942   5.646   8.335 -0.7690  0.5980 -1.0249
  141DOPC   C3616721   5.074   5.685   8.168  0.0465  1.2456  0.1525
  141DOPC   H6X16722   5.161   5.747   8.140 -0.1306  1.5069  0.1814
  141DOPC   H6Y16723   5.114   5.582   8.157  1.4755  1.9866 -2.6788
  141DOPC   C3716724   4.963   5.719   8.071  0.5382 -0.1688  0.3691
  141DOPC   H7X16725   4.876   5.653   8.094  1.0041 -0.8291  0.2854
  141DOPC   H7Y16726   4.920   5.821   8.077 -1.7974 -0.9239 -1.8696
  141DOPC   C3816727   5.007   5.696   7.926  0.1543 -0.3668 -0.5619
  141DOPC   H8X16728   5.025   5.590   7.897  0.2979  0.5123 -4.1774
  141DOPC   H8Y16729   5.107   5.742   7.915  0.9426 -2.0682 -0.7744
  141DOPC   C3916730   4.903   5.745   7.823 -0.2644 -0.2728  0.2239
  141DOPC   H9X16731   4.802   5.744   7.867 -0.9457 -0.4243 -1.3022
  141DOPC  C31016732   4.931   5.792   7.701  0.2468 -0.4298  0.0205
  141DOPC  H10X16733   4.854   5.841   7.639  0.4452 -1.2998 -0.9399
  141DOPC  C31116734   5.070   5.776   7.637  0.5837  0.0481  0.2651
  141DOPC  H11X16735   5.116   5.703   7.707  1.3687  0.0534 -0.2400
  141DOPC  H11Y16736   5.119   5.875   7.631  1.1633 -0.2974 -3.5368
  141DOPC  C31216737   5.093   5.720   7.493  0.7627  0.0004  0.6846
  141DOPC  H12X16738   5.033   5.627   7.484 -0.1054  0.6656 -0.9975
  141DOPC  H12Y16739   5.201   5.696   7.492  0.4650 -1.5868 -1.8577
  141DOPC  C31316740   5.063   5.829   7.383 -0.2706 -0.9455 -0.3015
  141DOPC  H13X16741   4.956   5.850   7.401  0.1948  0.9418  0.5555
  141DOPC  H13Y16742   5.120   5.923   7.403  0.0062 -1.3412  0.7863
  141DOPC  C31416743   5.095   5.778   7.242 -0.1514  0.2650 -0.9581
  141DOPC  H14X16744   5.206   5.777   7.235 -0.0396 -0.7748  0.4884
  141DOPC  H14Y16745   5.057   5.674   7.231 -1.7739  0.8121 -0.8072
  141DOPC  C31516746   5.048   5.876   7.134 -1.1765 -0.6340  0.6152
  141DOPC  H15X16747   5.105   5.971   7.147  0.2925 -1.8148  3.9613
  141DOPC  H15Y16748   4.942   5.900   7.154 -1.1207 -1.6341  2.2840
  141DOPC  C31616749   5.076   5.801   7.008  0.6856  0.9628  0.2597
  141DOPC  H16X16750   5.184   5.784   6.988  0.9828  1.6286  1.2340
  141DOPC  H16Y16751   5.031   5.700   7.007  1.5418  0.5610 -1.8742
  141DOPC  C31716752   5.023   5.879   6.888 -0.3743 -0.9552  0.8817
  141DOPC  H17X16753   4.916   5.908   6.895 -0.3669  1.3041 -3.9604
  141DOPC  H17Y16754   5.074   5.977   6.879 -1.1031 -0.5802  0.7224
  141DOPC  C31816755   5.041   5.799   6.760 -0.7363  0.6316 -0.2946
  141DOPC  H18X16756   5.149   5.777   6.752 -0.4684  2.4379 -5.6973
  141DOPC  H18Y16757   4.978   5.707   6.761  1.2924 -0.9001 -2.6225
  141DOPC  H18Z16758   5.013   5.864   6.674  1.2666 -2.1101 -3.2767
  142DOPC     N16759   6.139   0.851   9.698 -0.1063 -0.0815 -0.4789
  142DOPC   C1216760   6.068   0.738   9.621 -0.7821 -0.3934 -0.4449
  142DOPC  H12A16761   5.964   0.764   9.633 -0.8329  0.1578 -1.9430
  142DOPC  H12B16762   6.076   0.643   9.672  1.1101 -0.1987 -0.3167
  142DOPC   C1316763   6.110   0.982   9.635  0.1455 -0.2512  0.2453
  142DOPC  H13A16764   6.150   1.065   9.691  2.0548 -0.9488 -0.0112
  142DOPC  H13B16765   6.163   0.993   9.541 -0.1002 -0.4562  0.0820
  142DOPC  H13C16766   6.005   0.994   9.614  0.7585 -0.2063 -3.6903
  142DOPC   C1416767   6.285   0.831   9.698 -0.3006  1.4326  0.1927
  142DOPC  H14A16768   6.313   0.758   9.774 -0.5179 -0.7954 -1.7416
  142DOPC  H14B16769   6.323   0.780   9.610 -0.1603  0.3831  0.8448
  142DOPC  H14C16770   6.342   0.922   9.701  3.1993 -0.4109 -2.2323
  142DOPC   C1516771   6.088   0.863   9.840  0.1069  0.7722 -0.0155
  142DOPC  H15A16772   6.101   0.775   9.901 -0.0001  0.9263  0.2290
  142DOPC  H15B16773   5.981   0.877   9.832  0.0545  0.5210  0.2008
  142DOPC  H15C16774   6.129   0.946   9.895 -2.7360  2.3110 -0.0449
  142DOPC   C1116775   6.098   0.707   9.478 -0.1111  0.5929  0.9305
  142DOPC  H11A16776   6.036   0.625   9.437  0.8820  0.4383 -0.3174
  142DOPC  H11B16777   6.066   0.790   9.412  1.4453  1.0358  0.7050
  142DOPC     P16778   6.304   0.531   9.457  0.2196 -0.1300  0.5354
  142DOPC   O1316779   6.210   0.434   9.518  0.2078 -0.2991 -0.0531
  142DOPC   O1416780   6.438   0.547   9.515  0.3344 -0.0099  0.1328
  142DOPC   O1216781   6.236   0.678   9.452 -0.1106  0.4129  0.3254
  142DOPC   O1116782   6.318   0.493   9.304  0.0073 -0.5726  0.1299
  142DOPC    C116783   6.209   0.524   9.209  0.0235 -0.6148 -0.1969
  142DOPC    HA16784   6.233   0.618   9.155  0.2240 -0.7252 -0.3042
  142DOPC    HB16785   6.108   0.549   9.248  1.3970  2.7067  1.6896
  142DOPC    C216786   6.205   0.408   9.102  0.0770  0.3521  0.1735
  142DOPC    HS16787   6.157   0.326   9.160 -0.1966  2.5008  3.1574
  142DOPC   O2116788   6.334   0.378   9.053 -0.2271 -0.0056 -0.5097
  142DOPC   C2116789   6.350   0.244   9.024 -0.4717  0.3878 -0.4842
  142DOPC   O2216790   6.287   0.156   9.081 -0.0183  0.0849 -0.6042
  142DOPC   C2216791   6.454   0.215   8.924 -0.6707 -0.0194 -0.8151
  142DOPC   H2R16792   6.550   0.260   8.957 -0.8064  0.5375 -1.1676
  142DOPC   H2S16793   6.425   0.260   8.827  0.2220 -2.3249 -2.2423
  142DOPC    C316794   6.101   0.440   8.984 -0.4543  0.4727 -0.1287
  142DOPC    HX16795   6.144   0.520   8.920  0.2926 -1.3322 -1.9715
  142DOPC    HY16796   6.007   0.473   9.034  0.5740  2.4184  0.6455
  142DOPC   O3116797   6.079   0.341   8.879  0.0069  0.2133  0.1694
  142DOPC   C3116798   5.958   0.336   8.821  0.1182  0.4309 -0.1503
  142DOPC   O3216799   5.859   0.393   8.857  0.2792 -0.0489 -0.1407
  142DOPC   C3216800   5.954   0.241   8.703 -0.0124 -0.0835  0.1239
  142DOPC   H2X16801   6.058   0.220   8.672  0.7351  2.4710  0.6414
  142DOPC   H2Y16802   5.897   0.152   8.738 -1.0916  0.1980 -0.8427
  142DOPC   C2316803   6.489   0.068   8.906 -0.6475 -0.0587 -0.1865
  142DOPC   H3R16804   6.410   0.002   8.949 -0.6161  0.2169  0.3042
  142DOPC   H3S16805   6.589   0.047   8.950 -0.7885 -0.9254 -0.2709
  142DOPC   C2416806   6.496   0.031   8.758 -0.1536  0.3766  0.3782
  142DOPC   H4R16807   6.542  -0.070   8.754  0.8349  0.7248  1.9692
  142DOPC   H4S16808   6.561   0.104   8.705  0.5695  0.9339  1.9691
  142DOPC   C2516809   6.362   0.016   8.689  0.2048 -0.0919 -0.1019
  142DOPC   H5R16810   6.290   0.100   8.703  0.7316  0.5088 -0.8455
  142DOPC   H5S16811   6.313  -0.073   8.732 -0.0545  0.2850  0.3948
  142DOPC   C2616812   6.379  -0.025   8.539  0.3671 -0.1394  0.2213
  142DOPC   H6R16813   6.407  -0.132   8.549  1.5126  0.2073  0.8619
  142DOPC   H6S16814   6.456   0.040   8.493  0.2762 -1.1536 -1.4356
  142DOPC   C2716815   6.247  -0.015   8.455  0.5548 -0.5636  0.1380
  142DOPC   H7R16816   6.230   0.090   8.422  0.7033 -0.4835  0.3198
  142DOPC   H7S16817   6.167  -0.044   8.526  0.5867  1.1723  0.9271
  142DOPC   C2816818   6.248  -0.119   8.335 -0.1289 -0.4958 -0.4446
  142DOPC   H8R16819   6.275  -0.220   8.375 -0.2397 -0.2599  0.2359
  142DOPC   H8S16820   6.329  -0.090   8.265 -0.0339 -0.8944 -0.5026
  142DOPC   C2916821   6.110  -0.124   8.273  0.3093 -0.8448  0.8677
  142DOPC   H9R16822   6.025  -0.153   8.336 -2.0502 -0.2100 -1.8249
  142DOPC  C21016823   6.093  -0.116   8.143 -0.3687  0.8352 -0.1724
  142DOPC  H10R16824   5.987  -0.112   8.115  0.3373  1.2779 -3.2440
  142DOPC  C21116825   6.190  -0.108   8.029  0.5038  0.3038 -0.0056
  142DOPC  H11R16826   6.294  -0.105   8.069  0.6695 -0.0136 -0.3952
  142DOPC  H11S16827   6.151  -0.020   7.974 -0.8569  0.5409  1.2781
  142DOPC  C21216828   6.164  -0.223   7.923  0.2324 -0.3305  0.0762
  142DOPC  H12R16829   6.061  -0.222   7.882 -0.1463 -0.2261  1.0116
  142DOPC  H12S16830   6.179  -0.322   7.973  1.4193 -0.3845 -0.3545
  142DOPC  C21316831   6.260  -0.207   7.807 -0.5598 -0.6601  0.6049
  142DOPC  H13R16832   6.358  -0.221   7.857 -1.0795  0.6210  2.0573
  142DOPC  H13S16833   6.250  -0.101   7.775  0.1171 -0.8035 -0.1218
  142DOPC  C21416834   6.246  -0.311   7.685  0.6905 -0.4525 -0.1831
  142DOPC  H14R16835   6.141  -0.295   7.651  0.0922 -0.8150  1.3906
  142DOPC  H14S16836   6.252  -0.420   7.703 -0.9633 -0.6381 -0.5434
  142DOPC  C21516837   6.353  -0.272   7.578 -0.1882 -0.3468 -0.7047
  142DOPC  H15R16838   6.459  -0.281   7.609  0.0309 -1.2258 -1.6473
  142DOPC  H15S16839   6.325  -0.169   7.548 -0.2039 -0.1070  0.1239
  142DOPC  C21616840   6.339  -0.349   7.454 -0.2796  0.1980  0.2895
  142DOPC  H16R16841   6.234  -0.337   7.418  0.0594 -0.7346 -1.1299
  142DOPC  H16S16842   6.359  -0.452   7.491  0.9231 -0.0225 -0.8988
  142DOPC  C21716843   6.431  -0.335   7.333 -0.0055 -0.4304  0.4619
  142DOPC  H17R16844   6.534  -0.358   7.368  1.6587  0.7123 -3.2099
  142DOPC  H17S16845   6.437  -0.229   7.299  1.1169 -1.0472 -1.4108
  142DOPC  C21816846   6.415  -0.430   7.212 -0.4036  0.4458 -0.3667
  142DOPC  H18R16847   6.479  -0.395   7.128  0.9896 -0.4942  0.2463
  142DOPC  H18S16848   6.308  -0.435   7.186 -0.7637 -1.0805  1.1966
  142DOPC  H18T16849   6.448  -0.533   7.239 -0.3420 -0.4913 -3.6278
  142DOPC   C3316850   5.889   0.316   8.582 -0.4315  0.2324  0.5278
  142DOPC   H3X16851   5.939   0.413   8.561  0.6260 -0.3526  0.2981
  142DOPC   H3Y16852   5.781   0.341   8.592 -0.5055  0.5403 -0.8800
  142DOPC   C3416853   5.898   0.225   8.452 -0.5864  0.7030 -0.6533
  142DOPC   H4X16854   5.838   0.132   8.464  0.7745 -0.1501 -0.2433
  142DOPC   H4Y16855   6.003   0.188   8.445 -0.8196 -0.0800 -0.1729
  142DOPC   C3516856   5.853   0.291   8.320  0.2324  0.0251 -0.5776
  142DOPC   H5X16857   5.914   0.381   8.299 -1.2435  1.0329 -0.6609
  142DOPC   H5Y16858   5.745   0.317   8.309 -0.2449 -1.9754 -1.0982
  142DOPC   C3616859   5.863   0.186   8.214  0.7107  0.3317 -0.1101
  142DOPC   H6X16860   5.968   0.150   8.222  0.0142 -1.6091  0.7725
  142DOPC   H6Y16861   5.796   0.102   8.242  0.8999 -0.1093 -0.9526
  142DOPC   C3716862   5.816   0.235   8.080  0.4132 -0.0097  1.1904
  142DOPC   H7X16863   5.726   0.299   8.080  1.4086  1.4637  0.0804
  142DOPC   H7Y16864   5.897   0.298   8.037  2.5702 -1.9793  2.0735
  142DOPC   C3816865   5.782   0.118   7.984 -0.2626 -0.3193 -0.2521
  142DOPC   H8X16866   5.693   0.058   8.013  1.0544 -1.6249  1.2642
  142DOPC   H8Y16867   5.865   0.044   7.977 -0.6449 -0.5939 -2.9299
  142DOPC   C3916868   5.741   0.157   7.839  0.2235  0.3771 -0.7202
  142DOPC   H9X16869   5.636   0.182   7.817  0.6119  0.6809 -2.2840
  142DOPC  C31016870   5.819   0.135   7.730 -0.1062 -0.1465  0.1661
  142DOPC  H10X16871   5.790   0.185   7.636 -0.6143 -3.0425 -1.3225
  142DOPC  C31116872   5.958   0.087   7.731 -0.4215  0.8461 -0.7715
  142DOPC  H11X16873   5.968  -0.013   7.779 -0.2356  0.6110 -1.2931
  142DOPC  H11Y16874   6.018   0.155   7.795 -1.0062  0.5560  0.1066
  142DOPC  C31216875   6.020   0.068   7.589 -0.3551 -0.0199 -0.0017
  142DOPC  H12X16876   6.129   0.058   7.604 -0.1526  1.4356 -0.4106
  142DOPC  H12Y16877   5.997   0.155   7.524  0.5522  0.2215 -0.0011
  142DOPC  C31316878   5.967  -0.063   7.530 -0.2885  0.2682  0.6987
  142DOPC  H13X16879   5.967  -0.157   7.589  0.4382 -0.1063  0.1297
  142DOPC  H13Y16880   5.861  -0.045   7.502  0.2872 -0.1978 -2.1869
  142DOPC  C31416881   6.018  -0.089   7.383  0.2481 -0.1023  0.6504
  142DOPC  H14X16882   6.030   0.006   7.327  2.0183 -1.0506 -0.6706
  142DOPC  H14Y16883   6.122  -0.127   7.397  1.1824  2.3201  0.7500
  142DOPC  C31516884   5.938  -0.187   7.301 -0.0057  0.3287 -0.4200
  142DOPC  H15X16885   5.855  -0.124   7.263 -1.3946 -0.0049  1.8751
  142DOPC  H15Y16886   5.902  -0.264   7.373 -5.1828  1.6200 -1.2276
  142DOPC  C31616887   6.016  -0.237   7.173 -0.5981  0.0350 -0.0047
  142DOPC  H16X16888   6.034  -0.152   7.105  1.2856 -0.9057 -0.7356
  142DOPC  H16Y16889   6.115  -0.269   7.214 -0.4217  0.5051 -0.0611
  142DOPC  C31716890   5.952  -0.354   7.099  0.1458 -0.2678 -0.3092
  142DOPC  H17X16891   5.913  -0.439   7.159  1.5603  0.4009  1.6639
  142DOPC  H17Y16892   5.865  -0.315   7.043 -0.1038 -2.1044 -1.2615
  142DOPC  C31816893   6.052  -0.411   6.991 -0.7130  0.3388 -0.9548
  142DOPC  H18X16894   6.119  -0.331   6.950 -2.0211  2.8222  1.4368
  142DOPC  H18Y16895   6.126  -0.478   7.039  0.3982  1.6569 -0.7537
  142DOPC  H18Z16896   5.993  -0.461   6.912 -0.8143 -3.0258  1.0522
  143DOPC     N16897   3.506   6.568   9.245 -1.1086  0.4314  0.5157
  143DOPC   C1216898   3.417   6.494   9.156 -0.1354 -0.7273  0.2444
  143DOPC  H12A16899   3.316   6.526   9.176 -0.4720 -2.1891  1.0292
  143DOPC  H12B16900   3.420   6.389   9.180  0.4384 -0.6655  0.4571
  143DOPC   C1316901   3.510   6.716   9.217  0.1872  0.4183  0.7435
  143DOPC  H13A16902   3.418   6.765   9.244  0.1732 -0.3759  2.1993
  143DOPC  H13B16903   3.589   6.764   9.273  2.2384 -0.0929 -1.5143
  143DOPC  H13C16904   3.532   6.737   9.113 -0.0692  0.1926  0.6439
  143DOPC   C1416905   3.650   6.521   9.235 -0.0459 -0.3269  0.2242
  143DOPC  H14A16906   3.717   6.567   9.306  0.7292 -0.9862 -0.0537
  143DOPC  H14B16907   3.648   6.413   9.239  1.0995 -0.4394 -1.0520
  143DOPC  H14C16908   3.686   6.542   9.135  0.6900  3.3452  1.1200
  143DOPC   C1516909   3.462   6.553   9.383 -0.7871 -0.3212 -0.0232
  143DOPC  H15A16910   3.547   6.576   9.445 -0.2800 -1.4396 -0.2860
  143DOPC  H15B16911   3.427   6.456   9.414 -1.7661  0.2653  0.7570
  143DOPC  H15C16912   3.379   6.620   9.402  0.0561  0.7438 -0.0097
  143DOPC   C1116913   3.438   6.496   8.997  0.0489  0.1628  0.0607
  143DOPC  H11A16914   3.542   6.466   8.976 -0.6008 -1.1555 -1.4361
  143DOPC  H11B16915   3.368   6.415   8.967 -2.1027  2.2584 -0.9294
  143DOPC     P16916   3.438   6.669   8.799 -0.2420 -0.2099  0.2863
  143DOPC   O1316917   3.516   6.797   8.815 -0.4016  0.0371 -0.1849
  143DOPC   O1416918   3.304   6.678   8.730  0.2119  0.1462 -0.0413
  143DOPC   O1216919   3.407   6.622   8.939  0.3564  0.4681 -0.3786
  143DOPC   O1116920   3.524   6.561   8.728 -0.2614  0.2001  0.6302
  143DOPC    C116921   3.639   6.590   8.646 -0.2795 -0.0959 -1.0506
  143DOPC    HA16922   3.681   6.490   8.624 -0.2498 -0.2212 -0.4196
  143DOPC    HB16923   3.710   6.655   8.701 -2.4868  2.3032 -0.8266
  143DOPC    C216924   3.599   6.655   8.511 -0.5246  0.4152  0.1130
  143DOPC    HS16925   3.559   6.757   8.532 -2.1840  0.2375 -1.9274
  143DOPC   O2116926   3.516   6.569   8.439 -0.3638  0.0179  0.3310
  143DOPC   C2116927   3.444   6.644   8.353  0.3818  0.8186  0.3973
  143DOPC   O2216928   3.432   6.764   8.362  0.7662 -0.5857  0.5024
  143DOPC   C2216929   3.374   6.557   8.251 -0.4736 -0.4292  0.1970
  143DOPC   H2R16930   3.356   6.453   8.286  1.5322 -0.7892  0.2756
  143DOPC   H2S16931   3.427   6.548   8.154 -2.1081  1.2245 -0.9294
  143DOPC    C316932   3.731   6.673   8.427 -0.5306  0.1659 -0.0277
  143DOPC    HX16933   3.784   6.576   8.412 -0.8277 -0.0892  0.5437
  143DOPC    HY16934   3.796   6.744   8.482  0.6000 -0.2153 -0.8258
  143DOPC   O3116935   3.705   6.741   8.296 -0.0813  0.5626 -0.0383
  143DOPC   C3116936   3.702   6.871   8.289 -0.3961 -0.0871  0.4291
  143DOPC   O3216937   3.740   6.949   8.376 -0.0013 -0.5744 -0.3035
  143DOPC   C3216938   3.666   6.911   8.145  0.7955  0.3625  0.1643
  143DOPC   H2X16939   3.632   7.016   8.147  1.0292  0.4333  1.3862
  143DOPC   H2Y16940   3.762   6.911   8.089  0.5892  0.4157 -0.1901
  143DOPC   C2316941   3.244   6.611   8.211  0.4905  0.1207  0.2784
  143DOPC   H3R16942   3.255   6.719   8.188  0.2239  0.2896  0.9270
  143DOPC   H3S16943   3.164   6.597   8.286 -0.6302  0.1481 -0.8804
  143DOPC   C2416944   3.205   6.526   8.086 -0.0093  0.8755  0.0996
  143DOPC   H4R16945   3.095   6.539   8.079  0.0248  0.7167 -0.7593
  143DOPC   H4S16946   3.228   6.418   8.100  0.7467  1.1384  1.0481
  143DOPC   C2516947   3.284   6.570   7.959 -0.4392 -0.7485  0.3095
  143DOPC   H5R16948   3.392   6.547   7.966 -0.4350 -0.7260  0.3159
  143DOPC   H5S16949   3.271   6.680   7.955  0.1039 -0.7031 -0.2849
  143DOPC   C2616950   3.225   6.516   7.834  0.7232 -0.0441 -0.1841
  143DOPC   H6R16951   3.120   6.552   7.836  1.0422  0.9604  2.4547
  143DOPC   H6S16952   3.217   6.406   7.845 -0.2808 -0.1329 -1.5423
  143DOPC   C2716953   3.303   6.551   7.709 -0.4618 -0.2245  0.1948
  143DOPC   H7R16954   3.410   6.525   7.723  0.3118  2.0803 -0.8379
  143DOPC   H7S16955   3.302   6.662   7.699 -0.5889 -0.1694  0.7621
  143DOPC   C2816956   3.245   6.476   7.589 -0.2016  0.0332 -0.9111
  143DOPC   H8R16957   3.199   6.379   7.619 -2.3486  0.5033 -2.3896
  143DOPC   H8S16958   3.331   6.461   7.520 -0.8955  0.0959 -1.8154
  143DOPC   C2916959   3.135   6.546   7.522 -0.2973  0.2588  0.3160
  143DOPC   H9R16960   3.040   6.492   7.534 -1.1003  1.5017 -0.2794
  143DOPC  C21016961   3.147   6.649   7.435 -0.2394  0.4897 -0.0841
  143DOPC  H10R16962   3.059   6.686   7.381 -0.5130  1.1637  0.8082
  143DOPC  C21116963   3.267   6.721   7.377 -0.1865  0.2380 -0.0775
  143DOPC  H11R16964   3.353   6.660   7.411  0.7968 -0.0292 -2.8111
  143DOPC  H11S16965   3.277   6.829   7.401 -0.3970  0.0150  1.0796
  143DOPC  C21216966   3.274   6.709   7.221 -1.0768 -0.0600 -0.3123
  143DOPC  H12R16967   3.351   6.784   7.192 -1.2138  1.2240  2.3358
  143DOPC  H12S16968   3.174   6.744   7.187 -0.1286  1.3451 -1.8312
  143DOPC  C21316969   3.313   6.573   7.171 -0.3388 -0.1668  0.0859
  143DOPC  H13R16970   3.225   6.507   7.192  0.0484 -0.8542 -0.4197
  143DOPC  H13S16971   3.391   6.537   7.242 -0.4739  0.7634  0.7310
  143DOPC  C21416972   3.355   6.560   7.018  0.0045  0.7947 -0.1528
  143DOPC  H14R16973   3.461   6.594   7.014  0.0351  0.9480  1.2336
  143DOPC  H14S16974   3.289   6.620   6.951  0.1192  0.0351 -0.9520
  143DOPC  C21516975   3.340   6.415   6.982  0.2752  0.5840  0.4351
  143DOPC  H15R16976   3.229   6.409   6.975  0.2261  1.5300  0.3069
  143DOPC  H15S16977   3.367   6.355   7.072 -0.9388  2.7103  2.3299
  143DOPC  C21616978   3.401   6.350   6.855  0.4015 -1.2412 -0.0690
  143DOPC  H16R16979   3.359   6.247   6.853 -0.2500 -0.9766 -1.2839
  143DOPC  H16S16980   3.511   6.361   6.866 -0.0321  2.8887  1.7507
  143DOPC  C21716981   3.367   6.428   6.724  0.2007 -0.2928  0.5000
  143DOPC  H17R16982   3.400   6.533   6.743 -0.6899  0.0642  0.1334
  143DOPC  H17S16983   3.257   6.433   6.708  0.3140 -0.6043 -0.3969
  143DOPC  C21816984   3.429   6.376   6.588  0.3565  0.2772 -0.4809
  143DOPC  H18R16985   3.368   6.398   6.497 -1.3507 -5.1025 -0.9957
  143DOPC  H18S16986   3.434   6.265   6.588  0.2596  0.2501 -1.9891
  143DOPC  H18T16987   3.533   6.410   6.568  0.1315  1.2688  0.0049
  143DOPC   C3316988   3.559   6.808   8.081 -1.1813  0.1035  0.7656
  143DOPC   H3X16989   3.453   6.834   8.105 -0.7633  2.7162  0.0418
  143DOPC   H3Y16990   3.561   6.703   8.116 -0.0231 -0.4318 -0.8215
  143DOPC   C3416991   3.556   6.812   7.924  0.3379 -0.0074  0.4394
  143DOPC   H4X16992   3.578   6.916   7.892 -1.2129  0.3946  0.5886
  143DOPC   H4Y16993   3.459   6.778   7.881  1.4904  0.2248 -2.5891
  143DOPC   C3516994   3.670   6.714   7.874 -0.4582 -0.0004 -0.3061
  143DOPC   H5X16995   3.654   6.615   7.923  0.9051  0.7409  1.8061
  143DOPC   H5Y16996   3.767   6.755   7.909 -0.3664  1.9232 -2.5751
  143DOPC   C3616997   3.697   6.700   7.722  0.3812 -0.0835 -0.3361
  143DOPC   H6X16998   3.787   6.641   7.697 -0.0354 -0.1230 -1.8428
  143DOPC   H6Y16999   3.608   6.642   7.692  0.9327 -1.5434  0.7464
  143DOPC   C3717000   3.703   6.825   7.638 -0.0065 -0.4179  0.5704
  143DOPC   H7X17001   3.602   6.869   7.628  0.2499  0.1006  0.1683
  143DOPC   H7Y17002   3.758   6.904   7.693  0.0601  1.6627 -2.2407
  143DOPC   C3817003   3.763   6.791   7.501  0.4407 -0.0680 -0.0276
  143DOPC   H8X17004   3.865   6.752   7.520  2.8403  5.1835 -0.5168
  143DOPC   H8Y17005   3.804   6.879   7.448  1.1184  0.4815  1.3874
  143DOPC   C3917006   3.678   6.698   7.412 -0.0365  0.1404 -0.4843
  143DOPC   H9X17007   3.630   6.616   7.468  2.5968  0.9715  3.4185
  143DOPC  C31017008   3.651   6.716   7.283 -0.3483  0.1474  0.5094
  143DOPC  H10X17009   3.592   6.639   7.231  0.2756  0.0026  0.0025
  143DOPC  C31117010   3.712   6.831   7.199  0.4185  0.3522 -0.4615
  143DOPC  H11X17011   3.716   6.924   7.259  3.2375  0.0165  0.0220
  143DOPC  H11Y17012   3.652   6.848   7.107  0.8694  1.4583 -0.5699
  143DOPC  C31217013   3.860   6.793   7.162 -0.3011  0.3054 -0.2702
  143DOPC  H12X17014   3.915   6.779   7.257 -1.0507 -2.5436 -0.1603
  143DOPC  H12Y17015   3.903   6.877   7.103  0.1424  1.4476  1.6133
  143DOPC  C31317016   3.882   6.673   7.066 -0.0646 -0.1162  0.6342
  143DOPC  H13X17017   3.991   6.660   7.046 -0.5660  0.1444 -2.9461
  143DOPC  H13Y17018   3.841   6.581   7.113 -1.1230  1.6837  3.5111
  143DOPC  C31417019   3.808   6.683   6.935  0.1049  0.6519  0.7502
  143DOPC  H14X17020   3.698   6.674   6.949 -0.0793  1.1425 -0.2561
  143DOPC  H14Y17021   3.826   6.784   6.891  1.2378 -0.0624 -0.5255
  143DOPC  C31517022   3.849   6.572   6.839 -0.3559  0.2733  0.0953
  143DOPC  H15X17023   3.822   6.475   6.885  1.7623  0.1272  1.1903
  143DOPC  H15Y17024   3.959   6.588   6.830 -0.2734  0.4524  1.2422
  143DOPC  C31617025   3.799   6.586   6.693  1.0489 -0.1818 -0.4275
  143DOPC  H16X17026   3.811   6.482   6.654  0.3337 -0.7279  0.7598
  143DOPC  H16Y17027   3.694   6.620   6.705  0.6385 -1.2385 -0.8374
  143DOPC  C31717028   3.887   6.687   6.618 -0.7332 -0.2040 -0.2929
  143DOPC  H17X17029   3.863   6.787   6.660  0.3883  0.0398 -0.1998
  143DOPC  H17Y17030   3.995   6.666   6.634 -0.4347  0.9581 -0.7207
  143DOPC  C31817031   3.872   6.671   6.470  1.0600  0.1098 -0.4092
  143DOPC  H18X17032   3.922   6.756   6.418  0.5836 -0.6334 -2.1616
  143DOPC  H18Y17033   3.922   6.578   6.439  2.3318  0.1055  1.4924
  143DOPC  H18Z17034   3.768   6.647   6.440  0.2913  2.0737  0.5142
  144DOPC     N17035   4.361   4.654   9.066 -0.1227  0.0238  0.1494
  144DOPC   C1217036   4.455   4.536   9.046 -0.3053  0.6476  0.1273
  144DOPC  H12A17037   4.454   4.462   9.125 -1.5595 -0.7615 -1.1492
  144DOPC  H12B17038   4.552   4.585   9.047 -0.7407  1.6012 -1.1824
  144DOPC   C1317039   4.395   4.712   9.197  0.0006 -0.7839 -0.6343
  144DOPC  H13A17040   4.501   4.731   9.201  0.1388 -1.0220 -2.3980
  144DOPC  H13B17041   4.336   4.801   9.213  0.0137 -0.9143  0.1799
  144DOPC  H13C17042   4.356   4.639   9.267 -0.7989 -0.9702 -1.2587
  144DOPC   C1417043   4.217   4.603   9.076  0.4358  0.2892  0.0269
  144DOPC  H14A17044   4.195   4.546   9.164 -2.5441  0.6077 -0.4247
  144DOPC  H14B17045   4.141   4.679   9.066  1.3015  1.2506  0.5738
  144DOPC  H14C17046   4.193   4.535   8.995  0.1311  0.6981 -0.2323
  144DOPC   C1517047   4.377   4.763   8.967  0.0349  0.6341  1.4238
  144DOPC  H15A17048   4.325   4.725   8.881 -0.0649  1.4250  1.1300
  144DOPC  H15B17049   4.477   4.787   8.934 -0.9471  1.2015 -1.4014
  144DOPC  H15C17050   4.330   4.855   8.998 -2.4701 -0.3989  0.9614
  144DOPC   C1117051   4.449   4.470   8.906 -0.0448 -0.3098  0.6498
  144DOPC  H11A17052   4.466   4.544   8.825 -0.6363  0.6219  1.3578
  144DOPC  H11B17053   4.536   4.401   8.914  0.2495 -0.0610 -0.3103
  144DOPC     P17054   4.290   4.262   8.949  0.0337  0.4808 -0.0675
  144DOPC   O1317055   4.149   4.270   8.991  0.2941  0.3275  0.1626
  144DOPC   O1417056   4.392   4.212   9.052 -0.4578  0.2501 -0.3048
  144DOPC   O1217057   4.330   4.397   8.885  0.0343 -0.6342  0.1499
  144DOPC   O1117058   4.304   4.171   8.819 -0.3306  0.6421  0.1065
  144DOPC    C117059   4.215   4.192   8.707 -0.2072 -0.3776  0.2037
  144DOPC    HA17060   4.143   4.276   8.717 -1.4755 -1.2730 -1.0009
  144DOPC    HB17061   4.147   4.104   8.703 -1.7754  0.8237 -0.5619
  144DOPC    C217062   4.284   4.207   8.565  0.3723 -1.2920 -1.3255
  144DOPC    HS17063   4.382   4.156   8.566  1.0971 -0.0026  0.8840
  144DOPC   O2117064   4.306   4.355   8.547 -0.5245  0.4943  0.0751
  144DOPC   C2117065   4.421   4.382   8.481 -0.7440  0.1405  0.3717
  144DOPC   O2217066   4.502   4.305   8.443  0.0120  0.1524  0.2796
  144DOPC   C2217067   4.423   4.529   8.455 -1.0613 -0.8731  0.9047
  144DOPC   H2R17068   4.430   4.583   8.552 -1.8164 -1.4001  1.2601
  144DOPC   H2S17069   4.327   4.561   8.408  0.6484 -1.0793 -3.1612
  144DOPC    C317070   4.198   4.144   8.454  0.5628 -0.1578 -0.2527
  144DOPC    HX17071   4.092   4.179   8.464  0.4710 -0.9641  2.1951
  144DOPC    HY17072   4.197   4.035   8.473  1.1785 -0.1359 -0.0925
  144DOPC   O3117073   4.263   4.175   8.323 -0.1947  0.0214  0.0025
  144DOPC   C3117074   4.352   4.082   8.287 -0.2642 -0.3829  0.3386
  144DOPC   O3217075   4.393   3.997   8.362 -0.3267 -0.1350 -0.1347
  144DOPC   C3217076   4.403   4.120   8.143 -0.5643 -0.0984  0.0444
  144DOPC   H2X17077   4.330   4.192   8.101 -0.8067  0.0127  0.6502
  144DOPC   H2Y17078   4.495   4.182   8.155 -0.7766  0.7113 -2.1383
  144DOPC   C2317079   4.523   4.566   8.344 -0.0140  0.1555 -0.4700
  144DOPC   H3R17080   4.627   4.532   8.360  1.4579  4.2375 -0.2153
  144DOPC   H3S17081   4.538   4.676   8.339  1.9369 -0.0717 -0.2431
  144DOPC   C2417082   4.491   4.508   8.207  0.0318  0.7626  0.6873
  144DOPC   H4R17083   4.384   4.529   8.185  0.5840  2.1660 -0.9415
  144DOPC   H4S17084   4.488   4.398   8.221 -0.1730  0.8589  1.4831
  144DOPC   C2517085   4.587   4.537   8.093  0.0178 -1.0384  0.3396
  144DOPC   H5R17086   4.693   4.510   8.116  1.5749  3.2581 -0.8771
  144DOPC   H5S17087   4.592   4.647   8.084 -1.7244 -0.9803 -0.1605
  144DOPC   C2617088   4.546   4.486   7.957 -0.6429 -0.7153  0.2035
  144DOPC   H6R17089   4.446   4.524   7.926 -0.1284  0.5948  0.0672
  144DOPC   H6S17090   4.535   4.376   7.968 -3.0681 -0.4469  1.3340
  144DOPC   C2717091   4.651   4.510   7.843 -0.1667 -0.2129 -0.4489
  144DOPC   H7R17092   4.745   4.462   7.877 -0.5950 -0.4270  0.4498
  144DOPC   H7S17093   4.678   4.618   7.845  4.5004 -1.1097 -1.9667
  144DOPC   C2817094   4.616   4.460   7.703 -0.0188  0.2143 -0.8603
  144DOPC   H8R17095   4.615   4.349   7.700 -1.3123  0.1323  1.0381
  144DOPC   H8S17096   4.696   4.493   7.634  1.7422  1.4947  1.6792
  144DOPC   C2917097   4.486   4.508   7.648  0.0655 -0.4781  0.5894
  144DOPC   H9R17098   4.431   4.555   7.731  0.9815 -0.6319  1.3044
  144DOPC  C21017099   4.446   4.502   7.522  0.3102  0.1839  0.5774
  144DOPC  H10R17100   4.352   4.546   7.488 -0.7016 -1.0748  1.6546
  144DOPC  C21117101   4.527   4.436   7.409  1.1661 -0.5408 -0.2492
  144DOPC  H11R17102   4.595   4.361   7.453  1.3440 -0.6321 -0.6772
  144DOPC  H11S17103   4.586   4.512   7.353  1.1966 -0.6813 -0.4095
  144DOPC  C21217104   4.445   4.341   7.319  0.3326 -0.3657 -0.5344
  144DOPC  H12R17105   4.374   4.284   7.382  1.7187 -2.7012 -0.9816
  144DOPC  H12S17106   4.514   4.265   7.277  1.1778  0.3155 -0.4153
  144DOPC  C21317107   4.364   4.409   7.213 -0.6876  0.1416  0.2926
  144DOPC  H13R17108   4.291   4.471   7.270 -0.7498  0.4024 -0.0698
  144DOPC  H13S17109   4.322   4.337   7.140  1.9757 -0.3961 -0.8216
  144DOPC  C21417110   4.442   4.512   7.132 -0.3122 -0.0280 -0.0222
  144DOPC  H14R17111   4.539   4.468   7.101  0.3109  1.7398 -0.7272
  144DOPC  H14S17112   4.474   4.600   7.192  2.4234 -0.2080 -1.0663
  144DOPC  C21517113   4.375   4.551   7.007 -0.7114 -0.1360  0.3161
  144DOPC  H15R17114   4.396   4.659   6.990  1.0127  0.1745  3.6423
  144DOPC  H15S17115   4.265   4.542   7.023 -0.8512 -0.2915 -0.6638
  144DOPC  C21617116   4.425   4.474   6.891 -0.3716  0.8263 -0.4797
  144DOPC  H16R17117   4.344   4.485   6.815 -1.8497  2.6019  1.2602
  144DOPC  H16S17118   4.448   4.368   6.917 -0.6086  1.3788  2.1717
  144DOPC  C21717119   4.550   4.528   6.826  0.0492  0.7372  0.0632
  144DOPC  H17R17120   4.634   4.497   6.892  0.1050  2.0541  0.6226
  144DOPC  H17S17121   4.545   4.638   6.816 -1.3708  0.5659 -1.6439
  144DOPC  C21817122   4.558   4.478   6.680  0.2193  0.7340  0.3396
  144DOPC  H18R17123   4.663   4.485   6.645  0.4675 -1.8189  0.3954
  144DOPC  H18S17124   4.484   4.527   6.612 -0.7781 -1.4968 -0.2626
  144DOPC  H18T17125   4.526   4.372   6.669 -2.0934  1.3359  0.5843
  144DOPC   C3317126   4.416   3.998   8.051  0.6475  0.1325 -0.2551
  144DOPC   H3X17127   4.321   3.940   8.046 -0.7137  2.2133 -0.0170
  144DOPC   H3Y17128   4.495   3.928   8.083 -0.7285 -0.7613  1.3302
  144DOPC   C3417129   4.441   4.049   7.910 -0.0620  0.2813  0.1921
  144DOPC   H4X17130   4.526   4.121   7.900 -0.7890  1.0985 -0.2471
  144DOPC   H4Y17131   4.358   4.114   7.874  0.4224  0.8948  0.1600
  144DOPC   C3517132   4.444   3.939   7.801 -0.6457 -0.6537  0.3654
  144DOPC   H5X17133   4.348   3.884   7.820 -1.4299  0.7551  0.6082
  144DOPC   H5Y17134   4.532   3.872   7.809  1.2041  1.3861 -1.5777
  144DOPC   C3617135   4.434   3.989   7.657 -0.1007 -0.6363  0.2311
  144DOPC   H6X17136   4.347   4.057   7.642 -0.4574 -1.0909  0.1978
  144DOPC   H6Y17137   4.517   4.060   7.639  1.3667 -2.2761  0.2376
  144DOPC   C3717138   4.427   3.875   7.553 -0.2145 -0.9635  0.2387
  144DOPC   H7X17139   4.521   3.818   7.546  0.0015 -0.4714 -1.1303
  144DOPC   H7Y17140   4.347   3.801   7.574 -0.9420 -0.1218  0.5455
  144DOPC   C3817141   4.399   3.924   7.404  0.4054  0.8751  0.1498
  144DOPC   H8X17142   4.478   4.000   7.383  1.0512  0.9665  2.5293
  144DOPC   H8Y17143   4.298   3.970   7.404  1.2849  2.9179  0.2588
  144DOPC   C3917144   4.396   3.807   7.309 -0.0726 -0.6808 -0.0187
  144DOPC   H9X17145   4.366   3.712   7.357 -1.8065 -0.3496 -0.3715
  144DOPC  C31017146   4.424   3.814   7.176  0.2218 -0.7907 -0.4307
  144DOPC  H10X17147   4.414   3.717   7.124  0.5561 -0.6594 -0.7479
  144DOPC  C31117148   4.449   3.934   7.088  0.6494 -1.2402 -0.4489
  144DOPC  H11X17149   4.555   3.944   7.057  0.4328 -1.9264 -1.4742
  144DOPC  H11Y17150   4.429   4.019   7.157  1.5048 -0.2835 -1.3461
  144DOPC  C31217151   4.350   3.943   6.968 -0.3173 -0.0992 -0.3053
  144DOPC  H12X17152   4.246   3.927   7.003  0.2295 -2.7961  0.2597
  144DOPC  H12Y17153   4.379   3.865   6.895  0.2624 -2.9463  2.7277
  144DOPC  C31317154   4.342   4.081   6.898  0.0938 -0.0675 -0.3418
  144DOPC  H13X17155   4.312   4.164   6.965 -4.4237 -0.9413 -0.8974
  144DOPC  H13Y17156   4.446   4.093   6.863  0.8401 -0.0046  1.7867
  144DOPC  C31417157   4.245   4.087   6.775  0.5561  0.5674 -0.0228
  144DOPC  H14X17158   4.239   3.993   6.715 -1.1142  0.5084  0.2034
  144DOPC  H14Y17159   4.153   4.109   6.832  0.6646 -1.1020  0.8482
  144DOPC  C31517160   4.272   4.204   6.668 -0.3660 -0.2301 -0.5088
  144DOPC  H15X17161   4.306   4.295   6.722 -1.6444 -0.0600  0.0495
  144DOPC  H15Y17162   4.174   4.221   6.620 -0.0212  0.5428 -0.9624
  144DOPC  C31617163   4.393   4.169   6.572 -0.7405  0.2291 -0.0529
  144DOPC  H16X17164   4.398   4.248   6.495  1.2062 -2.2918 -2.7379
  144DOPC  H16Y17165   4.495   4.176   6.617 -1.6532  0.4137  2.1139
  144DOPC  C31717166   4.396   4.049   6.479 -0.3230  0.8453  0.6231
  144DOPC  H17X17167   4.478   4.064   6.406  0.0047 -1.4697  0.4588
  144DOPC  H17Y17168   4.427   3.961   6.539 -0.4439  0.0027 -0.5274
  144DOPC  C31817169   4.271   4.028   6.401 -0.2697 -0.4821 -0.3211
  144DOPC  H18X17170   4.229   4.123   6.362 -0.9334 -0.2814  0.8223
  144DOPC  H18Y17171   4.288   3.969   6.309 -0.9433 -0.0236 -0.7440
  144DOPC  H18Z17172   4.194   3.980   6.465  0.3437 -0.4423  0.4567
  145DOPC     N17173   4.537   0.235   9.570  0.0502 -0.9393 -0.4162
  145DOPC   C1217174   4.430   0.340   9.556  0.2980  0.0767 -0.1840
  145DOPC  H12A17175   4.326   0.314   9.548 -0.5804  3.3491 -0.7606
  145DOPC  H12B17176   4.456   0.398   9.468  0.7697 -1.3968 -1.0540
  145DOPC   C1317177   4.678   0.287   9.531  0.4917  0.2878 -0.1331
  145DOPC  H13A17178   4.744   0.204   9.510 -0.9467 -1.5253  2.0110
  145DOPC  H13B17179   4.666   0.338   9.437  1.0490 -2.1323 -1.5839
  145DOPC  H13C17180   4.705   0.371   9.594 -1.7129  1.3131 -0.4621
  145DOPC   C1417181   4.495   0.123   9.484 -0.0390  0.1317  0.1154
  145DOPC  H14A17182   4.401   0.078   9.516  0.8779 -0.8415  1.5965
  145DOPC  H14B17183   4.473   0.152   9.382  0.8710  0.6416  0.0597
  145DOPC  H14C17184   4.571   0.047   9.472 -1.2903 -0.6933 -5.1721
  145DOPC   C1517185   4.544   0.181   9.710 -0.6469  0.1774  0.0999
  145DOPC  H15A17186   4.445   0.159   9.746 -0.6800  1.5028  0.8796
  145DOPC  H15B17187   4.593   0.251   9.776  0.8943  0.9288 -1.7718
  145DOPC  H15C17188   4.603   0.091   9.719 -0.0473  0.2363 -2.3974
  145DOPC   C1117189   4.436   0.449   9.672 -0.1818 -0.0126 -0.1844
  145DOPC  H11A17190   4.348   0.516   9.682 -0.1398 -0.3041  3.0344
  145DOPC  H11B17191   4.430   0.397   9.770  0.5546 -2.4921 -1.3833
  145DOPC     P17192   4.581   0.640   9.556  0.5650  0.4955 -0.1016
  145DOPC   O1317193   4.727   0.648   9.524  0.1128  0.8054  0.1785
  145DOPC   O1417194   4.528   0.764   9.610  0.2824  0.0489 -0.0163
  145DOPC   O1217195   4.554   0.525   9.663  0.1257  0.2499  0.3701
  145DOPC   O1117196   4.500   0.596   9.427  0.1598  0.2122 -0.8426
  145DOPC    C117197   4.456   0.697   9.334  0.2096  0.4170  0.2028
  145DOPC    HA17198   4.471   0.802   9.365  1.7239  0.5389 -0.8189
  145DOPC    HB17199   4.345   0.686   9.331  0.0343  1.6455  1.3408
  145DOPC    C217200   4.512   0.682   9.192  0.0704  0.6644  0.5911
  145DOPC    HS17201   4.452   0.594   9.160  0.8098  0.9008 -1.5987
  145DOPC   O2117202   4.652   0.670   9.187 -0.2562 -0.5905 -0.4262
  145DOPC   C2117203   4.696   0.547   9.204 -0.1457  0.3749  0.0224
  145DOPC   O2217204   4.626   0.445   9.198 -0.0796  0.1845  0.1210
  145DOPC   C2217205   4.841   0.546   9.232 -0.1201 -0.4081  0.8147
  145DOPC   H2R17206   4.849   0.537   9.342  1.0984  1.3992  0.9246
  145DOPC   H2S17207   4.875   0.648   9.204 -1.8819 -0.5863 -2.4257
  145DOPC    C317208   4.467   0.790   9.092 -0.1719 -0.2503 -1.0733
  145DOPC    HX17209   4.521   0.881   9.127 -0.6735 -0.7856  1.2519
  145DOPC    HY17210   4.359   0.814   9.101 -0.1250 -0.5994  1.0309
  145DOPC   O3117211   4.514   0.771   8.961  0.1352  0.4686  0.0368
  145DOPC   C3117212   4.438   0.696   8.878  0.0640  0.3851 -0.6831
  145DOPC   O3217213   4.342   0.627   8.906 -0.0040 -0.3222 -0.5548
  145DOPC   C3217214   4.507   0.702   8.742  0.5237  0.7297  0.3806
  145DOPC   H2X17215   4.504   0.806   8.706  1.1297 -0.0024 -1.9541
  145DOPC   H2Y17216   4.616   0.685   8.753  0.7350  2.1713  0.6207
  145DOPC   C2317217   4.916   0.437   9.160  0.6512  0.3640 -0.7774
  145DOPC   H3R17218   4.870   0.340   9.190 -1.9120  1.9382  0.6781
  145DOPC   H3S17219   5.017   0.434   9.208 -0.3871  2.3881  1.7893
  145DOPC   C2417220   4.951   0.459   9.011  0.1850  0.0485 -0.2603
  145DOPC   H4R17221   4.990   0.361   8.975 -1.3220 -1.5455  2.1157
  145DOPC   H4S17222   5.031   0.535   9.008 -1.7631  2.2653  0.8866
  145DOPC   C2517223   4.832   0.501   8.921 -0.1906 -0.2418  0.0623
  145DOPC   H5R17224   4.803   0.602   8.957 -0.7888  0.3487 -1.9619
  145DOPC   H5S17225   4.745   0.433   8.932 -1.1594  0.9879  0.2952
  145DOPC   C2617226   4.876   0.534   8.780 -0.4560 -0.0974 -0.1692
  145DOPC   H6R17227   4.974   0.585   8.794  1.1414 -3.0138  0.0431
  145DOPC   H6S17228   4.805   0.599   8.724 -1.2573  0.2730  1.2196
  145DOPC   C2717229   4.924   0.406   8.708  0.2309 -0.6122 -0.0943
  145DOPC   H7R17230   4.842   0.331   8.702  0.7936 -1.1915 -0.5941
  145DOPC   H7S17231   4.996   0.349   8.771 -0.4431 -1.0437  0.2991
  145DOPC   C2817232   4.992   0.430   8.572  0.3334 -0.5881  0.0955
  145DOPC   H8R17233   5.038   0.342   8.523  2.1697  1.1263 -1.4198
  145DOPC   H8S17234   5.074   0.502   8.595  1.8700 -2.6440  1.4805
  145DOPC   C2917235   4.888   0.492   8.476 -0.5931 -0.4756 -0.0059
  145DOPC   H9R17236   4.800   0.542   8.519 -0.6311  3.0091 -3.5901
  145DOPC  C21017237   4.897   0.503   8.343 -0.1152 -0.1537  0.3609
  145DOPC  H10R17238   4.821   0.561   8.289  0.7855 -0.6418 -1.4790
  145DOPC  C21117239   5.012   0.452   8.261  0.2364 -0.3568  0.1059
  145DOPC  H11R17240   5.068   0.375   8.318  1.6773  0.6827  0.1503
  145DOPC  H11S17241   5.077   0.539   8.239 -1.3813  0.7154 -0.6989
  145DOPC  C21217242   4.965   0.386   8.131 -0.9945 -0.2624 -0.8177
  145DOPC  H12R17243   4.870   0.330   8.150 -1.2398 -0.2255 -1.9116
  145DOPC  H12S17244   5.037   0.307   8.101 -0.6612 -0.4225  0.3448
  145DOPC  C21317245   4.942   0.489   8.017 -0.0238 -0.3520  0.0203
  145DOPC  H13R17246   5.038   0.541   7.995  0.2577 -0.9917 -0.2683
  145DOPC  H13S17247   4.872   0.570   8.045  1.1199  0.4956  0.5267
  145DOPC  C21417248   4.899   0.411   7.894 -0.8386 -1.1157  0.6384
  145DOPC  H14R17249   4.827   0.334   7.928  1.8858 -3.8743  0.5635
  145DOPC  H14S17250   4.990   0.354   7.866  0.5219  0.3166  1.9588
  145DOPC  C21517251   4.838   0.499   7.776 -0.0938  0.6005 -0.4137
  145DOPC  H15R17252   4.910   0.583   7.770  1.2441 -0.5353 -0.9481
  145DOPC  H15S17253   4.741   0.536   7.816 -0.0583 -0.5309  0.8118
  145DOPC  C21617254   4.835   0.431   7.646  0.1900 -0.4204  0.0166
  145DOPC  H16R17255   4.755   0.354   7.641  0.4353 -0.9325  2.6637
  145DOPC  H16S17256   4.930   0.378   7.627  0.3925 -0.1333  0.2182
  145DOPC  C21717257   4.837   0.533   7.522  0.1886  0.6002 -0.6460
  145DOPC  H17R17258   4.934   0.587   7.525  0.7141 -0.0919 -3.1382
  145DOPC  H17S17259   4.767   0.619   7.528 -0.3577  0.1037  0.3218
  145DOPC  C21817260   4.824   0.464   7.384  0.2354 -0.5916 -0.3686
  145DOPC  H18R17261   4.902   0.388   7.366  1.7192  1.2345 -2.0822
  145DOPC  H18S17262   4.835   0.532   7.296 -1.9650 -0.4238 -0.5737
  145DOPC  H18T17263   4.724   0.420   7.361 -0.8505  1.9178 -0.8144
  145DOPC   C3317264   4.441   0.611   8.634  0.1311 -0.4248 -0.4678
  145DOPC   H3X17265   4.334   0.641   8.639  0.3874  0.3205  1.0930
  145DOPC   H3Y17266   4.444   0.506   8.670 -0.5768  0.5141  2.6414
  145DOPC   C3417267   4.492   0.630   8.488 -0.4290  0.2541 -0.2163
  145DOPC   H4X17268   4.575   0.556   8.485  0.3646  0.7175  4.1247
  145DOPC   H4Y17269   4.534   0.732   8.492  0.3579 -0.1050  1.6594
  145DOPC   C3517270   4.385   0.615   8.373  0.3177  0.5345  0.0710
  145DOPC   H5X17271   4.293   0.660   8.418 -0.7696 -1.3233 -0.1887
  145DOPC   H5Y17272   4.363   0.507   8.359  0.8565  0.4076  0.1863
  145DOPC   C3617273   4.424   0.688   8.250  0.1042 -0.5089 -0.2796
  145DOPC   H6X17274   4.332   0.728   8.201 -0.0850  0.1873  0.6252
  145DOPC   H6Y17275   4.485   0.778   8.271  2.4021 -2.3230  1.2254
  145DOPC   C3717276   4.496   0.597   8.151 -0.3553  0.5958  0.5373
  145DOPC   H7X17277   4.600   0.576   8.183 -0.1335  1.2058  0.2289
  145DOPC   H7Y17278   4.456   0.493   8.148 -0.7368  0.7406 -2.0090
  145DOPC   C3817279   4.504   0.653   8.011  0.1210 -0.3457 -0.6861
  145DOPC   H8X17280   4.580   0.607   7.945  1.2148  0.8556 -0.3138
  145DOPC   H8Y17281   4.536   0.759   8.021  2.5319 -0.8600 -2.2107
  145DOPC   C3917282   4.371   0.658   7.932 -0.0985 -0.2525 -0.6535
  145DOPC   H9X17283   4.290   0.723   7.968 -0.1483  0.2247 -1.6035
  145DOPC  C31017284   4.350   0.573   7.834  0.2322  0.2779 -0.1237
  145DOPC  H10X17285   4.250   0.575   7.789 -0.3067 -0.0950  1.0040
  145DOPC  C31117286   4.436   0.466   7.781  0.7995  0.4827 -0.3670
  145DOPC  H11X17287   4.475   0.397   7.859  1.9283 -0.2500 -1.5493
  145DOPC  H11Y17288   4.516   0.517   7.724  0.3126  1.0694 -0.5319
  145DOPC  C31217289   4.360   0.393   7.666 -0.1173 -0.2975  0.0338
  145DOPC  H12X17290   4.259   0.364   7.702 -0.3440 -0.6454 -0.8693
  145DOPC  H12Y17291   4.424   0.309   7.633  0.7696  1.0129 -1.7804
  145DOPC  C31317292   4.331   0.483   7.538 -0.6048  0.1871  0.5050
  145DOPC  H13X17293   4.271   0.573   7.563  0.1889  1.4260 -1.7549
  145DOPC  H13Y17294   4.426   0.520   7.492 -0.1441 -0.7426  0.6877
  145DOPC  C31417295   4.250   0.408   7.426 -0.6639 -0.2269 -0.0372
  145DOPC  H14X17296   4.150   0.360   7.439 -0.3243 -1.7497 -2.4487
  145DOPC  H14Y17297   4.245   0.478   7.339  0.1507  0.1070  0.1868
  145DOPC  C31517298   4.333   0.288   7.375 -0.1860  0.2552  0.2728
  145DOPC  H15X17299   4.334   0.207   7.451  0.9710  1.8797  2.0773
  145DOPC  H15Y17300   4.438   0.324   7.372  0.3471 -1.0775  1.4643
  145DOPC  C31617301   4.295   0.232   7.239 -0.2024 -0.9490 -0.3477
  145DOPC  H16X17302   4.378   0.165   7.207 -0.0239  0.5044 -3.2389
  145DOPC  H16Y17303   4.197   0.180   7.241 -1.5682  1.4276 -1.1107
  145DOPC  C31717304   4.290   0.334   7.124 -0.1316 -0.0479 -0.2958
  145DOPC  H17X17305   4.263   0.275   7.034 -1.1120  1.7933 -1.2688
  145DOPC  H17Y17306   4.209   0.405   7.151  0.6489  0.8993 -0.3792
  145DOPC  C31817307   4.422   0.418   7.095 -0.7467 -0.2198  0.3602
  145DOPC  H18X17308   4.400   0.505   7.030 -0.6359 -1.2027 -1.0345
  145DOPC  H18Y17309   4.457   0.466   7.189  1.6652  1.3347 -1.1943
  145DOPC  H18Z17310   4.506   0.354   7.060  0.3177  1.3991 -0.1680
  146DOPC     N17311   5.004   4.910   9.072 -0.3934  0.7004 -0.1521
  146DOPC   C1217312   4.871   4.913   9.156  0.1698 -0.0489  0.2962
  146DOPC  H12A17313   4.889   4.911   9.263 -4.5036 -0.8825  1.2501
  146DOPC  H12B17314   4.817   4.822   9.139 -0.2259  0.0823  0.8361
  146DOPC   C1317315   4.969   4.873   8.930  0.0683  0.1510  0.2969
  146DOPC  H13A17316   5.053   4.886   8.863  1.3043  4.0095  2.3209
  146DOPC  H13B17317   4.945   4.768   8.930  2.6423 -0.5200  1.4607
  146DOPC  H13C17318   4.888   4.935   8.893  0.7463  1.0023  0.2061
  146DOPC   C1417319   5.088   4.806   9.143  0.6700 -0.4346  0.1154
  146DOPC  H14A17320   5.034   4.714   9.160 -0.7813  0.6958  1.9957
  146DOPC  H14B17321   5.173   4.775   9.084 -1.1781 -1.2661 -2.2801
  146DOPC  H14C17322   5.135   4.839   9.234 -0.5727 -0.1430  0.6806
  146DOPC   C1517323   5.072   5.038   9.085  0.2529  0.0879  0.5254
  146DOPC  H15A17324   5.158   5.043   9.019 -0.0084 -2.3549 -0.1071
  146DOPC  H15B17325   5.117   5.051   9.183 -1.4921 -0.3391  1.4304
  146DOPC  H15C17326   5.005   5.122   9.080 -0.0466  0.1185  3.3267
  146DOPC   C1117327   4.774   5.030   9.124  0.0911  0.4906 -0.2197
  146DOPC  H11A17328   4.740   5.017   9.019  0.2150 -0.6934 -0.1296
  146DOPC  H11B17329   4.677   5.016   9.175  0.3470 -3.2632 -0.4917
  146DOPC     P17330   4.808   5.247   9.257 -0.8759  0.1615  0.1709
  146DOPC   O1317331   4.844   5.159   9.368 -1.2228 -0.2235  0.8041
  146DOPC   O1417332   4.681   5.315   9.264 -0.6890 -0.3628 -0.3417
  146DOPC   O1217333   4.828   5.161   9.128  0.0050  0.1471 -0.0044
  146DOPC   O1117334   4.926   5.357   9.253 -0.3097 -0.6502 -0.0888
  146DOPC    C117335   4.919   5.469   9.157  0.2527  0.7052 -0.0863
  146DOPC    HA17336   4.990   5.545   9.197  1.2487 -0.2677  0.0421
  146DOPC    HB17337   4.818   5.515   9.155  0.3190  0.8902 -2.4780
  146DOPC    C217338   4.973   5.424   9.017 -0.3503 -0.4677 -0.1775
  146DOPC    HS17339   4.928   5.323   9.007  2.3135 -1.7210 -0.2975
  146DOPC   O2117340   5.116   5.427   9.025 -0.0803  0.2417  0.2262
  146DOPC   C2117341   5.184   5.347   8.949  0.1184 -0.2688  0.1399
  146DOPC   O2217342   5.144   5.279   8.858 -0.1050 -0.0257  0.5012
  146DOPC   C2217343   5.331   5.345   8.985  0.5110 -0.1672 -0.2159
  146DOPC   H2R17344   5.336   5.252   9.046 -3.5808 -0.0719  0.5179
  146DOPC   H2S17345   5.362   5.436   9.041  2.1689  0.2597 -1.7493
  146DOPC    C317346   4.909   5.520   8.917 -0.1802 -0.4423  0.1552
  146DOPC    HX17347   4.932   5.623   8.952 -0.5202 -0.7228  1.2277
  146DOPC    HY17348   4.799   5.527   8.914 -0.1419 -0.0099 -1.4825
  146DOPC   O3117349   4.971   5.502   8.786  0.1142  0.0188 -0.0391
  146DOPC   C3117350   4.912   5.406   8.713  0.0345  0.1206  0.2565
  146DOPC   O3217351   4.829   5.326   8.748  0.1486 -0.4659  0.2977
  146DOPC   C3217352   4.974   5.420   8.570 -0.2174  0.9911 -0.6151
  146DOPC   H2X17353   4.925   5.500   8.511  0.4352  2.6766  1.0675
  146DOPC   H2Y17354   5.083   5.443   8.575  0.1626 -0.7001 -0.2495
  146DOPC   C2317355   5.430   5.329   8.869 -0.1535 -0.2123 -0.0663
  146DOPC   H3R17356   5.424   5.224   8.833 -0.4035 -0.5991  1.0485
  146DOPC   H3S17357   5.535   5.352   8.899  0.6136 -1.9543 -1.2519
  146DOPC   C2417358   5.399   5.409   8.745 -0.4514  0.1747 -0.0339
  146DOPC   H4R17359   5.414   5.519   8.750 -3.0343  0.6766 -1.5971
  146DOPC   H4S17360   5.297   5.390   8.705 -0.7004 -2.2478  1.5459
  146DOPC   C2517361   5.497   5.362   8.633  0.2338 -0.0581  0.4262
  146DOPC   H5R17362   5.484   5.253   8.616  0.7327 -0.2354  1.1226
  146DOPC   H5S17363   5.603   5.389   8.652  0.5120 -0.1366 -0.9397
  146DOPC   C2617364   5.452   5.438   8.508 -0.3824 -0.1136  0.5513
  146DOPC   H6R17365   5.448   5.548   8.523 -0.6619 -0.0673  0.1376
  146DOPC   H6S17366   5.353   5.401   8.474 -0.7437  1.1140  0.2279
  146DOPC   C2717367   5.560   5.406   8.390 -0.3488 -0.0796  0.1875
  146DOPC   H7R17368   5.543   5.296   8.387  0.2157 -0.3147  2.7833
  146DOPC   H7S17369   5.661   5.442   8.419  0.2389 -2.3142  1.1657
  146DOPC   C2817370   5.513   5.472   8.257  0.1316 -0.3574  0.0966
  146DOPC   H8R17371   5.522   5.580   8.282  0.8565 -0.6753  1.2907
  146DOPC   H8S17372   5.403   5.455   8.254 -0.3172  1.4555  2.5112
  146DOPC   C2917373   5.587   5.438   8.129  0.4490  0.3702 -0.3637
  146DOPC   H9R17374   5.695   5.423   8.144  0.2058 -2.5242 -0.8907
  146DOPC  C21017375   5.537   5.407   8.012  1.0383 -0.2523  0.2412
  146DOPC  H10R17376   5.598   5.389   7.922  1.6501  0.5836  0.4832
  146DOPC  C21117377   5.386   5.421   7.974 -0.4375 -0.0251  0.7028
  146DOPC  H11R17378   5.324   5.488   8.038 -1.6857 -1.3546  0.9325
  146DOPC  H11S17379   5.338   5.322   7.987  0.7734 -0.5627  1.1616
  146DOPC  C21217380   5.351   5.450   7.823 -0.0353  0.2283  0.4296
  146DOPC  H12R17381   5.403   5.544   7.794 -0.2410  0.9604  2.2835
  146DOPC  H12S17382   5.241   5.462   7.811 -0.0213  0.4546  0.5139
  146DOPC  C21317383   5.404   5.344   7.720  0.0490 -0.2952 -0.2124
  146DOPC  H13R17384   5.369   5.244   7.753  1.1992 -0.9796 -0.9967
  146DOPC  H13S17385   5.512   5.353   7.744  0.4340  1.2656 -2.2457
  146DOPC  C21417386   5.382   5.353   7.574  0.3471 -0.7275  0.5106
  146DOPC  H14R17387   5.274   5.371   7.555  0.7348  1.3260  0.0160
  146DOPC  H14S17388   5.419   5.253   7.542 -0.9223 -1.3530  0.9585
  146DOPC  C21517389   5.466   5.463   7.501  0.6483  0.4107  0.1441
  146DOPC  H15R17390   5.573   5.449   7.527  0.6080 -0.9913 -0.3668
  146DOPC  H15S17391   5.439   5.566   7.534  0.4034  1.7525 -3.6566
  146DOPC  C21617392   5.442   5.450   7.349  1.0508 -0.6439  0.0572
  146DOPC  H16R17393   5.473   5.348   7.318 -0.0776 -0.9824  0.0143
  146DOPC  H16S17394   5.493   5.526   7.285 -1.0934 -1.6090 -3.0301
  146DOPC  C21717395   5.296   5.461   7.300  0.3415 -1.1633 -0.2456
  146DOPC  H17R17396   5.268   5.553   7.356  0.2426 -1.1144 -0.3774
  146DOPC  H17S17397   5.236   5.371   7.325 -0.8449  0.1142  1.8137
  146DOPC  C21817398   5.288   5.478   7.150  0.7471  0.0028 -0.4831
  146DOPC  H18R17399   5.180   5.464   7.130  0.7217 -2.4593  1.0292
  146DOPC  H18S17400   5.345   5.405   7.089  1.5225  1.1409 -1.1789
  146DOPC  H18T17401   5.317   5.581   7.120 -0.8640  1.2428  1.9373
  146DOPC   C3317402   4.949   5.292   8.469  0.0154 -0.1411  0.2894
  146DOPC   H3X17403   4.841   5.263   8.464  0.1743 -0.7001  0.0698
  146DOPC   H3Y17404   5.016   5.208   8.495 -1.3246 -1.1417  0.6024
  146DOPC   C3417405   4.990   5.335   8.331  0.6244  0.1045  0.2056
  146DOPC   H4X17406   5.097   5.368   8.331  1.4823 -2.4140  1.1457
  146DOPC   H4Y17407   4.934   5.427   8.303 -1.1093 -1.2641 -1.0174
  146DOPC   C3517408   4.973   5.225   8.224  0.1913  0.1419 -0.6617
  146DOPC   H5X17409   4.863   5.218   8.209 -0.7980  0.3375  4.5390
  146DOPC   H5Y17410   5.026   5.135   8.262  2.0835  1.6091  0.3590
  146DOPC   C3617411   5.016   5.266   8.088  0.3486 -0.1576  0.1720
  146DOPC   H6X17412   4.962   5.356   8.050  2.9076  0.2687 -2.8766
  146DOPC   H6Y17413   5.122   5.300   8.085 -0.0462  1.2438  0.9984
  146DOPC   C3717414   5.000   5.156   7.983  0.5246 -0.5916  0.1368
  146DOPC   H7X17415   5.049   5.063   8.020 -0.6343 -1.3912 -0.2811
  146DOPC   H7Y17416   4.894   5.133   7.963  0.1761  1.2468 -0.2598
  146DOPC   C3817417   5.057   5.204   7.848 -0.8015 -0.2187  0.4257
  146DOPC   H8X17418   5.037   5.117   7.782 -3.1946  0.5728  0.0305
  146DOPC   H8Y17419   5.165   5.222   7.869 -0.8078 -0.9216  1.1170
  146DOPC   C3917420   4.998   5.325   7.771 -0.4058  0.1198  0.2260
  146DOPC   H9X17421   4.994   5.421   7.825  1.0284  0.3993 -0.1183
  146DOPC  C31017422   4.984   5.328   7.640 -0.1674 -0.5170 -0.2825
  146DOPC  H10X17423   4.964   5.426   7.594  1.7072  0.2206  0.3733
  146DOPC  C31117424   5.024   5.221   7.542 -0.2469  0.5345  0.4285
  146DOPC  H11X17425   5.114   5.169   7.583  0.1889  0.0527 -1.0600
  146DOPC  H11Y17426   5.066   5.272   7.453  2.5832  1.3319  2.0773
  146DOPC  C31217427   4.917   5.123   7.491  0.0866 -0.0204  0.0438
  146DOPC  H12X17428   4.884   5.055   7.573 -2.2223 -0.9643 -1.5615
  146DOPC  H12Y17429   4.971   5.053   7.423  0.4521 -0.0504  0.3574
  146DOPC  C31317430   4.794   5.188   7.423 -0.5654  0.1822 -0.2439
  146DOPC  H13X17431   4.712   5.115   7.405 -0.6877  0.3491 -0.3719
  146DOPC  H13Y17432   4.744   5.262   7.489 -0.0260  1.5032 -1.2707
  146DOPC  C31417433   4.830   5.250   7.284 -1.3119 -0.1374 -0.2697
  146DOPC  H14X17434   4.910   5.186   7.243 -2.4615 -0.6039 -1.8572
  146DOPC  H14Y17435   4.741   5.245   7.217 -0.4229  3.3192 -1.9477
  146DOPC  C31517436   4.857   5.401   7.284 -0.3348 -0.1464 -0.0127
  146DOPC  H15X17437   4.955   5.413   7.335 -0.4823 -2.2517  0.8787
  146DOPC  H15Y17438   4.786   5.465   7.341 -0.4629  0.9430 -1.3761
  146DOPC  C31617439   4.867   5.451   7.133  0.5424  0.3373 -0.4144
  146DOPC  H16X17440   4.889   5.558   7.148 -0.3755  0.1913  2.4222
  146DOPC  H16Y17441   4.953   5.401   7.082 -1.4723 -2.2152 -1.5454
  146DOPC  C31717442   4.741   5.442   7.046 -0.0121  0.3717  0.1022
  146DOPC  H17X17443   4.685   5.348   7.065 -0.9090  0.5969 -1.2795
  146DOPC  H17Y17444   4.678   5.521   7.094  2.4017  1.2803  2.0394
  146DOPC  C31817445   4.765   5.465   6.897 -0.0611 -0.4027 -0.5503
  146DOPC  H18X17446   4.822   5.559   6.880  1.2771 -0.7603  1.6391
  146DOPC  H18Y17447   4.835   5.386   6.862 -0.0080  0.1372 -1.7163
  146DOPC  H18Z17448   4.663   5.476   6.855 -0.1902 -0.0586 -0.1531
  147DOPC     N17449   2.906   4.757   9.204  0.0874 -0.0118  0.2332
  147DOPC   C1217450   2.893   4.854   9.086  0.2008  0.4656 -1.3062
  147DOPC  H12A17451   2.795   4.899   9.079  0.6045  1.2204 -2.5226
  147DOPC  H12B17452   2.895   4.788   9.001 -1.3706 -2.7768  0.9730
  147DOPC   C1317453   2.796   4.644   9.207 -0.0999  0.4339  0.0531
  147DOPC  H13A17454   2.815   4.594   9.301 -0.2963  1.0140  0.4088
  147DOPC  H13B17455   2.699   4.690   9.192 -0.2200 -0.3884 -2.0695
  147DOPC  H13C17456   2.812   4.584   9.119 -2.1402  0.7615 -0.6006
  147DOPC   C1417457   2.893   4.843   9.330 -0.1147 -0.6495 -0.2594
  147DOPC  H14A17458   2.793   4.884   9.331  0.5842  1.1654  0.2026
  147DOPC  H14B17459   2.922   4.777   9.410 -1.1782  0.2952  0.9498
  147DOPC  H14C17460   2.968   4.922   9.330  0.3406 -0.8827  3.6407
  147DOPC   C1517461   3.039   4.698   9.209  0.2266  0.6909  0.0519
  147DOPC  H15A17462   3.050   4.630   9.293 -0.1393  1.6385  0.8884
  147DOPC  H15B17463   3.119   4.770   9.219  1.4558 -0.5574 -0.3330
  147DOPC  H15C17464   3.059   4.640   9.120 -0.4462  0.7873 -0.1646
  147DOPC   C1117465   2.999   4.965   9.067  0.4349 -0.4419  0.6466
  147DOPC  H11A17466   3.101   4.921   9.065 -0.6075 -3.0507 -1.2518
  147DOPC  H11B17467   2.992   5.012   8.966  1.2425 -1.3161  0.1716
  147DOPC     P17468   2.898   5.181   9.161  0.1156  0.1567 -0.5571
  147DOPC   O1317469   2.922   5.271   9.275  0.2862  0.4880  0.2206
  147DOPC   O1417470   2.764   5.118   9.151  0.2317  0.2466  0.4859
  147DOPC   O1217471   2.999   5.060   9.172 -0.4716 -0.5829 -0.3308
  147DOPC   O1117472   2.950   5.246   9.026 -0.1225  0.4018 -0.2423
  147DOPC    C117473   2.864   5.343   8.959 -0.4579  0.5320 -0.3468
  147DOPC    HA17474   2.925   5.418   8.904  1.0791 -2.0791 -2.4522
  147DOPC    HB17475   2.803   5.397   9.035 -0.6239 -2.3297  1.7482
  147DOPC    C217476   2.768   5.282   8.858 -0.0570 -0.5056  0.0396
  147DOPC    HS17477   2.723   5.190   8.901 -0.9935  0.4714  1.2130
  147DOPC   O2117478   2.843   5.256   8.735  0.4729  0.6438  0.0002
  147DOPC   C2117479   2.827   5.138   8.679 -0.0108  0.2081 -0.8755
  147DOPC   O2217480   2.760   5.042   8.713  0.1604 -0.5541 -0.1863
  147DOPC   C2217481   2.915   5.147   8.546  0.1961  0.9757 -0.7996
  147DOPC   H2R17482   3.015   5.193   8.558  1.1898 -0.9354 -1.3293
  147DOPC   H2S17483   2.864   5.207   8.467  0.4461  0.4291 -1.3887
  147DOPC    C317484   2.654   5.374   8.816 -0.2434 -0.2323 -0.1146
  147DOPC    HX17485   2.701   5.461   8.764 -0.3267  0.7070  1.3255
  147DOPC    HY17486   2.590   5.416   8.896 -0.3169 -0.1948 -0.1918
  147DOPC   O3117487   2.577   5.305   8.715  0.0459  0.0953  0.2807
  147DOPC   C3117488   2.476   5.226   8.764 -0.3901  0.2860 -0.1683
  147DOPC   O3217489   2.438   5.228   8.879  0.3179 -0.2489  0.3650
  147DOPC   C3217490   2.415   5.146   8.643 -0.1836 -0.1873  1.3624
  147DOPC   H2X17491   2.481   5.058   8.625 -0.1315  0.0160  0.5018
  147DOPC   H2Y17492   2.310   5.129   8.676 -0.3972 -0.6907  0.4553
  147DOPC   C2317493   2.917   5.006   8.482  0.3274 -0.3385  0.0658
  147DOPC   H3R17494   2.814   4.966   8.472  0.0167  0.4723 -0.0515
  147DOPC   H3S17495   2.976   4.931   8.540 -0.0959 -2.0620 -1.6237
  147DOPC   C2417496   2.974   5.016   8.337  0.7102  0.2736  0.7115
  147DOPC   H4R17497   3.080   5.047   8.338  0.8156  0.0519 -0.8225
  147DOPC   H4S17498   2.923   5.101   8.286 -0.2684 -0.4497  0.4455
  147DOPC   C2517499   2.961   4.884   8.252 -0.2456 -0.2728 -0.5772
  147DOPC   H5R17500   2.859   4.842   8.268 -0.0738 -0.8127 -0.8519
  147DOPC   H5S17501   3.048   4.820   8.278  1.1900  0.6573 -2.7367
  147DOPC   C2617502   2.981   4.916   8.099 -0.5702 -0.1924 -0.2691
  147DOPC   H6R17503   2.917   5.001   8.067 -0.5260 -0.2672 -0.5665
  147DOPC   H6S17504   2.929   4.831   8.050 -0.3692 -1.2959  1.3566
  147DOPC   C2717505   3.121   4.935   8.034 -0.0257  0.4343  0.5205
  147DOPC   H7R17506   3.171   4.837   8.046  1.1334  1.0872  1.3724
  147DOPC   H7S17507   3.176   5.003   8.103  0.2700  1.1222 -0.3717
  147DOPC   C2817508   3.101   4.991   7.893 -0.9734  0.0446  0.6061
  147DOPC   H8R17509   3.052   5.090   7.904  0.0342  0.9476 -2.3368
  147DOPC   H8S17510   3.023   4.931   7.841  0.8792 -2.3592  0.4397
  147DOPC   C2917511   3.222   5.013   7.801 -0.5551  0.1975 -0.3392
  147DOPC   H9R17512   3.320   5.038   7.845 -0.9705  0.1042  0.6525
  147DOPC  C21017513   3.206   5.019   7.667 -0.6404  0.2693 -0.8942
  147DOPC  H10R17514   3.295   5.030   7.604  0.1009 -0.3797  0.0153
  147DOPC  C21117515   3.078   5.007   7.594  0.0689  0.2328 -0.4991
  147DOPC  H11R17516   3.005   5.090   7.609  1.3689  1.5490 -1.2389
  147DOPC  H11S17517   3.031   4.910   7.622  1.7543 -0.2411  0.8153
  147DOPC  C21217518   3.107   5.003   7.444  0.5846 -0.1158  0.3337
  147DOPC  H12R17519   3.192   4.939   7.411 -0.2907 -1.1277 -0.0448
  147DOPC  H12S17520   3.127   5.107   7.413  1.7827 -0.0127  1.4000
  147DOPC  C21317521   2.977   4.957   7.373 -0.3677  0.0723 -0.8892
  147DOPC  H13R17522   2.892   5.001   7.430  0.7457  1.8751 -0.5282
  147DOPC  H13S17523   2.962   4.848   7.389  0.8409  0.1311  0.9608
  147DOPC  C21417524   2.980   5.000   7.228  0.4827 -0.8812  0.2250
  147DOPC  H14R17525   2.951   4.905   7.178  1.5123 -1.3239  0.4626
  147DOPC  H14S17526   3.082   5.022   7.190 -0.4434 -1.0982 -2.6292
  147DOPC  C21517527   2.881   5.113   7.179 -0.3404 -0.2260 -0.0862
  147DOPC  H15R17528   2.891   5.201   7.245 -1.7053 -1.1990  1.4611
  147DOPC  H15S17529   2.779   5.076   7.201  0.2368 -1.4284  0.6513
  147DOPC  C21617530   2.887   5.133   7.026  0.7425 -0.6307 -0.3454
  147DOPC  H16R17531   2.782   5.160   7.004  0.2094 -0.7937  1.7446
  147DOPC  H16S17532   2.914   5.036   6.979  0.1536 -1.2442  0.5473
  147DOPC  C21717533   2.978   5.245   6.974 -0.4788  0.2504  0.1015
  147DOPC  H17R17534   3.084   5.218   6.993 -0.6724  0.3253  1.3640
  147DOPC  H17S17535   2.964   5.335   7.037 -0.6116 -0.9641  1.8955
  147DOPC  C21817536   2.958   5.273   6.829  0.6735  0.2847 -0.7659
  147DOPC  H18R17537   2.861   5.323   6.806 -0.7269 -0.5543  2.7654
  147DOPC  H18S17538   2.948   5.175   6.778 -0.6382 -0.1126  0.2024
  147DOPC  H18T17539   3.047   5.315   6.777  0.2824  0.0104 -1.6921
  147DOPC   C3317540   2.408   5.228   8.507  0.3022 -0.6826  0.3465
  147DOPC   H3X17541   2.397   5.336   8.528 -0.1836 -0.9741  1.7109
  147DOPC   H3Y17542   2.328   5.181   8.446 -1.6858  0.4540  1.9568
  147DOPC   C3417543   2.531   5.220   8.416  0.0288  0.0599  0.0521
  147DOPC   H4X17544   2.544   5.112   8.394 -1.7347 -0.5726  1.8136
  147DOPC   H4Y17545   2.625   5.244   8.470  0.1087 -3.2634  1.5751
  147DOPC   C3517546   2.529   5.295   8.278 -0.1612  0.0277  0.2666
  147DOPC   H5X17547   2.517   5.404   8.293  0.0012  0.1280 -0.3119
  147DOPC   H5Y17548   2.438   5.264   8.222  1.6491 -2.9296 -1.2476
  147DOPC   C3617549   2.655   5.287   8.185  0.0536  0.4270 -0.8223
  147DOPC   H6X17550   2.734   5.330   8.250 -0.5615 -0.1431  0.3208
  147DOPC   H6Y17551   2.674   5.178   8.174 -4.3965 -0.4877 -1.1737
  147DOPC   C3717552   2.651   5.372   8.058 -0.0772  0.0156 -0.3198
  147DOPC   H7X17553   2.600   5.467   8.083 -2.5659 -1.0817 -0.8958
  147DOPC   H7Y17554   2.753   5.408   8.031 -0.2043 -1.0917 -2.5679
  147DOPC   C3817555   2.570   5.308   7.947  0.3039 -0.6092  0.5281
  147DOPC   H8X17556   2.542   5.386   7.874  0.3653  0.1367  1.2908
  147DOPC   H8Y17557   2.467   5.280   7.980 -0.6275 -2.4542 -3.3740
  147DOPC   C3917558   2.638   5.206   7.870  0.5721 -0.0946  0.1548
  147DOPC   H9X17559   2.705   5.147   7.933  1.7882  1.5074  0.4246
  147DOPC  C31017560   2.640   5.183   7.737  0.2039 -0.6022  0.0486
  147DOPC  H10X17561   2.705   5.099   7.710  0.5222 -0.8970  1.6271
  147DOPC  C31117562   2.575   5.262   7.629  0.0278  0.0785 -0.3981
  147DOPC  H11X17563   2.479   5.309   7.661  0.8062  0.8394  0.9562
  147DOPC  H11Y17564   2.564   5.188   7.548 -0.8174  0.3235 -0.5167
  147DOPC  C31217565   2.667   5.360   7.565 -0.5719 -0.7911 -0.4226
  147DOPC  H12X17566   2.764   5.313   7.538 -1.0364 -1.8310 -0.3567
  147DOPC  H12Y17567   2.687   5.437   7.642 -0.3650 -1.1371 -0.1239
  147DOPC  C31317568   2.618   5.441   7.447 -0.1721  0.3782 -0.4405
  147DOPC  H13X17569   2.516   5.485   7.453 -0.0381  1.6822 -4.6000
  147DOPC  H13Y17570   2.678   5.531   7.422  0.9946  0.1594  1.3975
  147DOPC  C31417571   2.620   5.366   7.310  1.0769  0.6407 -0.5407
  147DOPC  H14X17572   2.722   5.358   7.266  1.3476  1.1562 -0.0150
  147DOPC  H14Y17573   2.592   5.259   7.324 -1.6548  1.3032 -0.4553
  147DOPC  C31517574   2.541   5.453   7.210 -0.6300  0.6358 -0.9909
  147DOPC  H15X17575   2.585   5.554   7.223  3.7320 -1.2248  0.9762
  147DOPC  H15Y17576   2.432   5.442   7.223 -0.4277 -1.6921 -0.7573
  147DOPC  C31617577   2.553   5.396   7.073 -0.0961  0.7139 -0.9492
  147DOPC  H16X17578   2.647   5.337   7.067  0.1098  0.8499  0.5789
  147DOPC  H16Y17579   2.471   5.321   7.068  1.1020 -0.8454  1.0179
  147DOPC  C31717580   2.543   5.492   6.957 -1.3715  0.6176 -0.3943
  147DOPC  H17X17581   2.462   5.561   6.989  0.4850  2.0301  1.5669
  147DOPC  H17Y17582   2.635   5.554   6.955 -1.5058  0.8013 -1.1037
  147DOPC  C31817583   2.522   5.427   6.817  0.5257  0.0382  0.5336
  147DOPC  H18X17584   2.497   5.512   6.750  3.4634  0.4669 -0.1424
  147DOPC  H18Y17585   2.616   5.381   6.778  0.3569 -0.3273  0.5545
  147DOPC  H18Z17586   2.438   5.355   6.805 -2.0889  3.0919 -0.9247
  148DOPC     N17587   1.740   2.687   8.820  0.2028 -0.5713 -0.5971
  148DOPC   C1217588   1.693   2.625   8.690  1.0459 -0.3463 -0.0423
  148DOPC  H12A17589   1.767   2.638   8.612 -0.9457  0.2889 -1.9315
  148DOPC  H12B17590   1.606   2.684   8.663  0.3566 -1.6046 -0.6368
  148DOPC   C1317591   1.742   2.840   8.797 -0.2837 -0.1789  0.2980
  148DOPC  H13A17592   1.651   2.871   8.747  0.6445  0.1862 -1.2330
  148DOPC  H13B17593   1.746   2.890   8.892  0.3457 -2.0052  1.2934
  148DOPC  H13C17594   1.825   2.867   8.734  0.7584  2.6123  2.6684
  148DOPC   C1417595   1.886   2.641   8.845 -0.1820 -1.0026 -0.5604
  148DOPC  H14A17596   1.958   2.706   8.797 -0.2969  1.2696  2.0731
  148DOPC  H14B17597   1.907   2.649   8.951 -0.6976 -0.0368 -0.5127
  148DOPC  H14C17598   1.893   2.539   8.813  1.7479 -1.0403 -0.1228
  148DOPC   C1517599   1.666   2.655   8.937  0.2606 -0.4436 -0.5713
  148DOPC  H15A17600   1.651   2.550   8.957  0.1314 -0.3247  0.0017
  148DOPC  H15B17601   1.571   2.706   8.936 -0.4057 -1.5730  0.9733
  148DOPC  H15C17602   1.720   2.690   9.024  1.6465  4.9873 -3.1977
  148DOPC   C1117603   1.642   2.475   8.694 -0.4262 -0.6139  0.1568
  148DOPC  H11A17604   1.573   2.476   8.781  0.5301  0.8444  0.9509
  148DOPC  H11B17605   1.578   2.443   8.609 -1.6989 -1.6951  1.4707
  148DOPC     P17606   1.837   2.326   8.605  0.0130 -0.1742  0.2870
  148DOPC   O1317607   1.789   2.191   8.553 -0.2052 -0.3369  0.7312
  148DOPC   O1417608   1.978   2.317   8.648  0.4256 -0.4462  0.6856
  148DOPC   O1217609   1.747   2.377   8.725  0.1247 -0.2046  0.0964
  148DOPC   O1117610   1.809   2.430   8.493 -0.2497  0.0597 -0.7402
  148DOPC    C117611   1.889   2.434   8.378 -0.4609  0.4715  0.0205
  148DOPC    HA17612   1.997   2.424   8.399  0.0284  0.3204 -2.3477
  148DOPC    HB17613   1.875   2.540   8.346 -1.5518 -0.3249 -2.3111
  148DOPC    C217614   1.825   2.343   8.264  0.6435 -0.1900 -1.1060
  148DOPC    HS17615   1.842   2.236   8.290 -2.1860 -0.8690 -1.6260
  148DOPC   O2117616   1.868   2.379   8.140  0.1677  0.1407  0.0875
  148DOPC   C2117617   1.990   2.337   8.103  0.1492  0.7188 -0.0894
  148DOPC   O2217618   2.053   2.257   8.165 -0.3407  0.2924 -0.4092
  148DOPC   C2217619   2.023   2.400   7.972 -0.0197 -0.2277  0.4468
  148DOPC   H2R17620   2.107   2.467   8.001 -1.5399  1.4152  1.2540
  148DOPC   H2S17621   1.936   2.459   7.935  0.4605  1.8526  2.3761
  148DOPC    C317622   1.673   2.353   8.270 -0.3666 -0.6077  0.0547
  148DOPC    HX17623   1.641   2.459   8.276 -0.7172 -0.7547  0.8790
  148DOPC    HY17624   1.638   2.314   8.368  1.2645  0.9422  1.3288
  148DOPC   O3117625   1.606   2.291   8.162 -0.3187 -0.3925 -0.1710
  148DOPC   C3117626   1.618   2.162   8.157 -0.1426 -0.0238 -0.5709
  148DOPC   O3217627   1.673   2.088   8.232 -0.1616  0.5678 -0.9519
  148DOPC   C3217628   1.562   2.120   8.022  0.9374  0.2891  0.2724
  148DOPC   H2X17629   1.590   2.019   7.985  1.0262  0.5514 -0.3822
  148DOPC   H2Y17630   1.451   2.127   8.021  0.8728  0.0367 -2.8155
  148DOPC   C2317631   2.054   2.294   7.872  0.0354  0.4340  0.0494
  148DOPC   H3R17632   1.968   2.226   7.853 -1.0630  2.2108 -1.6917
  148DOPC   H3S17633   2.131   2.223   7.908 -0.7531 -0.3362  0.2478
  148DOPC   C2417634   2.114   2.352   7.737  0.0109  0.3556  0.7141
  148DOPC   H4R17635   2.174   2.269   7.692 -1.3512  0.5138 -1.5736
  148DOPC   H4S17636   2.191   2.430   7.755  1.1667 -0.7169  0.6136
  148DOPC   C2517637   2.017   2.385   7.624 -0.7340  0.3372  0.5687
  148DOPC   H5R17638   1.980   2.486   7.651 -1.6904  0.2191 -0.2064
  148DOPC   H5S17639   1.940   2.306   7.613 -0.5332  0.2831 -0.6155
  148DOPC   C2617640   2.077   2.409   7.488  0.3629 -0.1365 -0.1148
  148DOPC   H6R17641   2.092   2.309   7.441  2.0537 -0.4343  0.9876
  148DOPC   H6S17642   2.184   2.438   7.493  1.7645 -4.5954  0.5732
  148DOPC   C2717643   1.999   2.498   7.397  0.3408 -0.0822  0.5471
  148DOPC   H7R17644   2.014   2.604   7.427 -1.7399  0.8463 -1.3885
  148DOPC   H7S17645   1.889   2.491   7.411  0.3171  0.6522  0.8041
  148DOPC   C2817646   2.022   2.480   7.247  0.5104  0.0732  0.3269
  148DOPC   H8R17647   1.982   2.378   7.225 -0.8561  0.4237  1.0472
  148DOPC   H8S17648   2.132   2.479   7.234  0.5202 -3.4304 -0.3820
  148DOPC   C2917649   1.936   2.580   7.176  0.0546 -0.4082 -0.1165
  148DOPC   H9R17650   1.875   2.644   7.241 -0.4272 -1.4976  0.5373
  148DOPC  C21017651   1.945   2.601   7.048 -0.5629 -1.2525  0.0359
  148DOPC  H10R17652   1.873   2.667   6.999 -0.3674 -1.0929 -0.0389
  148DOPC  C21117653   2.028   2.519   6.946  1.0950 -0.1968  0.9171
  148DOPC  H11R17654   2.109   2.462   6.997 -0.4729 -2.3931  1.0787
  148DOPC  H11S17655   2.079   2.595   6.883 -0.2363  0.1551  0.2391
  148DOPC  C21217656   1.947   2.431   6.853 -0.2454  0.0285 -0.3734
  148DOPC  H12R17657   2.013   2.400   6.770  1.4047 -0.6641  1.1224
  148DOPC  H12S17658   1.854   2.480   6.817 -0.6673  0.4130  1.1610
  148DOPC  C21317659   1.916   2.300   6.928  0.4412  0.3201 -0.3077
  148DOPC  H13R17660   1.870   2.337   7.022 -2.1179  0.7505 -1.6407
  148DOPC  H13S17661   2.004   2.241   6.963  0.4536  0.0539 -0.7737
  148DOPC  C21417662   1.814   2.213   6.851  0.3895  0.2781  0.5166
  148DOPC  H14R17663   1.731   2.278   6.816 -1.7117 -1.8950  1.1771
  148DOPC  H14S17664   1.775   2.136   6.920  0.4959  0.1359  0.4190
  148DOPC  C21517665   1.870   2.141   6.721  0.3907 -0.3434 -0.2068
  148DOPC  H15R17666   1.896   2.041   6.762 -0.5098  0.4176  2.3867
  148DOPC  H15S17667   1.951   2.202   6.677  2.1262 -0.3816  2.6683
  148DOPC  C21617668   1.753   2.103   6.621 -0.5629  0.2962 -0.3880
  148DOPC  H16R17669   1.679   2.040   6.674 -0.9568  0.3823 -0.8299
  148DOPC  H16S17670   1.802   2.037   6.546 -1.1909  1.0401 -1.4797
  148DOPC  C21717671   1.685   2.217   6.558 -0.0761 -0.7759  0.5652
  148DOPC  H17R17672   1.639   2.288   6.630 -1.5072  1.1196 -2.0448
  148DOPC  H17S17673   1.599   2.179   6.498  0.2540  0.6931 -0.9151
  148DOPC  C21817674   1.773   2.299   6.455  0.2718 -0.3558  0.0023
  148DOPC  H18R17675   1.707   2.346   6.378 -0.6490 -1.0530  0.3495
  148DOPC  H18S17676   1.845   2.229   6.409 -1.0685 -0.7124 -1.6618
  148DOPC  H18T17677   1.826   2.383   6.504 -1.1075  0.1089  0.7478
  148DOPC   C3317678   1.605   2.220   7.906 -0.2718 -0.5144  0.2625
  148DOPC   H3X17679   1.709   2.257   7.918 -0.8521  1.9445 -1.4958
  148DOPC   H3Y17680   1.535   2.304   7.926  0.1447  0.4239 -1.9353
  148DOPC   C3417681   1.581   2.161   7.766 -0.1070 -0.4798 -0.2197
  148DOPC   H4X17682   1.473   2.136   7.757 -0.9249  2.9096 -1.3130
  148DOPC   H4Y17683   1.648   2.073   7.757  0.6118 -0.2787  2.2781
  148DOPC   C3517684   1.613   2.261   7.645 -0.2087 -0.0467 -0.1947
  148DOPC   H5X17685   1.705   2.321   7.662 -1.4465  1.8732  0.0316
  148DOPC   H5Y17686   1.535   2.339   7.655  0.8233  0.9258  0.3763
  148DOPC   C3617687   1.614   2.197   7.510 -0.5844  0.8299 -0.0663
  148DOPC   H6X17688   1.685   2.113   7.502  1.2725  2.3924 -0.7249
  148DOPC   H6Y17689   1.517   2.146   7.493  0.0130  0.2262 -1.8760
  148DOPC   C3717690   1.627   2.291   7.386 -0.6818  0.3246 -0.5298
  148DOPC   H7X17691   1.542   2.364   7.391 -1.4147 -0.4835 -0.9592
  148DOPC   H7Y17692   1.730   2.331   7.392 -0.0293 -1.1585 -1.3998
  148DOPC   C3817693   1.619   2.220   7.243  0.4636 -0.5428 -0.3932
  148DOPC   H8X17694   1.691   2.136   7.245  0.1727 -0.7852  0.4784
  148DOPC   H8Y17695   1.643   2.297   7.167 -0.3087  0.6189  0.4952
  148DOPC   C3917696   1.486   2.151   7.216 -0.8138 -0.2852 -0.0080
  148DOPC   H9X17697   1.453   2.103   7.309 -1.3200 -2.1306 -1.1068
  148DOPC  C31017698   1.415   2.152   7.105 -0.4367 -0.1507 -0.3314
  148DOPC  H10X17699   1.319   2.099   7.114  0.6764 -2.0644  1.1714
  148DOPC  C31117700   1.440   2.242   6.983  0.4754  0.1993 -0.5331
  148DOPC  H11X17701   1.531   2.304   7.000 -0.3829  1.2400  0.4529
  148DOPC  H11Y17702   1.358   2.315   6.968  0.8612  0.2468 -2.6520
  148DOPC  C31217703   1.470   2.158   6.858 -0.0988 -0.8105  0.3461
  148DOPC  H12X17704   1.538   2.070   6.867  0.9580 -0.3415 -2.1435
  148DOPC  H12Y17705   1.517   2.227   6.786  0.2376 -1.3708  0.0171
  148DOPC  C31317706   1.336   2.105   6.805 -0.5098 -0.4590  0.0900
  148DOPC  H13X17707   1.288   2.034   6.876  1.1259 -1.0843  0.6290
  148DOPC  H13Y17708   1.256   2.181   6.795 -0.8421 -0.4961  2.0111
  148DOPC  C31417709   1.348   2.033   6.666  0.0475  0.4530 -0.9332
  148DOPC  H14X17710   1.258   2.051   6.603 -2.7815 -0.5375  2.5006
  148DOPC  H14Y17711   1.441   2.065   6.614 -0.7343 -0.5833 -3.0972
  148DOPC  C31517712   1.352   1.884   6.694  0.8329 -0.2384  0.0256
  148DOPC  H15X17713   1.285   1.865   6.780  2.3958  1.5450  1.7368
  148DOPC  H15Y17714   1.454   1.860   6.730  0.5008  0.3718  1.4172
  148DOPC  C31617715   1.334   1.796   6.573  0.1756 -0.0130  0.3584
  148DOPC  H16X17716   1.224   1.781   6.569 -0.2562  2.8570 -1.9373
  148DOPC  H16Y17717   1.352   1.849   6.477  2.4886 -0.5892  0.4174
  148DOPC  C31717718   1.400   1.656   6.570 -0.5981 -0.1885  0.5758
  148DOPC  H17X17719   1.508   1.668   6.547 -0.8206  0.0869 -0.3758
  148DOPC  H17Y17720   1.409   1.611   6.671  4.0641 -0.7796  0.1464
  148DOPC  C31817721   1.334   1.556   6.478 -0.0181 -0.3666  0.2143
  148DOPC  H18X17722   1.369   1.451   6.488 -2.3533 -1.1545  0.6295
  148DOPC  H18Y17723   1.226   1.557   6.505 -0.7795  1.5857 -2.4378
  148DOPC  H18Z17724   1.350   1.583   6.372  0.2827 -2.1144 -0.2056
  149DOPC     N17725   3.601   4.803   9.404  0.3209 -0.0283 -0.7783
  149DOPC   C1217726   3.705   4.808   9.286 -0.2833  0.2887 -0.0384
  149DOPC  H12A17727   3.720   4.706   9.253  1.5419  0.9177 -1.3328
  149DOPC  H12B17728   3.801   4.838   9.325 -0.7297 -0.2642  1.5729
  149DOPC   C1317729   3.593   4.935   9.475 -0.0739 -0.7012 -0.0758
  149DOPC  H13A17730   3.567   5.009   9.400  0.3742  0.4743  0.9009
  149DOPC  H13B17731   3.521   4.933   9.555  0.5505  0.9528  0.5588
  149DOPC  H13C17732   3.688   4.962   9.518  0.5918 -0.6503 -1.5215
  149DOPC   C1417733   3.639   4.693   9.501 -0.3055  0.1285  0.0801
  149DOPC  H14A17734   3.644   4.594   9.458 -1.6649 -0.3907  1.0658
  149DOPC  H14B17735   3.732   4.718   9.551 -0.3474 -1.0254  0.7496
  149DOPC  H14C17736   3.565   4.686   9.579 -0.3501  4.6362  0.7279
  149DOPC   C1517737   3.462   4.768   9.355 -0.5356  0.1461  0.2967
  149DOPC  H15A17738   3.471   4.771   9.247  3.2010  1.9832  0.4733
  149DOPC  H15B17739   3.399   4.851   9.380  0.2042  0.6392  0.5747
  149DOPC  H15C17740   3.430   4.669   9.384 -0.5323  0.1290  0.2408
  149DOPC   C1117741   3.680   4.899   9.162  0.0885 -0.1770  0.1365
  149DOPC  H11A17742   3.754   4.864   9.087 -0.6799 -1.1093 -0.2100
  149DOPC  H11B17743   3.579   4.872   9.124  1.3700 -2.2987 -2.0153
  149DOPC     P17744   3.830   5.112   9.188  0.0670  0.6770 -0.3398
  149DOPC   O1317745   3.940   5.010   9.203 -0.0457  0.2496 -0.4843
  149DOPC   O1417746   3.830   5.226   9.277 -0.3512  0.1347 -0.3324
  149DOPC   O1217747   3.688   5.042   9.182  0.2298  0.6573  0.3631
  149DOPC   O1117748   3.838   5.176   9.048  0.0039 -0.1757 -0.4530
  149DOPC    C117749   3.731   5.250   8.994  0.0824  1.1161  0.2660
  149DOPC    HA17750   3.771   5.349   8.963  0.3359  1.3301  1.2639
  149DOPC    HB17751   3.647   5.268   9.064 -0.7587 -0.7002 -0.2185
  149DOPC    C217752   3.672   5.187   8.861 -0.8044 -0.2952 -0.2928
  149DOPC    HS17753   3.611   5.096   8.885 -3.7098  0.5496 -3.6227
  149DOPC   O2117754   3.786   5.156   8.775  0.3769  0.3916 -0.2528
  149DOPC   C2117755   3.767   5.054   8.700 -0.0070 -0.1941 -0.9831
  149DOPC   O2217756   3.677   4.973   8.707  0.6102 -0.2697  0.5101
  149DOPC   C2217757   3.891   5.054   8.608 -0.1865  0.0815  0.5333
  149DOPC   H2R17758   3.970   5.015   8.676 -0.6560 -0.1818  0.9280
  149DOPC   H2S17759   3.910   5.154   8.565  0.0355 -0.2784 -0.2214
  149DOPC    C317760   3.570   5.281   8.797 -0.8496  0.2460  0.0078
  149DOPC    HX17761   3.641   5.352   8.751  0.4860 -0.3639  1.0367
  149DOPC    HY17762   3.502   5.326   8.873 -1.0453  0.3766 -0.2431
  149DOPC   O3117763   3.499   5.213   8.695  0.7576 -0.1877 -0.0243
  149DOPC   C3117764   3.429   5.292   8.616  0.2359  0.3394 -0.1753
  149DOPC   O3217765   3.442   5.415   8.620  0.4502  0.6867  0.2248
  149DOPC   C3217766   3.343   5.214   8.513  0.0402  0.2869 -0.6025
  149DOPC   H2X17767   3.311   5.121   8.564  0.3280 -1.2883 -3.1423
  149DOPC   H2Y17768   3.248   5.267   8.488 -1.1678 -1.8912 -0.8761
  149DOPC   C2317769   3.879   4.948   8.489  0.0327 -0.2330 -0.4604
  149DOPC   H3R17770   3.865   4.846   8.531  2.5622  0.1628  1.5800
  149DOPC   H3S17771   3.981   4.939   8.445  1.1347 -0.1214  1.9406
  149DOPC   C2417772   3.769   4.987   8.391  0.7977  0.0547  0.2071
  149DOPC   H4R17773   3.768   5.096   8.368  0.0807 -0.0437 -0.2421
  149DOPC   H4S17774   3.671   4.972   8.442  0.3854  1.2765 -0.1958
  149DOPC   C2517775   3.754   4.890   8.276 -0.2845 -0.5269 -0.1961
  149DOPC   H5R17776   3.737   4.785   8.308  0.0679 -0.7254 -0.6370
  149DOPC   H5S17777   3.850   4.879   8.220  0.2651  2.4396  0.0208
  149DOPC   C2617778   3.642   4.917   8.182 -0.0296 -0.0397 -0.3258
  149DOPC   H6R17779   3.649   5.006   8.117 -2.1638 -0.3953 -1.1151
  149DOPC   H6S17780   3.545   4.933   8.234 -0.7204 -0.3721 -1.4724
  149DOPC   C2717781   3.623   4.803   8.090 -0.5334 -0.1851  0.1784
  149DOPC   H7R17782   3.625   4.712   8.153  1.5835 -1.1361 -1.1480
  149DOPC   H7S17783   3.697   4.781   8.010 -3.4239 -0.3476 -2.6495
  149DOPC   C2817784   3.488   4.821   8.023 -0.2405  0.5075 -0.0953
  149DOPC   H8R17785   3.489   4.920   7.972  1.9360  0.9634  0.7382
  149DOPC   H8S17786   3.412   4.836   8.103 -0.2389 -1.6139  0.3550
  149DOPC   C2917787   3.455   4.717   7.929 -0.0253 -0.2450 -0.2584
  149DOPC   H9R17788   3.392   4.636   7.968 -3.0065  1.5811 -0.9704
  149DOPC  C21017789   3.492   4.710   7.801  0.8955  0.3620 -0.5075
  149DOPC  H10R17790   3.460   4.621   7.744 -0.0547 -0.4492  1.2226
  149DOPC  C21117791   3.585   4.805   7.737 -0.2581 -0.4023  0.3691
  149DOPC  H11R17792   3.676   4.814   7.800 -0.6657 -0.5548  0.9780
  149DOPC  H11S17793   3.550   4.910   7.725  1.7872  0.0180 -3.4340
  149DOPC  C21217794   3.621   4.759   7.586 -0.8262 -0.3844  0.5688
  149DOPC  H12R17795   3.527   4.749   7.527 -1.5588  0.4266  1.5537
  149DOPC  H12S17796   3.674   4.661   7.589  0.8365  0.3573 -1.6845
  149DOPC  C21317797   3.731   4.856   7.517  0.6997  0.3922  0.0696
  149DOPC  H13R17798   3.827   4.848   7.572  0.4271  0.9941  0.6430
  149DOPC  H13S17799   3.693   4.960   7.515 -0.1467  0.0927  0.1694
  149DOPC  C21417800   3.764   4.823   7.367  0.6092 -0.6796  0.4409
  149DOPC  H14R17801   3.816   4.917   7.339 -1.2050 -0.1617 -1.3873
  149DOPC  H14S17802   3.680   4.798   7.299  0.2289  1.0966  0.2247
  149DOPC  C21517803   3.865   4.717   7.345  0.0825  0.1463  0.2313
  149DOPC  H15R17804   3.832   4.619   7.385 -0.0968  1.0001  2.3079
  149DOPC  H15S17805   3.961   4.736   7.397 -0.3172  0.1151  0.9890
  149DOPC  C21617806   3.910   4.689   7.201  0.3174 -0.8704  0.0361
  149DOPC  H16R17807   3.816   4.693   7.143 -0.2238  0.6146  0.9606
  149DOPC  H16S17808   3.955   4.591   7.175 -0.1281 -1.0000 -0.2560
  149DOPC  C21717809   3.991   4.808   7.152  0.1348  0.0793  0.2730
  149DOPC  H17R17810   4.078   4.831   7.217  0.8480  2.2408 -1.3645
  149DOPC  H17S17811   3.931   4.901   7.151  0.4672  0.3448  2.0539
  149DOPC  C21817812   4.053   4.787   7.009 -0.0330 -0.7170 -0.7087
  149DOPC  H18R17813   4.089   4.881   6.965  2.1990 -1.5538 -0.7736
  149DOPC  H18S17814   3.988   4.736   6.934  1.3342 -0.2367 -2.2761
  149DOPC  H18T17815   4.140   4.721   7.027 -0.6655 -1.1230  1.1145
  149DOPC   C3317816   3.424   5.180   8.389 -0.3152 -0.3151 -0.0631
  149DOPC   H3X17817   3.367   5.123   8.312  0.0098  0.6804 -1.0654
  149DOPC   H3Y17818   3.513   5.125   8.424 -0.0491  1.0991  1.6117
  149DOPC   C3417819   3.468   5.308   8.312 -0.0141  0.3668  0.6448
  149DOPC   H4X17820   3.527   5.379   8.374 -1.9809  2.1041  0.6428
  149DOPC   H4Y17821   3.375   5.360   8.279 -0.1154 -0.3758 -0.2664
  149DOPC   C3517822   3.573   5.279   8.195  0.2622 -0.6554 -0.6169
  149DOPC   H5X17823   3.538   5.192   8.136 -0.5083 -1.1045  0.4650
  149DOPC   H5Y17824   3.668   5.259   8.248  0.1651 -1.0139 -0.5757
  149DOPC   C3617825   3.589   5.391   8.098 -0.1389  0.3051 -0.2062
  149DOPC   H6X17826   3.628   5.475   8.158  2.0443  0.4531 -1.7258
  149DOPC   H6Y17827   3.670   5.368   8.026  0.6439  2.5300 -0.1080
  149DOPC   C3717828   3.468   5.431   8.020 -0.0327 -0.1302  0.3538
  149DOPC   H7X17829   3.380   5.447   8.086 -0.8602 -1.7971 -0.2728
  149DOPC   H7Y17830   3.494   5.527   7.971 -0.1777  0.6066  1.6864
  149DOPC   C3817831   3.415   5.331   7.917 -0.7140  0.1360  0.1214
  149DOPC   H8X17832   3.345   5.380   7.846 -0.8232  3.2806  2.2455
  149DOPC   H8Y17833   3.358   5.254   7.974  0.9738 -1.0103  0.3527
  149DOPC   C3917834   3.530   5.265   7.840  0.3948 -0.1913  0.7755
  149DOPC   H9X17835   3.585   5.184   7.890  1.7037  1.5442  2.3107
  149DOPC  C31017836   3.558   5.282   7.712 -0.3526 -0.0031  0.2034
  149DOPC  H10X17837   3.625   5.204   7.674 -0.7067 -0.4350  0.4560
  149DOPC  C31117838   3.502   5.374   7.613 -0.1976  0.4459 -0.7953
  149DOPC  H11X17839   3.577   5.449   7.578 -2.3397  2.0983 -2.1931
  149DOPC  H11Y17840   3.423   5.441   7.654  0.4871  0.1008  1.2014
  149DOPC  C31217841   3.468   5.289   7.488  0.0799 -0.0361  0.5264
  149DOPC  H12X17842   3.417   5.358   7.417 -1.4904 -1.2106  0.4591
  149DOPC  H12Y17843   3.395   5.207   7.506 -0.3868 -0.7441 -3.5169
  149DOPC  C31317844   3.588   5.233   7.414  0.3177  0.0402 -0.2820
  149DOPC  H13X17845   3.660   5.316   7.402 -0.0928  0.4663  0.1547
  149DOPC  H13Y17846   3.636   5.161   7.484  0.2016  1.0429  0.8486
  149DOPC  C31417847   3.547   5.159   7.285 -0.1421 -0.3699  0.4291
  149DOPC  H14X17848   3.529   5.237   7.208 -0.7444  1.0330  1.9367
  149DOPC  H14Y17849   3.638   5.103   7.252  1.1768  0.7724  1.9469
  149DOPC  C31517850   3.429   5.063   7.289 -0.1518  0.3906 -0.2757
  149DOPC  H15X17851   3.332   5.114   7.275 -0.8267 -0.6590  0.4290
  149DOPC  H15Y17852   3.428   5.005   7.384  3.3530 -0.9055 -0.8651
  149DOPC  C31617853   3.426   4.956   7.174  0.7505  0.4318 -0.1655
  149DOPC  H16X17854   3.508   4.887   7.205 -1.0016 -0.7503  2.2071
  149DOPC  H16Y17855   3.333   4.896   7.180 -0.1041  1.5632 -1.5263
  149DOPC  C31717856   3.447   5.008   7.027 -0.2845  0.1416 -0.5738
  149DOPC  H17X17857   3.369   5.083   7.002  0.3645  1.5910  1.4476
  149DOPC  H17Y17858   3.545   5.059   7.032 -0.9435  1.3646  0.5005
  149DOPC  C31817859   3.451   4.906   6.913 -0.5141  0.8900 -0.2854
  149DOPC  H18X17860   3.455   4.972   6.824  1.3830  0.1698 -0.7703
  149DOPC  H18Y17861   3.542   4.844   6.918 -0.6335  0.8245  2.9606
  149DOPC  H18Z17862   3.360   4.844   6.930  0.1041  0.3743  1.2745
  150DOPC     N17863   6.429   0.932   9.275 -0.2338  0.0971 -0.4150
  150DOPC   C1217864   6.286   0.887   9.274 -0.2296  0.2301 -0.3815
  150DOPC  H12A17865   6.262   0.831   9.363 -1.6228  0.8612 -0.3502
  150DOPC  H12B17866   6.290   0.821   9.188  2.8435  0.0733 -0.2591
  150DOPC   C1317867   6.448   1.033   9.388 -0.5592  0.1415  0.4933
  150DOPC  H13A17868   6.413   1.006   9.487 -3.3223  1.6224  0.0309
  150DOPC  H13B17869   6.552   1.062   9.393 -0.7558  1.0290 -0.3850
  150DOPC  H13C17870   6.392   1.123   9.370  1.9239  1.8010  0.6206
  150DOPC   C1417871   6.469   0.999   9.153  0.3289 -0.2343  0.2824
  150DOPC  H14A17872   6.577   1.001   9.152  0.4860 -3.1575 -0.8590
  150DOPC  H14B17873   6.426   0.947   9.069  0.0935 -0.6833  0.6733
  150DOPC  H14C17874   6.432   1.100   9.157 -0.8819 -0.6487  0.0985
  150DOPC   C1517875   6.520   0.809   9.304 -0.5735  0.3555 -0.3269
  150DOPC  H15A17876   6.520   0.748   9.214  2.2717  0.4658 -0.5008
  150DOPC  H15B17877   6.490   0.752   9.390  1.8889  0.7468  0.8770
  150DOPC  H15C17878   6.619   0.848   9.323 -0.8833  0.7433  0.5271
  150DOPC   C1117879   6.181   1.004   9.256  0.0606 -0.1890 -0.2978
  150DOPC  H11A17880   6.223   1.053   9.165  0.5825 -1.3632 -0.7086
  150DOPC  H11B17881   6.077   0.969   9.238  0.3926 -0.5730 -1.6178
  150DOPC     P17882   6.131   1.243   9.368 -0.0138  0.1319  0.2277
  150DOPC   O1317883   6.206   1.314   9.476 -0.3414 -0.1114 -0.1315
  150DOPC   O1417884   5.984   1.243   9.382  0.1764  0.3760  0.3084
  150DOPC   O1217885   6.170   1.090   9.371  0.5019  0.0401 -0.1732
  150DOPC   O1117886   6.159   1.298   9.227  0.4337 -0.1212  0.4083
  150DOPC    C117887   6.296   1.338   9.194  0.8109 -0.2143  0.1917
  150DOPC    HA17888   6.369   1.260   9.222  0.0696 -1.5637 -1.4442
  150DOPC    HB17889   6.328   1.435   9.238  1.2652 -0.3727  0.2151
  150DOPC    C217890   6.310   1.351   9.046  0.5056 -0.3983 -0.1921
  150DOPC    HS17891   6.231   1.424   9.019  0.6689 -0.0362  0.2959
  150DOPC   O2117892   6.303   1.221   8.982 -0.6972 -0.4729 -0.0079
  150DOPC   C2117893   6.235   1.210   8.875 -0.7211  0.2323  0.3435
  150DOPC   O2217894   6.173   1.298   8.814  0.2770  0.5156  0.0822
  150DOPC   C2217895   6.242   1.063   8.832 -0.0089  0.1524 -0.2297
  150DOPC   H2R17896   6.242   0.992   8.918 -2.0146  1.4422  0.9233
  150DOPC   H2S17897   6.339   1.044   8.781 -0.3327 -0.3450 -0.6734
  150DOPC    C317898   6.439   1.426   9.000 -0.4288 -0.6740  0.2785
  150DOPC    HX17899   6.519   1.380   9.063 -0.2259  0.6401  1.0141
  150DOPC    HY17900   6.432   1.534   9.023  1.0892 -0.2482 -1.0649
  150DOPC   O3117901   6.481   1.411   8.864  0.4174  0.3456 -0.4653
  150DOPC   C3117902   6.480   1.505   8.769 -0.6486  1.0241  0.0956
  150DOPC   O3217903   6.443   1.619   8.779 -0.3963 -0.4910 -0.0465
  150DOPC   C3217904   6.534   1.458   8.638  0.0854 -0.1166 -0.1881
  150DOPC   H2X17905   6.565   1.545   8.578 -1.1123 -0.2604 -1.0565
  150DOPC   H2Y17906   6.631   1.404   8.645  0.5598  0.4176 -2.1483
  150DOPC   C2317907   6.132   1.029   8.731  0.5664 -0.0107 -0.6098
  150DOPC   H3R17908   6.038   1.080   8.763  0.7449 -0.1703  0.1701
  150DOPC   H3S17909   6.104   0.923   8.718 -0.9916  0.3648 -0.5345
  150DOPC   C2417910   6.171   1.085   8.597 -0.1325 -0.2021  0.1437
  150DOPC   H4R17911   6.251   1.021   8.554 -1.1896 -1.5174  0.0378
  150DOPC   H4S17912   6.207   1.190   8.594  0.3294 -0.2865  1.6145
  150DOPC   C2517913   6.058   1.082   8.498 -0.1691 -0.3935  0.2440
  150DOPC   H5R17914   5.973   1.145   8.531 -0.0079 -0.3483  0.5684
  150DOPC   H5S17915   6.029   0.975   8.502  0.2443 -0.4575  2.3518
  150DOPC   C2617916   6.098   1.103   8.352  0.5492 -0.5589  0.4289
  150DOPC   H6R17917   6.119   1.210   8.328 -1.3017 -0.5980 -1.7155
  150DOPC   H6S17918   6.009   1.088   8.287  0.6779  1.7450 -0.3944
  150DOPC   C2717919   6.199   1.005   8.289 -0.8654  0.2901  0.2441
  150DOPC   H7R17920   6.179   0.897   8.301 -3.4615  0.6068 -0.7160
  150DOPC   H7S17921   6.296   1.027   8.338 -0.9406  1.4714 -0.1091
  150DOPC   C2817922   6.217   1.020   8.132  0.6810 -0.2549  0.3786
  150DOPC   H8R17923   6.297   0.952   8.094  0.0718  0.1710 -1.8098
  150DOPC   H8S17924   6.260   1.120   8.112 -0.0859  0.1317  0.6325
  150DOPC   C2917925   6.089   0.991   8.048  0.4887 -0.1984  0.7407
  150DOPC   H9R17926   5.988   1.002   8.091 -0.6134 -2.2004 -1.1381
  150DOPC  C21017927   6.097   0.936   7.924  0.1020  0.1899  0.1208
  150DOPC  H10R17928   6.003   0.927   7.867 -0.0106 -0.2250  0.3644
  150DOPC  C21117929   6.220   0.896   7.846  0.1159  0.7404 -0.3467
  150DOPC  H11R17930   6.257   0.806   7.900  2.2495  2.4263  1.1800
  150DOPC  H11S17931   6.301   0.971   7.848  2.7758 -1.8718 -1.6994
  150DOPC  C21217932   6.186   0.865   7.701  0.0295 -0.2677 -0.6227
  150DOPC  H12R17933   6.117   0.778   7.697  1.1422 -1.2057  0.1663
  150DOPC  H12S17934   6.273   0.839   7.638 -1.1584 -0.5078 -2.2404
  150DOPC  C21317935   6.132   0.986   7.626 -0.5543  0.1344 -0.4132
  150DOPC  H13R17936   6.214   1.060   7.617 -0.5639  0.1238 -0.5879
  150DOPC  H13S17937   6.051   1.040   7.678  0.7105  1.8734 -0.1647
  150DOPC  C21417938   6.096   0.952   7.474 -0.3407  1.0150  0.1183
  150DOPC  H14R17939   6.070   1.050   7.429  0.7737  1.3720  0.2332
  150DOPC  H14S17940   6.000   0.896   7.466  0.3587 -0.4286  1.4333
  150DOPC  C21517941   6.206   0.878   7.393 -0.2709 -0.1701 -0.1649
  150DOPC  H15R17942   6.232   0.778   7.435 -1.9844 -0.5527  0.0261
  150DOPC  H15S17943   6.294   0.944   7.374 -0.8781  0.2948 -1.4605
  150DOPC  C21617944   6.149   0.848   7.254 -0.0483  0.8060 -0.0492
  150DOPC  H16R17945   6.110   0.937   7.200 -0.6283 -0.9920 -2.7823
  150DOPC  H16S17946   6.054   0.789   7.257  0.6955 -0.3846  0.7276
  150DOPC  C21717947   6.241   0.764   7.161 -0.2597 -0.7790  0.1870
  150DOPC  H17R17948   6.331   0.823   7.132 -0.2103 -1.4275 -1.0375
  150DOPC  H17S17949   6.184   0.762   7.066 -0.4668  0.9219  0.2553
  150DOPC  C21817950   6.279   0.623   7.213  0.2974  0.8218 -0.1334
  150DOPC  H18R17951   6.198   0.581   7.277  0.9267  0.0047  0.1419
  150DOPC  H18S17952   6.364   0.628   7.284  1.1534  1.6473 -1.1831
  150DOPC  H18T17953   6.319   0.548   7.141 -1.5473  0.2796 -0.6348
  150DOPC   C3317954   6.420   1.385   8.561  0.5757 -0.3860 -0.3460
  150DOPC   H3X17955   6.343   1.459   8.530  0.1762 -0.9836 -0.8122
  150DOPC   H3Y17956   6.385   1.309   8.634  1.7757 -1.7911 -1.1704
  150DOPC   C3417957   6.474   1.304   8.445  0.8358  0.8198  0.0373
  150DOPC   H4X17958   6.389   1.240   8.416  0.2108  1.5230  0.2822
  150DOPC   H4Y17959   6.565   1.247   8.476  1.5881  1.3436 -1.1270
  150DOPC   C3517960   6.531   1.387   8.326 -0.3879  0.2225  1.0145
  150DOPC   H5X17961   6.637   1.375   8.296  0.3393  1.8909  2.6609
  150DOPC   H5Y17962   6.515   1.496   8.346  1.1603  1.5017 -3.5433
  150DOPC   C3617963   6.462   1.373   8.196 -0.1914 -0.2827  0.4258
  150DOPC   H6X17964   6.446   1.268   8.163 -2.2396 -0.1455  0.8068
  150DOPC   H6Y17965   6.359   1.416   8.199 -0.8377 -1.7092 -0.4407
  150DOPC   C3717966   6.530   1.431   8.077  0.3839  0.2615  0.6103
  150DOPC   H7X17967   6.554   1.538   8.094  0.5124  0.4502 -0.6235
  150DOPC   H7Y17968   6.633   1.389   8.071  0.8153  1.4713 -1.2861
  150DOPC   C3817969   6.450   1.430   7.946 -0.4817  1.2825  1.1051
  150DOPC   H8X17970   6.497   1.502   7.875 -1.4570 -0.4543 -1.4541
  150DOPC   H8Y17971   6.343   1.449   7.967 -1.3589 -0.2719 -1.4688
  150DOPC   C3917972   6.438   1.298   7.874 -0.9462  0.3980 -0.0349
  150DOPC   H9X17973   6.385   1.221   7.933 -3.0813  0.1927 -2.0869
  150DOPC  C31017974   6.503   1.265   7.755 -0.1462 -0.3103 -0.8106
  150DOPC  H10X17975   6.475   1.168   7.711 -1.1242 -0.7726  0.7329
  150DOPC  C31117976   6.580   1.354   7.662 -0.0131 -0.7873  0.6736
  150DOPC  H11X17977   6.600   1.450   7.713  0.2101 -0.0498 -0.7590
  150DOPC  H11Y17978   6.512   1.385   7.580 -2.0611  0.6401  2.8077
  150DOPC  C31217979   6.711   1.308   7.592 -0.5417 -0.3915  0.0623
  150DOPC  H12X17980   6.759   1.264   7.681 -2.1900 -1.2299  0.5666
  150DOPC  H12Y17981   6.783   1.386   7.558 -2.2333  0.9786 -0.5509
  150DOPC  C31317982   6.695   1.209   7.484  0.3868 -0.0332 -0.6147
  150DOPC  H13X17983   6.795   1.167   7.459  0.8815  1.0659 -0.5657
  150DOPC  H13Y17984   6.629   1.123   7.507  1.1622 -0.1341  1.4684
  150DOPC  C31417985   6.647   1.280   7.351 -0.4477 -0.4381 -0.1199
  150DOPC  H14X17986   6.563   1.351   7.367 -0.2823 -0.2083 -0.2526
  150DOPC  H14Y17987   6.733   1.335   7.305  1.0045 -1.7682  0.8798
  150DOPC  C31517988   6.587   1.171   7.252 -0.0678 -0.4647  0.8239
  150DOPC  H15X17989   6.637   1.076   7.279  0.4782 -1.3638 -2.8470
  150DOPC  H15Y17990   6.616   1.199   7.148  1.3543 -1.1136  1.0235
  150DOPC  C31617991   6.429   1.152   7.266 -0.1196  0.0649 -0.4473
  150DOPC  H16X17992   6.412   1.052   7.220 -2.7960 -0.4008  1.3091
  150DOPC  H16Y17993   6.415   1.135   7.375  2.0797 -2.7457 -0.5137
  150DOPC  C31717994   6.351   1.266   7.190  0.9592  0.2764 -0.1795
  150DOPC  H17X17995   6.398   1.365   7.207 -0.2007  1.1672 -1.9127
  150DOPC  H17Y17996   6.347   1.243   7.082  0.3463 -0.3863 -0.0223
  150DOPC  C31817997   6.208   1.266   7.249 -0.2695 -0.5231  0.2727
  150DOPC  H18X17998   6.199   1.302   7.354 -1.7600 -2.5828  0.9063
  150DOPC  H18Y17999   6.145   1.334   7.187 -0.3329 -1.0162 -0.2096
  150DOPC  H18Z18000   6.165   1.164   7.255  0.5232 -0.7993  1.8827
  151DOPC     N18001   2.189   4.967   9.417  0.5341  0.2604  0.0638
  151DOPC   C1218002   2.082   4.887   9.354  0.6390  0.1718 -0.7807
  151DOPC  H12A18003   1.998   4.952   9.336 -0.2506 -0.4297  0.9221
  151DOPC  H12B18004   2.046   4.811   9.422 -0.0442  0.1652 -1.1439
  151DOPC   C1318005   2.145   5.025   9.544 -0.0423 -0.2642  0.0305
  151DOPC  H13A18006   2.117   4.943   9.609 -1.2864  0.4916  0.4759
  151DOPC  H13B18007   2.227   5.075   9.594  0.0027 -1.5072  1.2931
  151DOPC  H13C18008   2.062   5.093   9.535 -0.5339 -0.8601 -0.0252
  151DOPC   C1418009   2.239   5.080   9.329 -0.1723 -0.0383 -0.2035
  151DOPC  H14A18010   2.167   5.158   9.310 -1.0257 -0.8730 -0.4705
  151DOPC  H14B18011   2.325   5.131   9.371  0.8419  0.6901 -2.9313
  151DOPC  H14C18012   2.266   5.054   9.228  0.3577 -0.3913  0.0231
  151DOPC   C1518013   2.305   4.879   9.445  0.4350 -0.0335 -0.6054
  151DOPC  H15A18014   2.397   4.936   9.443 -0.2727  1.1232 -0.6410
  151DOPC  H15B18015   2.316   4.799   9.373  0.9008  0.6143 -1.2747
  151DOPC  H15C18016   2.296   4.824   9.538 -1.8913 -0.0682 -0.8041
  151DOPC   C1118017   2.116   4.813   9.216  0.0309  0.6791 -0.7117
  151DOPC  H11A18018   2.019   4.787   9.169  1.3031  1.8400 -4.3129
  151DOPC  H11B18019   2.167   4.887   9.150 -1.6636  2.1762 -0.4168
  151DOPC     P18020   2.152   4.558   9.291 -0.1811 -0.0784  0.1673
  151DOPC   O1318021   2.072   4.575   9.412 -0.0085  0.6514  0.8344
  151DOPC   O1418022   2.265   4.465   9.304  0.3977  0.0574  0.2293
  151DOPC   O1218023   2.204   4.698   9.245  0.5409 -0.0965  0.3662
  151DOPC   O1118024   2.067   4.513   9.171  0.4541 -0.8378  0.2297
  151DOPC    C118025   2.116   4.465   9.046  0.4421 -0.9665 -0.6020
  151DOPC    HA18026   2.092   4.358   9.028  0.3414 -0.8459 -1.1999
  151DOPC    HB18027   2.226   4.483   9.043  0.1180  2.4985  2.3003
  151DOPC    C218028   2.068   4.567   8.930  0.1593 -0.5863 -0.3687
  151DOPC    HS18029   2.124   4.661   8.949 -0.5386  0.0404 -1.3408
  151DOPC   O2118030   1.922   4.592   8.945 -0.1166 -0.7587 -0.8438
  151DOPC   C2118031   1.871   4.712   8.902  0.1942  0.8597  0.4133
  151DOPC   O2218032   1.938   4.799   8.851 -0.7384 -0.2829  0.3147
  151DOPC   C2218033   1.718   4.717   8.924  0.3876  0.1849 -0.0477
  151DOPC   H2R18034   1.712   4.823   8.955 -0.8510  1.0681 -2.9145
  151DOPC   H2S18035   1.675   4.657   9.006  0.7232  1.7704  1.3270
  151DOPC    C318036   2.106   4.508   8.794 -0.2649 -0.6490  0.1200
  151DOPC    HX18037   2.034   4.426   8.772 -0.6899  0.4295 -3.0160
  151DOPC    HY18038   2.203   4.457   8.812  0.4646  0.5506 -0.3017
  151DOPC   O3118039   2.115   4.602   8.683  0.6671  0.1687 -0.0414
  151DOPC   C3118040   2.231   4.672   8.678  1.0604 -0.4308  0.0401
  151DOPC   O3218041   2.332   4.657   8.742 -0.2719 -0.0279 -0.3506
  151DOPC   C3218042   2.219   4.767   8.550  0.8090 -0.1222 -0.0868
  151DOPC   H2X18043   2.164   4.708   8.474  0.7884 -0.3819  0.1275
  151DOPC   H2Y18044   2.166   4.858   8.584  1.8503 -0.2671  2.1194
  151DOPC   C2318045   1.630   4.692   8.795 -0.2079  0.2904 -0.4748
  151DOPC   H3R18046   1.527   4.707   8.834 -0.4774 -0.1985 -1.0019
  151DOPC   H3S18047   1.646   4.587   8.763 -0.0711  0.8101 -2.2198
  151DOPC   C2418048   1.651   4.785   8.674  0.3297  0.4789  0.0368
  151DOPC   H4R18049   1.702   4.876   8.711 -0.7570  0.7289  0.9650
  151DOPC   H4S18050   1.554   4.826   8.638 -0.5135 -1.2675  0.2294
  151DOPC   C2518051   1.732   4.733   8.562  0.3069  0.7398  0.1720
  151DOPC   H5R18052   1.688   4.659   8.491  0.9140 -0.8534  1.4011
  151DOPC   H5S18053   1.819   4.682   8.609  0.4482  0.8631  0.0470
  151DOPC   C2618054   1.787   4.841   8.466 -0.2562  0.6504  0.0650
  151DOPC   H6R18055   1.859   4.889   8.536 -1.6614 -0.4950  2.4190
  151DOPC   H6S18056   1.720   4.920   8.427  0.1909  0.9064 -0.1958
  151DOPC   C2718057   1.862   4.789   8.351 -0.0195 -0.0608  0.5349
  151DOPC   H7R18058   1.928   4.705   8.382 -1.5605 -1.6859 -0.3671
  151DOPC   H7S18059   1.944   4.859   8.325 -0.0266 -0.3172 -0.1944
  151DOPC   C2818060   1.785   4.733   8.235 -0.0568 -0.0643 -0.2320
  151DOPC   H8R18061   1.711   4.664   8.281 -0.2240 -0.3544 -0.9243
  151DOPC   H8S18062   1.865   4.675   8.184  0.7792  0.4281  0.4818
  151DOPC   C2918063   1.730   4.832   8.139 -0.1302 -0.4094  0.7347
  151DOPC   H9R18064   1.669   4.912   8.183  0.0779  1.4153 -2.0933
  151DOPC  C21018065   1.736   4.838   8.007  0.0140  0.1497  0.2245
  151DOPC  H10R18066   1.692   4.921   7.949  0.6101  0.9722  0.9298
  151DOPC  C21118067   1.803   4.745   7.911 -0.2627 -0.2306 -0.8093
  151DOPC  H11R18068   1.800   4.639   7.942 -0.2642 -1.3700 -4.3119
  151DOPC  H11S18069   1.911   4.772   7.910 -0.4834  0.9322  1.2506
  151DOPC  C21218070   1.740   4.756   7.772  0.9001 -0.1484  0.2392
  151DOPC  H12R18071   1.718   4.858   7.735 -0.1968  0.0604  1.3801
  151DOPC  H12S18072   1.644   4.700   7.769 -0.0004  1.3534 -0.2812
  151DOPC  C21318073   1.833   4.687   7.667  0.1585  0.0568 -0.1833
  151DOPC  H13R18074   1.859   4.583   7.695 -1.1604  0.1745  1.6198
  151DOPC  H13S18075   1.926   4.748   7.667 -0.1252  0.6800  3.0281
  151DOPC  C21418076   1.792   4.686   7.523 -0.2642 -0.9892 -0.3425
  151DOPC  H14R18077   1.728   4.774   7.502  0.3106  0.1824  2.3879
  151DOPC  H14S18078   1.714   4.608   7.508 -1.1981 -0.2986  0.7626
  151DOPC  C21518079   1.906   4.676   7.424 -0.1545  0.4677  0.6275
  151DOPC  H15R18080   1.969   4.588   7.448 -0.0870  0.6003  0.9343
  151DOPC  H15S18081   1.972   4.765   7.424  1.0165 -0.3878  0.4802
  151DOPC  C21618082   1.857   4.675   7.274 -0.4859  0.6957  0.0950
  151DOPC  H16R18083   1.782   4.756   7.261 -0.7579  0.3192 -0.7031
  151DOPC  H16S18084   1.815   4.579   7.237  1.8899 -1.4394  2.5027
  151DOPC  C21718085   1.966   4.712   7.172  0.4493 -0.0066  1.7463
  151DOPC  H17R18086   2.044   4.634   7.157  2.5788  2.2546  0.3848
  151DOPC  H17S18087   2.030   4.799   7.198  0.5290  0.0596  1.3349
  151DOPC  C21818088   1.907   4.731   7.030 -0.6011  0.2089  0.1841
  151DOPC  H18R18089   1.853   4.828   7.034 -0.9311  0.0109  0.5971
  151DOPC  H18S18090   1.834   4.654   6.996  0.9497 -1.6381  0.8693
  151DOPC  H18T18091   1.994   4.743   6.962 -0.0038 -1.5216  0.6090
  151DOPC   C3318092   2.353   4.794   8.493 -0.7534  0.7990  0.3195
  151DOPC   H3X18093   2.397   4.694   8.473 -1.7537  0.0137  1.7850
  151DOPC   H3Y18094   2.417   4.851   8.563  1.5876  0.8691 -1.7450
  151DOPC   C3418095   2.346   4.889   8.363  0.2511 -0.0117 -0.0664
  151DOPC   H4X18096   2.447   4.889   8.317  0.5386 -0.7317  0.5378
  151DOPC   H4Y18097   2.311   4.990   8.392  0.8353  0.1867 -0.0373
  151DOPC   C3518098   2.250   4.844   8.250  0.5379  0.6412  0.4787
  151DOPC   H5X18099   2.145   4.848   8.284  0.8425  2.6488  1.2589
  151DOPC   H5Y18100   2.261   4.734   8.238 -0.1725  0.5685  0.4714
  151DOPC   C3618101   2.270   4.920   8.115 -0.5278  0.5043 -0.7259
  151DOPC   H6X18102   2.262   5.028   8.138  0.1554  0.2742  0.7072
  151DOPC   H6Y18103   2.370   4.901   8.071 -1.1024 -0.7242 -1.5707
  151DOPC   C3718104   2.162   4.902   8.006  0.4911  0.1402  0.4252
  151DOPC   H7X18105   2.157   4.799   7.964 -1.1323 -1.2125  3.6004
  151DOPC   H7Y18106   2.064   4.923   8.055  1.0218 -0.1399  1.6490
  151DOPC   C3818107   2.167   5.009   7.897 -0.4705  0.2004  0.0827
  151DOPC   H8X18108   2.153   5.110   7.943 -3.5297  0.2881 -0.8409
  151DOPC   H8Y18109   2.079   4.996   7.831 -0.4339 -1.9187  0.3929
  151DOPC   C3918110   2.297   5.013   7.814  0.9817  0.2294  0.0353
  151DOPC   H9X18111   2.379   5.070   7.861  0.8482  2.4733 -2.2301
  151DOPC  C31018112   2.310   4.980   7.684  0.0662 -0.0121 -0.0783
  151DOPC  H10X18113   2.404   5.006   7.633 -0.4207 -0.5246 -1.2814
  151DOPC  C31118114   2.200   4.921   7.606  0.2174 -0.2387  0.3613
  151DOPC  H11X18115   2.107   4.896   7.662 -1.1571  0.2590 -1.5771
  151DOPC  H11Y18116   2.232   4.829   7.553  0.1393 -0.5100  0.7811
  151DOPC  C31218117   2.170   5.015   7.485 -0.7794 -0.5298 -0.4312
  151DOPC  H12X18118   2.133   5.113   7.522  0.0492  0.6699 -2.5969
  151DOPC  H12Y18119   2.096   4.960   7.424 -2.3256  0.2440  0.6832
  151DOPC  C31318120   2.293   5.037   7.391 -0.0508  0.0507  0.3504
  151DOPC  H13X18121   2.365   5.093   7.454 -0.2964 -0.5861  1.2251
  151DOPC  H13Y18122   2.347   4.942   7.372  1.1265  0.9162 -0.7339
  151DOPC  C31418123   2.275   5.122   7.263 -0.1451 -0.0425  0.5075
  151DOPC  H14X18124   2.210   5.207   7.293 -1.9427 -0.8313 -1.0159
  151DOPC  H14Y18125   2.375   5.165   7.238  0.9788 -2.9532 -0.3617
  151DOPC  C31518126   2.219   5.056   7.143  0.1543  0.6800  0.0062
  151DOPC  H15X18127   2.124   5.002   7.166 -1.1278  2.4247 -1.0187
  151DOPC  H15Y18128   2.296   4.983   7.108  0.4572  0.2630  1.4639
  151DOPC  C31618129   2.196   5.154   7.028  0.9468 -0.1144  0.3034
  151DOPC  H16X18130   2.140   5.243   7.064 -1.9185  0.2986 -4.3601
  151DOPC  H16Y18131   2.298   5.195   7.012  0.9576  1.4415  3.4434
  151DOPC  C31718132   2.136   5.102   6.898 -0.6841  0.1663  0.4549
  151DOPC  H17X18133   2.210   5.024   6.869 -1.9368 -0.0698 -2.4052
  151DOPC  H17Y18134   2.034   5.063   6.917 -0.3782 -0.7022  0.3819
  151DOPC  C31818135   2.141   5.214   6.789  0.1436  1.1372  0.1486
  151DOPC  H18X18136   2.120   5.171   6.689 -0.8863  0.3550  0.6829
  151DOPC  H18Y18137   2.063   5.288   6.816 -0.0252 -0.1600  3.9563
  151DOPC  H18Z18138   2.239   5.265   6.781  1.0867 -0.8768 -2.7294
  152DOPC     N18139   3.812   3.089   8.972 -0.7653 -0.0649  0.1099
  152DOPC   C1218140   3.961   3.073   8.964  0.4154  0.1621 -0.2729
  152DOPC  H12A18141   3.970   2.969   8.990 -0.9637 -0.0296 -0.4679
  152DOPC  H12B18142   4.017   3.138   9.031 -1.9728  2.6299 -0.4561
  152DOPC   C1318143   3.748   2.974   8.907  0.3201 -0.1292 -0.1301
  152DOPC  H13A18144   3.642   2.992   8.903 -0.2080 -1.6364  3.5373
  152DOPC  H13B18145   3.784   2.960   8.805  0.5817 -0.7325  0.0364
  152DOPC  H13C18146   3.768   2.881   8.958 -0.3946  0.1649  0.7048
  152DOPC   C1418147   3.765   3.215   8.913 -0.4510  0.3832 -0.3323
  152DOPC  H14A18148   3.823   3.299   8.948 -0.8946  0.8393 -0.6989
  152DOPC  H14B18149   3.773   3.212   8.805 -0.4361 -0.6659 -0.3199
  152DOPC  H14C18150   3.665   3.234   8.948 -0.2838  2.3069 -0.8372
  152DOPC   C1518151   3.784   3.099   9.114 -0.1373  0.2163  0.0957
  152DOPC  H15A18152   3.677   3.101   9.131 -0.4751  1.0527 -1.9065
  152DOPC  H15B18153   3.822   3.192   9.154  1.6795 -0.2931 -0.3544
  152DOPC  H15C18154   3.835   3.026   9.175  2.1640  1.4890 -0.1758
  152DOPC   C1118155   4.039   3.098   8.831  0.4012 -0.3298  0.4700
  152DOPC  H11A18156   4.139   3.050   8.829  1.5753  1.9559 -0.1749
  152DOPC  H11B18157   3.977   3.041   8.758  0.0455 -0.1637  0.6399
  152DOPC     P18158   4.119   3.329   8.887 -0.3533  0.1708 -0.1928
  152DOPC   O1318159   4.198   3.247   8.982  0.4126  0.0139  0.0938
  152DOPC   O1418160   4.017   3.424   8.943  0.3077  1.0744  0.9989
  152DOPC   O1218161   4.041   3.231   8.795 -0.1670 -0.3644  0.0990
  152DOPC   O1118162   4.206   3.404   8.778  0.0176 -0.0337 -0.2508
  152DOPC    C118163   4.324   3.343   8.721  0.1670  0.2080  0.1037
  152DOPC    HA18164   4.352   3.251   8.776 -1.7074  0.5052  1.6662
  152DOPC    HB18165   4.402   3.421   8.733  0.4431 -0.1085  0.3632
  152DOPC    C218166   4.311   3.309   8.575 -0.9053 -0.4394 -0.1599
  152DOPC    HS18167   4.413   3.286   8.537 -0.4274 -0.8706  1.2972
  152DOPC   O2118168   4.260   3.425   8.510 -0.5860  0.2187 -0.2995
  152DOPC   C2118169   4.353   3.511   8.480  0.2186  0.0107  1.0909
  152DOPC   O2218170   4.471   3.513   8.508  0.1762  0.2759  0.1668
  152DOPC   C2218171   4.284   3.629   8.418 -0.1328  0.4935  0.1430
  152DOPC   H2R18172   4.286   3.720   8.481  1.9098 -0.2445  1.2324
  152DOPC   H2S18173   4.181   3.592   8.399  0.5493 -1.9996  0.9533
  152DOPC    C318174   4.223   3.186   8.544 -0.0295  0.1567  0.3995
  152DOPC    HX18175   4.121   3.202   8.585 -0.0691 -0.6086  0.6328
  152DOPC    HY18176   4.280   3.109   8.600  1.8557  0.6999 -0.6699
  152DOPC   O3118177   4.226   3.134   8.406 -0.2215 -0.3792  0.6041
  152DOPC   C3118178   4.111   3.070   8.374 -0.6552 -0.4886  0.0640
  152DOPC   O3218179   4.029   3.028   8.449  0.1111  0.1226 -0.0232
  152DOPC   C3218180   4.114   3.040   8.228  0.3901 -0.5636 -0.2293
  152DOPC   H2X18181   4.150   3.129   8.172 -0.3429 -0.8693 -1.2169
  152DOPC   H2Y18182   4.184   2.955   8.214  1.4539 -0.1777  2.2317
  152DOPC   C2318183   4.364   3.659   8.285  0.4313 -0.2650  0.2387
  152DOPC   H3R18184   4.471   3.681   8.301  0.0231  0.3385  2.4038
  152DOPC   H3S18185   4.320   3.747   8.233 -0.5211  0.1806  1.7216
  152DOPC   C2418186   4.360   3.534   8.189 -0.4614  0.1454 -0.4512
  152DOPC   H4R18187   4.273   3.470   8.215  1.0843 -1.8305  0.1029
  152DOPC   H4S18188   4.449   3.471   8.211 -1.4084 -0.3759  2.2820
  152DOPC   C2518189   4.336   3.569   8.042 -0.0440 -0.3829 -0.4391
  152DOPC   H5R18190   4.394   3.661   8.020 -0.7438 -0.0415 -0.9059
  152DOPC   H5S18191   4.228   3.595   8.034 -0.3378 -1.9087 -2.3943
  152DOPC   C2618192   4.364   3.458   7.945 -0.1710  0.4665 -0.5612
  152DOPC   H6R18193   4.302   3.372   7.975 -0.5815  0.8695 -0.2426
  152DOPC   H6S18194   4.467   3.420   7.962  0.3429  2.0754  0.1582
  152DOPC   C2718195   4.333   3.486   7.797 -0.9165 -0.2116  0.1304
  152DOPC   H7R18196   4.393   3.575   7.768  0.5906 -0.1357  3.1116
  152DOPC   H7S18197   4.227   3.519   7.802 -0.6317  0.6289  0.8929
  152DOPC   C2818198   4.348   3.366   7.709 -0.4573  0.3982 -0.5986
  152DOPC   H8R18199   4.272   3.371   7.627 -1.9422 -0.1774  0.6925
  152DOPC   H8S18200   4.314   3.273   7.759  0.2053 -0.9550 -2.5331
  152DOPC   C2918201   4.492   3.350   7.663 -0.0476 -0.4828  1.1234
  152DOPC   H9R18202   4.563   3.337   7.746 -0.8034  0.1860  1.8835
  152DOPC  C21018203   4.544   3.352   7.541  0.2913 -0.1120  0.0566
  152DOPC  H10R18204   4.652   3.347   7.521  0.1254  1.2592 -1.3594
  152DOPC  C21118205   4.459   3.372   7.423 -0.0680 -0.0915 -0.4866
  152DOPC  H11R18206   4.375   3.443   7.439  1.2217  1.2415  0.5670
  152DOPC  H11S18207   4.410   3.276   7.396  2.7513 -1.6515 -0.4098
  152DOPC  C21218208   4.546   3.419   7.300  1.2818  0.6076 -0.9146
  152DOPC  H12R18209   4.653   3.403   7.327  0.7527 -1.8923 -0.0010
  152DOPC  H12S18210   4.526   3.525   7.274  0.1419  0.4380 -0.7700
  152DOPC  C21318211   4.519   3.343   7.174 -0.4185 -0.6391 -0.2259
  152DOPC  H13R18212   4.417   3.375   7.143 -0.3864  0.4784  0.7746
  152DOPC  H13S18213   4.518   3.234   7.193 -0.0324 -0.8914 -1.5521
  152DOPC  C21418214   4.617   3.377   7.063  0.3214  0.2046  0.6508
  152DOPC  H14R18215   4.723   3.372   7.096  0.5114 -0.5742 -0.0483
  152DOPC  H14S18216   4.590   3.480   7.029 -0.5503 -0.4027 -0.5361
  152DOPC  C21518217   4.606   3.289   6.937  0.7865  0.5024 -0.0424
  152DOPC  H15R18218   4.495   3.288   6.926  0.7196  0.8091  0.5204
  152DOPC  H15S18219   4.646   3.191   6.969  0.3565  0.2755 -0.1894
  152DOPC  C21618220   4.685   3.331   6.814  0.9534 -0.2922 -0.0920
  152DOPC  H16R18221   4.792   3.326   6.843  0.4385 -2.2700  1.6797
  152DOPC  H16S18222   4.642   3.431   6.791  0.1158 -0.7766 -0.7077
  152DOPC  C21718223   4.666   3.252   6.680  0.3973 -0.0170  0.4702
  152DOPC  H17R18224   4.563   3.271   6.642 -0.6291 -2.7481  1.6679
  152DOPC  H17S18225   4.664   3.143   6.696  0.3751 -0.3248 -1.3511
  152DOPC  C21818226   4.763   3.292   6.561 -0.0917 -0.4067 -0.1954
  152DOPC  H18R18227   4.759   3.397   6.525  0.8155  0.3531  1.7980
  152DOPC  H18S18228   4.762   3.211   6.484  1.2912 -1.7458  1.1096
  152DOPC  H18T18229   4.864   3.276   6.605  0.0630 -0.8254 -0.6827
  152DOPC   C3318230   3.982   2.978   8.174  0.1661  0.3984 -0.1294
  152DOPC   H3X18231   3.901   3.052   8.192 -1.0932 -1.1590  0.8242
  152DOPC   H3Y18232   3.958   2.887   8.231  2.6169  0.4075  1.0282
  152DOPC   C3418233   3.978   2.946   8.030  0.5940  0.0384 -0.7281
  152DOPC   H4X18234   3.883   2.892   8.009 -0.4804  0.7401  1.8457
  152DOPC   H4Y18235   4.053   2.867   8.009  1.2599 -0.0604  1.7363
  152DOPC   C3518236   3.984   3.069   7.945  0.5898 -0.2527  0.2494
  152DOPC   H5X18237   4.079   3.126   7.959 -0.0021  0.6201  0.7644
  152DOPC   H5Y18238   3.908   3.142   7.980  0.9142  0.0108  0.4149
  152DOPC   C3618239   3.972   3.054   7.792  0.0486  0.0081  0.2728
  152DOPC   H6X18240   3.869   3.025   7.761  1.1228 -2.8021 -1.0298
  152DOPC   H6Y18241   4.002   3.156   7.758 -1.4466  1.7251  3.6357
  152DOPC   C3718242   4.063   2.938   7.742  0.7518 -0.2833  0.4648
  152DOPC   H7X18243   4.150   2.936   7.812 -0.2606 -1.1953  1.7519
  152DOPC   H7Y18244   4.016   2.839   7.761 -0.8822  0.5362  0.8532
  152DOPC   C3818245   4.096   2.951   7.593 -0.4122  0.9884  0.2115
  152DOPC   H8X18246   3.999   2.937   7.541  0.6604  0.5677 -1.8280
  152DOPC   H8Y18247   4.154   2.863   7.557 -1.6106 -0.0232  0.6707
  152DOPC   C3918248   4.163   3.079   7.563 -0.8523  0.0196  0.7856
  152DOPC   H9X18249   4.253   3.102   7.622 -1.6652  1.1072  1.6517
  152DOPC  C31018250   4.124   3.164   7.472  0.5710  0.2557  0.4116
  152DOPC  H10X18251   4.181   3.257   7.455 -0.0022  0.2972 -1.5733
  152DOPC  C31118252   4.022   3.150   7.368  0.4182 -0.2986  0.0830
  152DOPC  H11X18253   3.949   3.234   7.376 -1.6048 -1.8587 -1.0456
  152DOPC  H11Y18254   3.949   3.070   7.392 -1.5157  1.4714  0.3395
  152DOPC  C31218255   4.080   3.125   7.224  0.6417  0.0444  0.6286
  152DOPC  H12X18256   4.134   3.029   7.213 -1.5583 -1.2760  0.7665
  152DOPC  H12Y18257   4.162   3.197   7.200 -0.2541  1.5716  1.9649
  152DOPC  C31318258   3.972   3.136   7.111  0.1509  0.1132 -0.1354
  152DOPC  H13X18259   3.887   3.067   7.130  1.3870 -1.2745  0.6110
  152DOPC  H13Y18260   3.937   3.241   7.117  0.4991  0.5232 -3.4226
  152DOPC  C31418261   4.023   3.112   6.961 -0.0938  0.0464 -0.2282
  152DOPC  H14X18262   4.121   3.164   6.958 -1.2269  2.6043  2.0521
  152DOPC  H14Y18263   4.042   3.003   6.968 -1.8280 -0.1835  2.9005
  152DOPC  C31518264   3.919   3.135   6.861  0.2791 -0.0043 -0.4437
  152DOPC  H15X18265   3.900   3.243   6.848  0.0563 -0.2050 -1.9101
  152DOPC  H15Y18266   3.828   3.081   6.897 -0.2246  0.6398 -0.7290
  152DOPC  C31618267   3.955   3.073   6.728 -0.3421  0.1328  0.0315
  152DOPC  H16X18268   3.970   2.963   6.738  1.2514  0.3192 -0.0776
  152DOPC  H16Y18269   3.869   3.093   6.660 -1.5228 -0.2621  1.3567
  152DOPC  C31718270   4.080   3.135   6.675  0.3450 -0.3569  0.8149
  152DOPC  H17X18271   4.075   3.243   6.702 -0.6331 -0.2736  0.3301
  152DOPC  H17Y18272   4.170   3.095   6.727  0.9195 -1.0903 -0.6929
  152DOPC  C31818273   4.116   3.129   6.527 -1.2340  0.7567  0.5522
  152DOPC  H18X18274   4.112   3.024   6.490  0.7327  0.8209  0.0507
  152DOPC  H18Y18275   4.047   3.181   6.458  1.7639  1.2700 -2.3122
  152DOPC  H18Z18276   4.217   3.170   6.507 -1.3348  0.7086 -0.0939
  153DOPC     N18277   6.261   3.039   8.745 -0.1673 -0.6027 -0.2501
  153DOPC   C1218278   6.160   3.029   8.868  0.0737  0.0971  0.0852
  153DOPC  H12A18279   6.101   2.940   8.852  0.6779 -0.4914  1.0316
  153DOPC  H12B18280   6.088   3.110   8.873 -0.2199 -0.2325  1.7466
  153DOPC   C1318281   6.340   3.163   8.749  0.1715 -0.3731 -0.6939
  153DOPC  H13A18282   6.273   3.246   8.763 -2.4636 -2.3640 -0.7231
  153DOPC  H13B18283   6.409   3.153   8.832  0.5309 -0.8844 -1.0478
  153DOPC  H13C18284   6.405   3.188   8.667  0.1837  0.2692 -0.4946
  153DOPC   C1418285   6.190   3.041   8.613  0.5004 -0.1340  0.0781
  153DOPC  H14A18286   6.114   2.964   8.613  1.3247 -0.9648 -0.5544
  153DOPC  H14B18287   6.141   3.136   8.598  0.5114  0.0865  1.2758
  153DOPC  H14C18288   6.259   3.019   8.534 -0.4737 -0.6115 -0.6547
  153DOPC   C1518289   6.359   2.926   8.747  0.2879  1.0014 -0.1342
  153DOPC  H15A18290   6.403   2.902   8.843 -1.9954  1.4916  1.1034
  153DOPC  H15B18291   6.440   2.945   8.678  1.8080  0.9658  1.5428
  153DOPC  H15C18292   6.312   2.832   8.725 -1.0793  1.6208  0.0084
  153DOPC   C1118293   6.204   3.019   9.012  0.1111  0.4877 -0.1161
  153DOPC  H11A18294   6.111   3.010   9.073 -0.1639  3.3966  0.0540
  153DOPC  H11B18295   6.269   2.934   9.040  1.2897  0.4566 -2.6847
  153DOPC     P18296   6.179   3.283   9.084  0.0398 -0.1066  0.0495
  153DOPC   O1318297   6.283   3.395   9.079  0.3784  0.2082  0.1455
  153DOPC   O1418298   6.088   3.279   9.198 -0.1314  0.9277  0.1222
  153DOPC   O1218299   6.257   3.148   9.060  0.3391  0.1500 -0.0182
  153DOPC   O1118300   6.103   3.299   8.951 -0.4502 -0.2734  0.2892
  153DOPC    C118301   6.012   3.399   8.922  0.8865 -0.7808  0.3681
  153DOPC    HA18302   6.026   3.500   8.965 -0.5875 -0.5278  0.3257
  153DOPC    HB18303   5.916   3.376   8.973 -1.3441  4.2949 -0.8198
  153DOPC    C218304   5.979   3.417   8.775  0.1914  0.3002 -0.0390
  153DOPC    HS18305   5.943   3.320   8.735  0.1198  0.3630 -0.1297
  153DOPC   O2118306   6.095   3.468   8.709 -0.1459 -0.0732  0.5062
  153DOPC   C2118307   6.100   3.423   8.587  0.3674 -0.1310  0.6640
  153DOPC   O2218308   6.041   3.329   8.539 -0.0691  0.6210 -0.1457
  153DOPC   C2218309   6.184   3.523   8.513 -0.1764  0.0424  0.1237
  153DOPC   H2R18310   6.272   3.549   8.575  0.0976 -0.9479  0.1769
  153DOPC   H2S18311   6.114   3.607   8.493 -0.2731 -0.0843 -0.0778
  153DOPC    C318312   5.868   3.528   8.773 -0.3508 -0.4055 -0.0678
  153DOPC    HX18313   5.903   3.619   8.827  2.0997 -0.2599 -1.7255
  153DOPC    HY18314   5.789   3.476   8.831 -1.3584  0.7441 -0.3510
  153DOPC   O3118315   5.816   3.542   8.643  0.0106  0.6650  0.1474
  153DOPC   C3118316   5.816   3.658   8.589  0.5986 -0.3434 -0.4070
  153DOPC   O3218317   5.858   3.765   8.632  0.2087  0.4543  0.1369
  153DOPC   C3218318   5.746   3.642   8.454  0.0635 -0.9701 -0.5162
  153DOPC   H2X18319   5.640   3.652   8.487  0.5302 -1.8065  1.4005
  153DOPC   H2Y18320   5.771   3.733   8.396 -0.7353 -0.8594 -0.6948
  153DOPC   C2318321   6.231   3.470   8.379  0.1212 -0.6518 -0.5245
  153DOPC   H3R18322   6.144   3.423   8.328 -1.0241  1.6871 -0.8394
  153DOPC   H3S18323   6.306   3.390   8.397 -0.3816 -1.0360 -0.0818
  153DOPC   C2418324   6.297   3.573   8.284  0.3449  0.2115 -0.8894
  153DOPC   H4R18325   6.334   3.522   8.192  0.1061  2.0295 -2.0617
  153DOPC   H4S18326   6.382   3.630   8.329  0.2347 -0.8816  0.7897
  153DOPC   C2518327   6.192   3.672   8.220  0.4715  0.2215  0.6653
  153DOPC   H5R18328   6.176   3.755   8.292  0.3818 -1.4099  2.6472
  153DOPC   H5S18329   6.101   3.607   8.217 -1.5336  2.8266 -3.3233
  153DOPC   C2618330   6.227   3.720   8.084 -0.5030 -0.1133 -0.2096
  153DOPC   H6R18331   6.232   3.640   8.006  1.2242 -0.3324  0.0885
  153DOPC   H6S18332   6.328   3.767   8.085  0.2407 -1.6225 -0.4770
  153DOPC   C2718333   6.134   3.827   8.029 -0.5753 -0.5439 -0.1616
  153DOPC   H7R18334   6.140   3.919   8.092 -2.4483 -0.4613 -0.0308
  153DOPC   H7S18335   6.028   3.792   8.035 -0.5858 -0.2905  1.3757
  153DOPC   C2818336   6.162   3.867   7.882  0.0238 -0.3511  0.3712
  153DOPC   H8R18337   6.273   3.869   7.870 -0.0918  1.6621 -0.7000
  153DOPC   H8S18338   6.124   3.968   7.856 -1.1964 -1.2802 -1.6853
  153DOPC   C2918339   6.107   3.766   7.788  0.7772 -0.1559  0.9053
  153DOPC   H9R18340   6.056   3.673   7.817 -1.6002  0.2161 -1.6507
  153DOPC  C21018341   6.100   3.783   7.652 -1.1485 -0.6214  0.0842
  153DOPC  H10R18342   6.075   3.693   7.593  0.2295 -0.9099 -0.0836
  153DOPC  C21118343   6.133   3.898   7.566 -0.0228  0.0230 -0.6837
  153DOPC  H11R18344   6.163   3.988   7.624  1.6843 -1.5310  0.9629
  153DOPC  H11S18345   6.044   3.921   7.504 -0.7639  2.8571  1.2559
  153DOPC  C21218346   6.250   3.879   7.467 -0.1514  0.1751 -0.1164
  153DOPC  H12R18347   6.336   3.846   7.529 -0.2191 -0.4085 -0.3350
  153DOPC  H12S18348   6.288   3.975   7.426 -2.1068  0.3340 -1.7071
  153DOPC  C21318349   6.213   3.777   7.356 -0.9451  0.2704  0.1548
  153DOPC  H13R18350   6.114   3.730   7.373 -2.8020  2.6559 -2.9395
  153DOPC  H13S18351   6.300   3.709   7.345 -0.9043 -0.3028  3.1307
  153DOPC  C21418352   6.219   3.837   7.218  0.3827  0.4457  0.4374
  153DOPC  H14R18353   6.199   3.748   7.154 -0.7720 -0.5252  2.0613
  153DOPC  H14S18354   6.317   3.884   7.196  0.5757 -0.1465 -0.0050
  153DOPC  C21518355   6.121   3.948   7.180  0.2941 -0.1546 -0.0157
  153DOPC  H15R18356   6.099   4.013   7.267  0.2571 -2.5047  1.8128
  153DOPC  H15S18357   6.019   3.906   7.166  0.3269 -0.5575  0.9161
  153DOPC  C21618358   6.156   4.034   7.061  0.5827 -0.1624 -0.4337
  153DOPC  H16R18359   6.264   4.057   7.069  0.5215 -0.5549  3.1927
  153DOPC  H16S18360   6.092   4.124   7.064 -1.1394 -1.3686  1.1359
  153DOPC  C21718361   6.127   3.966   6.922 -0.3925 -0.3465 -0.4891
  153DOPC  H17R18362   6.022   3.929   6.919 -1.2086  1.7640 -0.2314
  153DOPC  H17S18363   6.195   3.879   6.918  0.6811  0.4403  0.0457
  153DOPC  C21818364   6.152   4.070   6.810 -0.1601  0.2445  0.5366
  153DOPC  H18R18365   6.065   4.139   6.824 -2.4226 -2.5186  0.9821
  153DOPC  H18S18366   6.141   4.020   6.711  2.6963 -0.5645  0.5453
  153DOPC  H18T18367   6.250   4.123   6.807 -0.7436  1.3291 -1.4438
  153DOPC   C3318368   5.774   3.515   8.379 -0.6037  0.3340  0.1084
  153DOPC   H3X18369   5.738   3.428   8.437  0.2965 -0.6471 -0.7644
  153DOPC   H3Y18370   5.883   3.499   8.365 -0.5893 -0.6374  1.2178
  153DOPC   C3418371   5.704   3.517   8.239 -0.4372  0.8049 -0.5117
  153DOPC   H4X18372   5.598   3.548   8.252 -0.0342  1.3333  2.3445
  153DOPC   H4Y18373   5.707   3.416   8.193  0.9843  0.6312 -0.0769
  153DOPC   C3518374   5.772   3.616   8.150  0.0617 -1.3216  0.8661
  153DOPC   H5X18375   5.878   3.585   8.144  0.7151  0.6957  1.2720
  153DOPC   H5Y18376   5.772   3.721   8.186  0.9088 -0.1713 -2.1652
  153DOPC   C3618377   5.716   3.631   8.000  0.4134  0.5818 -0.4512
  153DOPC   H6X18378   5.604   3.634   8.003  0.2472 -2.5998  0.6909
  153DOPC   H6Y18379   5.764   3.722   7.959  0.2244  0.9048  0.0378
  153DOPC   C3718380   5.757   3.518   7.918 -0.3877  0.3063  0.7244
  153DOPC   H7X18381   5.867   3.505   7.915  0.0748  3.5561 -1.6568
  153DOPC   H7Y18382   5.711   3.420   7.944 -0.6451  0.1628 -0.2230
  153DOPC   C3818383   5.734   3.550   7.760  0.2849  0.2985 -0.5877
  153DOPC   H8X18384   5.801   3.637   7.743 -0.4464  0.8290 -0.7969
  153DOPC   H8Y18385   5.627   3.578   7.752 -1.3839 -4.3609  1.9570
  153DOPC   C3918386   5.762   3.443   7.660  0.0725  0.8101  0.8195
  153DOPC   H9X18387   5.744   3.339   7.692 -2.4372  0.0124 -2.5982
  153DOPC  C31018388   5.787   3.466   7.527  0.0787  0.3406 -0.0232
  153DOPC  H10X18389   5.804   3.380   7.460 -0.6974 -1.7165  2.2739
  153DOPC  C31118390   5.803   3.604   7.476  0.2245 -0.0750 -0.1593
  153DOPC  H11X18391   5.903   3.624   7.433  0.3627  0.4644  0.3946
  153DOPC  H11Y18392   5.794   3.685   7.552 -1.4456  1.5604 -1.9919
  153DOPC  C31218393   5.699   3.644   7.372 -0.6358 -0.1627  0.0410
  153DOPC  H12X18394   5.696   3.753   7.354 -0.9136  0.3449  2.7353
  153DOPC  H12Y18395   5.600   3.604   7.401 -0.6825 -1.6136 -1.9180
  153DOPC  C31318396   5.738   3.582   7.230  0.2413 -0.7397 -0.4645
  153DOPC  H13X18397   5.842   3.611   7.205  0.5583 -2.2400 -0.9920
  153DOPC  H13Y18398   5.739   3.472   7.245 -0.2087 -0.4601  2.2172
  153DOPC  C31418399   5.643   3.633   7.124  0.0436  0.2693  0.7727
  153DOPC  H14X18400   5.537   3.614   7.150 -1.1553  0.3383 -3.3163
  153DOPC  H14Y18401   5.640   3.742   7.101 -0.9664  0.3430  1.2150
  153DOPC  C31518402   5.669   3.573   6.985  0.5570 -0.8611 -0.2666
  153DOPC  H15X18403   5.693   3.466   6.997  0.4689 -0.8507  0.0095
  153DOPC  H15Y18404   5.762   3.627   6.957  0.0390  0.0063 -0.3868
  153DOPC  C31618405   5.558   3.583   6.885 -0.2794  0.1578  0.2497
  153DOPC  H16X18406   5.479   3.524   6.935 -0.6793  1.2243  0.8921
  153DOPC  H16Y18407   5.526   3.689   6.877 -0.6312 -0.0561 -1.5650
  153DOPC  C31718408   5.600   3.540   6.748 -0.4778 -0.5563  0.1789
  153DOPC  H17X18409   5.699   3.574   6.712 -0.8388  0.8144  0.4404
  153DOPC  H17Y18410   5.627   3.432   6.741 -0.7698 -0.5514 -1.2882
  153DOPC  C31818411   5.490   3.550   6.641 -0.1706  0.4088  0.3588
  153DOPC  H18X18412   5.526   3.512   6.543  0.8068 -0.8616  1.1845
  153DOPC  H18Y18413   5.408   3.481   6.668 -0.0213  0.2177  0.3217
  153DOPC  H18Z18414   5.450   3.654   6.630  0.5994  0.6124 -0.6102
  154DOPC     N18415   0.633   5.847   9.920 -0.4643 -0.0329  0.2183
  154DOPC   C1218416   0.663   5.994   9.912  0.1395 -0.3607 -0.4634
  154DOPC  H12A18417   0.717   6.031   9.998  0.6457  0.4305 -1.1065
  154DOPC  H12B18418   0.565   6.039   9.913  0.5610  0.5624 -0.0532
  154DOPC   C1318419   0.561   5.788   9.804  0.7266 -0.5337 -0.3720
  154DOPC  H13A18420   0.459   5.822   9.799  0.3614 -1.6760 -1.0854
  154DOPC  H13B18421   0.617   5.820   9.717 -0.7027  1.4638 -0.6171
  154DOPC  H13C18422   0.555   5.680   9.808 -1.4794 -0.4736 -0.9370
  154DOPC   C1418423   0.556   5.806  10.040  0.1065  0.5189 -0.4933
  154DOPC  H14A18424   0.475   5.872  10.068 -0.0880  0.6603 -1.3542
  154DOPC  H14B18425   0.524   5.704  10.026  0.0650  0.4430  0.1223
  154DOPC  H14C18426   0.630   5.787  10.116  0.4961 -0.8655 -1.1893
  154DOPC   C1518427   0.767   5.774   9.918 -0.3558  0.4394 -0.1485
  154DOPC  H15A18428   0.829   5.822   9.992 -0.8827 -0.3817  0.8540
  154DOPC  H15B18429   0.810   5.789   9.820 -1.5382  1.8364 -0.4856
  154DOPC  H15C18430   0.752   5.669   9.941  1.3319 -0.1199 -1.3946
  154DOPC   C1118431   0.734   6.046   9.783 -0.9439 -0.4704 -0.3969
  154DOPC  H11A18432   0.771   6.150   9.775  1.7604 -1.4170 -1.2238
  154DOPC  H11B18433   0.831   5.991   9.785 -1.8109 -2.0463  0.1434
  154DOPC     P18434   0.554   6.099   9.619 -0.2709  0.0759  0.4827
  154DOPC   O1318435   0.607   6.232   9.582 -0.6357 -0.1373 -0.3172
  154DOPC   O1418436   0.435   6.096   9.703  0.4062 -0.3082 -0.3839
  154DOPC   O1218437   0.669   6.004   9.669  0.1490  0.2309 -0.4510
  154DOPC   O1118438   0.504   6.024   9.488  0.1780  0.3977  0.1819
  154DOPC    C118439   0.417   6.086   9.391 -0.3958 -0.3160 -0.0511
  154DOPC    HA18440   0.400   6.194   9.413  1.0778 -0.4297  1.7985
  154DOPC    HB18441   0.315   6.042   9.399 -0.0421 -0.8233  2.6932
  154DOPC    C218442   0.482   6.081   9.250 -0.0445  0.3696  0.6161
  154DOPC    HS18443   0.421   6.137   9.176  3.2484  1.1517 -1.7243
  154DOPC   O2118444   0.516   5.944   9.210 -0.0466  0.4183 -0.1135
  154DOPC   C2118445   0.414   5.870   9.180  1.1205  0.1206  0.0858
  154DOPC   O2218446   0.301   5.916   9.156  0.2211 -0.2990  0.2350
  154DOPC   C2218447   0.450   5.721   9.169  0.1400  0.7469 -0.3316
  154DOPC   H2R18448   0.403   5.672   9.257 -0.6739  0.7207 -0.7812
  154DOPC   H2S18449   0.561   5.717   9.182  0.1163 -0.8250 -0.4062
  154DOPC    C318450   0.617   6.164   9.245 -0.0338  0.2929 -0.3386
  154DOPC    HX18451   0.685   6.105   9.309 -5.1012 -3.4146  2.3332
  154DOPC    HY18452   0.602   6.263   9.295 -0.5417  0.0585 -0.0192
  154DOPC   O3118453   0.663   6.182   9.109  0.2252  0.1383 -0.1164
  154DOPC   C3118454   0.781   6.147   9.079  0.0290  0.6511 -0.0928
  154DOPC   O3218455   0.863   6.100   9.157 -0.2687 -0.2548 -0.6767
  154DOPC   C3218456   0.791   6.143   8.929  0.6014 -0.3437  0.2167
  154DOPC   H2X18457   0.799   6.246   8.888 -0.6244 -0.3666 -0.1445
  154DOPC   H2Y18458   0.889   6.096   8.908  0.2401 -1.2167  0.4185
  154DOPC   C2318459   0.388   5.668   9.037  0.3931 -0.3523 -0.8117
  154DOPC   H3R18460   0.278   5.682   9.028 -0.2830 -1.4984  3.4756
  154DOPC   H3S18461   0.404   5.558   9.030 -0.7153 -0.5673 -0.2212
  154DOPC   C2418462   0.467   5.722   8.913  0.0394 -0.9010 -0.1278
  154DOPC   H4R18463   0.485   5.831   8.924  0.5538 -1.1332  1.5547
  154DOPC   H4S18464   0.401   5.711   8.824  0.6200 -0.7139 -0.5829
  154DOPC   C2518465   0.585   5.647   8.868 -1.0613 -0.1750 -0.7501
  154DOPC   H5R18466   0.547   5.544   8.854 -4.0171  0.6563  0.5532
  154DOPC   H5S18467   0.660   5.649   8.950 -1.0636  0.5772 -0.7569
  154DOPC   C2618468   0.653   5.701   8.736 -0.0321  0.6308 -0.3751
  154DOPC   H6R18469   0.743   5.638   8.721 -0.2943  0.1262  0.1287
  154DOPC   H6S18470   0.688   5.806   8.731  0.9429  0.6797  3.6590
  154DOPC   C2718471   0.568   5.677   8.609 -0.2556  0.0591  0.1382
  154DOPC   H7R18472   0.488   5.754   8.611  0.0211  0.3868 -0.7076
  154DOPC   H7S18473   0.525   5.576   8.629 -1.6554  0.5565 -0.2391
  154DOPC   C2818474   0.651   5.684   8.475  0.3827 -0.5076 -0.2344
  154DOPC   H8R18475   0.607   5.614   8.401  0.5806  0.9439 -1.7807
  154DOPC   H8S18476   0.752   5.642   8.496  1.2292  0.9359 -1.2601
  154DOPC   C2918477   0.678   5.816   8.413  0.8511 -0.6960 -0.0078
  154DOPC   H9R18478   0.688   5.911   8.469  1.3112  0.3404 -1.7764
  154DOPC  C21018479   0.669   5.839   8.277 -0.9358  0.4789  0.0658
  154DOPC  H10R18480   0.702   5.939   8.245 -0.8191 -0.2830 -2.4584
  154DOPC  C21118481   0.637   5.736   8.174  0.2881 -0.0629  0.7622
  154DOPC  H11R18482   0.541   5.683   8.188  0.6120 -0.2597  2.5039
  154DOPC  H11S18483   0.717   5.660   8.163 -1.2233 -1.5641 -0.2863
  154DOPC  C21218484   0.632   5.809   8.034  0.0972  0.2486  1.0327
  154DOPC  H12R18485   0.732   5.857   8.032  0.9882 -1.4022 -3.0188
  154DOPC  H12S18486   0.569   5.901   8.031 -0.2638  0.1455  3.4869
  154DOPC  C21318487   0.626   5.718   7.917  0.2742  0.0298  0.3655
  154DOPC  H13R18488   0.527   5.666   7.913 -0.2858  1.1139 -2.0273
  154DOPC  H13S18489   0.703   5.638   7.918  1.0037  0.7048  2.1294
  154DOPC  C21418490   0.635   5.796   7.779 -0.3899  0.0536  0.0565
  154DOPC  H14R18491   0.724   5.860   7.762 -0.9658  0.4536 -1.6169
  154DOPC  H14S18492   0.540   5.852   7.772 -1.1384 -1.0383  1.1337
  154DOPC  C21518493   0.623   5.695   7.657 -0.8359  0.3511  0.1263
  154DOPC  H15R18494   0.542   5.626   7.686 -1.5749  1.6596  1.2818
  154DOPC  H15S18495   0.717   5.637   7.643 -0.1277  1.6477 -0.7788
  154DOPC  C21618496   0.590   5.774   7.532  0.4413  0.2141 -0.4917
  154DOPC  H16R18497   0.667   5.749   7.456 -1.1266 -5.3239 -0.6863
  154DOPC  H16S18498   0.589   5.883   7.550 -1.1638  0.0409  0.7005
  154DOPC  C21718499   0.453   5.722   7.487 -0.0462  0.7352 -0.1715
  154DOPC  H17R18500   0.375   5.744   7.563  0.7553 -0.4739  1.0385
  154DOPC  H17S18501   0.469   5.612   7.478 -1.1050  0.5685 -0.1765
  154DOPC  C21818502   0.423   5.785   7.352 -0.1151 -0.1354 -0.6143
  154DOPC  H18R18503   0.399   5.891   7.373 -1.1415 -0.0496 -2.0701
  154DOPC  H18S18504   0.342   5.735   7.295 -0.5801 -0.0037 -0.0764
  154DOPC  H18T18505   0.519   5.781   7.295  1.9951 -2.4543  2.7387
  154DOPC   C3318506   0.672   6.076   8.857  0.2555 -0.0543  0.0120
  154DOPC   H3X18507   0.572   6.107   8.896 -0.0856 -1.3680  0.2384
  154DOPC   H3Y18508   0.677   5.968   8.883 -0.5732  0.1272  0.9873
  154DOPC   C3418509   0.680   6.084   8.706 -0.1760 -0.1315  0.4511
  154DOPC   H4X18510   0.588   6.039   8.662 -0.3098 -0.5176  1.1154
  154DOPC   H4Y18511   0.768   6.022   8.679  0.8297 -0.3780  3.8654
  154DOPC   C3518512   0.702   6.223   8.644  0.3195  0.2480  0.1226
  154DOPC   H5X18513   0.802   6.264   8.669  0.6878  0.9471 -2.2488
  154DOPC   H5Y18514   0.627   6.294   8.685  0.4030  1.2409 -1.3466
  154DOPC   C3618515   0.694   6.219   8.490 -0.2452 -0.2454  0.2193
  154DOPC   H6X18516   0.757   6.134   8.457  1.0279 -0.2452  2.4562
  154DOPC   H6Y18517   0.591   6.185   8.466 -0.4114  0.0565  0.4959
  154DOPC   C3718518   0.726   6.356   8.423  0.2266 -0.0437 -0.3466
  154DOPC   H7X18519   0.655   6.427   8.470 -2.4700 -2.1286 -1.0268
  154DOPC   H7Y18520   0.824   6.403   8.447 -0.7920  1.3241  1.3778
  154DOPC   C3818521   0.708   6.359   8.272  0.2412  0.0730  0.0103
  154DOPC   H8X18522   0.689   6.464   8.242  0.8119  0.6363  1.5373
  154DOPC   H8Y18523   0.615   6.299   8.260  0.9061 -1.2031  0.9811
  154DOPC   C3918524   0.818   6.298   8.187 -0.3286 -0.0253  0.0248
  154DOPC   H9X18525   0.913   6.290   8.241 -0.4226  1.0433  0.3758
  154DOPC  C31018526   0.822   6.278   8.057  0.1852  0.3651  0.6664
  154DOPC  H10X18527   0.918   6.248   8.013  0.7772  0.4266  1.8657
  154DOPC  C31118528   0.716   6.307   7.952  0.5317 -1.0854  0.2172
  154DOPC  H11X18529   0.720   6.414   7.925 -0.2341 -1.0375  0.2688
  154DOPC  H11Y18530   0.615   6.289   7.996  0.1743  2.9496  1.4291
  154DOPC  C31218531   0.718   6.222   7.825 -0.4228 -0.0198  0.7524
  154DOPC  H12X18532   0.681   6.120   7.847 -0.8624  0.1706  0.9067
  154DOPC  H12Y18533   0.823   6.207   7.791 -0.3894  1.4534  0.0956
  154DOPC  C31318534   0.630   6.290   7.721 -0.0969  0.1268 -0.1479
  154DOPC  H13X18535   0.533   6.312   7.770 -0.8613  1.2286 -2.0447
  154DOPC  H13Y18536   0.669   6.391   7.697 -0.2142  0.1809 -0.1122
  154DOPC  C31418537   0.617   6.207   7.599  0.0984 -0.0617  0.5473
  154DOPC  H14X18538   0.719   6.171   7.576  0.6228  1.4932  0.3214
  154DOPC  H14Y18539   0.557   6.114   7.610 -0.7790  0.6674  2.3786
  154DOPC  C31518540   0.561   6.286   7.473  0.7472 -0.3836 -0.1978
  154DOPC  H15X18541   0.612   6.383   7.457  1.8104 -0.1982  3.4627
  154DOPC  H15Y18542   0.455   6.310   7.497  1.0733 -0.4307  1.3486
  154DOPC  C31618543   0.556   6.194   7.347 -0.1305 -0.3680 -0.4566
  154DOPC  H16X18544   0.652   6.142   7.327  0.1546 -0.3972  0.8969
  154DOPC  H16Y18545   0.489   6.109   7.373  1.2928 -1.4831 -0.3400
  154DOPC  C31718546   0.508   6.263   7.218  0.0801  0.1456  0.1214
  154DOPC  H17X18547   0.475   6.186   7.145 -3.1882 -0.7655  2.2787
  154DOPC  H17Y18548   0.413   6.316   7.242  0.4809  1.0487 -0.2609
  154DOPC  C31818549   0.611   6.360   7.153  0.8390 -0.2563  0.6596
  154DOPC  H18X18550   0.679   6.308   7.083 -1.0226 -1.9014 -0.0415
  154DOPC  H18Y18551   0.554   6.426   7.084  0.2736  0.8737  2.1367
  154DOPC  H18Z18552   0.665   6.425   7.225 -0.1041  2.2098 -0.7487
  155DOPC     N18553   3.522   3.691   9.000 -0.5243 -0.2044 -0.2810
  155DOPC   C1218554   3.602   3.764   8.893 -0.1488  0.6254 -0.0406
  155DOPC  H12A18555   3.662   3.693   8.838 -2.8295  0.0122 -2.3997
  155DOPC  H12B18556   3.667   3.838   8.936  2.7131 -1.4491 -0.5450
  155DOPC   C1318557   3.621   3.605   9.076  0.7117  0.1765 -1.0915
  155DOPC  H13A18558   3.705   3.580   9.013 -0.2722 -3.9741 -1.0538
  155DOPC  H13B18559   3.642   3.656   9.169 -1.2588 -2.6340  1.0861
  155DOPC  H13C18560   3.575   3.513   9.110 -3.3065  2.2715 -0.1090
  155DOPC   C1418561   3.419   3.594   8.946 -0.6780  0.9134  0.2417
  155DOPC  H14A18562   3.365   3.553   9.030  1.3656  2.3784  2.3711
  155DOPC  H14B18563   3.356   3.641   8.871  0.7969 -0.2503 -1.8320
  155DOPC  H14C18564   3.471   3.514   8.894 -1.7367 -0.4111  1.1371
  155DOPC   C1518565   3.449   3.780   9.087  0.1628  0.2473 -0.5222
  155DOPC  H15A18566   3.512   3.851   9.138 -0.9308 -0.1265  1.4622
  155DOPC  H15B18567   3.394   3.725   9.162 -2.6484  1.6913 -1.3747
  155DOPC  H15C18568   3.363   3.824   9.039 -2.2937 -2.0359  1.4434
  155DOPC   C1118569   3.523   3.843   8.796  0.1863  0.5686  0.1789
  155DOPC  H11A18570   3.590   3.847   8.708 -0.0431 -1.2800 -0.1065
  155DOPC  H11B18571   3.427   3.801   8.761 -0.7080  2.3022  0.4189
  155DOPC     P18572   3.367   4.045   8.863 -0.1288  0.1723  0.2346
  155DOPC   O1318573   3.393   4.178   8.918 -0.1853 -0.8138 -0.4336
  155DOPC   O1418574   3.274   3.969   8.944  0.4430  0.2097 -0.1205
  155DOPC   O1218575   3.503   3.972   8.842 -0.4525 -0.1687 -0.3664
  155DOPC   O1118576   3.322   4.072   8.713 -0.2096  0.6267 -0.6747
  155DOPC    C118577   3.418   4.116   8.613  0.1395  0.3781  0.0248
  155DOPC    HA18578   3.512   4.057   8.612 -0.1881 -0.2238 -2.6211
  155DOPC    HB18579   3.445   4.222   8.630 -1.6760  0.9330 -0.3354
  155DOPC    C218580   3.369   4.105   8.467 -0.7303  0.1557  0.0687
  155DOPC    HS18581   3.447   4.142   8.397 -1.3352 -0.7686 -1.1390
  155DOPC   O2118582   3.255   4.188   8.452  0.2464 -0.4266 -0.1517
  155DOPC   C2118583   3.242   4.244   8.339 -0.0826  0.6426  0.2994
  155DOPC   O2218584   3.317   4.245   8.245  0.5400 -0.0005  0.1349
  155DOPC   C2218585   3.116   4.329   8.337 -0.1410  0.3970  0.5545
  155DOPC   H2R18586   3.099   4.362   8.442 -1.4339 -0.9245  0.7934
  155DOPC   H2S18587   3.031   4.268   8.301  0.0680  1.3329 -1.7185
  155DOPC    C318588   3.339   3.948   8.439  0.4984 -0.2567 -0.0150
  155DOPC    HX18589   3.270   3.894   8.507  1.0142  0.1648  0.8618
  155DOPC    HY18590   3.432   3.894   8.465 -0.2759 -0.9902  1.2956
  155DOPC   O3118591   3.307   3.913   8.302  0.0015 -0.0581  0.6643
  155DOPC   C3118592   3.177   3.921   8.268  0.0798  0.1960 -0.4656
  155DOPC   O3218593   3.087   3.943   8.349 -0.6537  0.3623 -0.2576
  155DOPC   C3218594   3.157   3.897   8.116 -0.3905  0.1329 -0.3939
  155DOPC   H2X18595   3.243   3.830   8.093  0.1683  1.1632 -1.4023
  155DOPC   H2Y18596   3.071   3.830   8.097 -0.5242  0.3538 -0.5632
  155DOPC   C2318597   3.130   4.450   8.243 -0.9358  0.1422 -0.1606
  155DOPC   H3R18598   3.234   4.491   8.249 -1.2611  0.9501  0.1723
  155DOPC   H3S18599   3.062   4.533   8.273  0.8948  1.4322  0.6248
  155DOPC   C2418600   3.100   4.420   8.097  0.0281 -0.5193 -0.2143
  155DOPC   H4R18601   2.995   4.385   8.106 -0.7319  1.8328  0.8190
  155DOPC   H4S18602   3.154   4.330   8.060 -0.9709 -0.7005 -1.2951
  155DOPC   C2518603   3.089   4.542   8.005 -0.5190  0.0051 -0.2417
  155DOPC   H5R18604   3.170   4.617   8.009 -1.2339  0.7681  2.8820
  155DOPC   H5S18605   2.995   4.597   8.028 -0.3883 -0.0221  0.3884
  155DOPC   C2618606   3.066   4.504   7.859  0.0981  0.3041 -0.8693
  155DOPC   H6R18607   2.956   4.485   7.852 -0.2848  0.0816  3.2333
  155DOPC   H6S18608   3.124   4.414   7.830 -0.1191  0.6811 -2.5635
  155DOPC   C2718609   3.106   4.611   7.756 -0.6292  0.0655 -0.1055
  155DOPC   H7R18610   3.213   4.632   7.777 -0.5150 -0.5506 -0.0647
  155DOPC   H7S18611   3.046   4.704   7.770  2.1075  1.7090  1.7727
  155DOPC   C2818612   3.084   4.573   7.610 -0.4188 -0.2957 -0.4875
  155DOPC   H8R18613   2.975   4.569   7.590 -0.6332 -1.0170  0.7526
  155DOPC   H8S18614   3.126   4.472   7.593 -1.6934 -0.8461 -0.4816
  155DOPC   C2918615   3.161   4.665   7.520  0.0879  0.6444  0.8482
  155DOPC   H9R18616   3.230   4.736   7.568  2.3914 -0.6408 -0.3617
  155DOPC  C21018617   3.188   4.633   7.387 -1.0084  0.0659  0.5052
  155DOPC  H10R18618   3.232   4.709   7.320 -0.5640  0.7168  1.5049
  155DOPC  C21118619   3.119   4.516   7.315 -0.3427 -0.8485 -0.4767
  155DOPC  H11R18620   3.057   4.456   7.385 -0.1599 -1.8321 -1.1326
  155DOPC  H11S18621   3.197   4.448   7.275 -0.8250 -1.2081 -0.8178
  155DOPC  C21218622   3.031   4.554   7.201 -0.0626 -0.2953 -0.1620
  155DOPC  H12R18623   2.939   4.607   7.233  1.9088  2.2575  1.8542
  155DOPC  H12S18624   2.997   4.462   7.150 -0.9692  0.4349 -0.8973
  155DOPC  C21318625   3.110   4.645   7.096  0.3879  0.1250 -0.5509
  155DOPC  H13R18626   3.206   4.598   7.066  0.0285  1.7143 -4.8663
  155DOPC  H13S18627   3.125   4.746   7.141  0.8852 -0.2516  0.1573
  155DOPC  C21418628   3.027   4.671   6.972  0.3130  0.2763  0.1212
  155DOPC  H14R18629   3.081   4.750   6.915  0.4966 -1.2725 -1.9508
  155DOPC  H14S18630   2.925   4.710   6.995 -0.4951 -1.8121  0.3360
  155DOPC  C21518631   2.997   4.554   6.878  0.1887 -0.2014  0.7757
  155DOPC  H15R18632   2.948   4.468   6.928  1.3064 -1.0322  0.4666
  155DOPC  H15S18633   3.094   4.509   6.849 -0.1343 -0.4444  0.0520
  155DOPC  C21618634   2.912   4.574   6.752 -0.6442  0.0867 -0.3301
  155DOPC  H16R18635   2.817   4.629   6.769  0.9154  2.2998  1.9056
  155DOPC  H16S18636   2.891   4.476   6.704  0.8754  0.2256 -1.3755
  155DOPC  C21718637   2.984   4.639   6.631 -0.1561 -0.4539  0.2566
  155DOPC  H17R18638   3.087   4.598   6.628  0.5367  1.2022 -0.0312
  155DOPC  H17S18639   2.987   4.749   6.647  1.5790 -0.2632 -1.0546
  155DOPC  C21818640   2.914   4.618   6.500  0.1608 -0.2031  0.0618
  155DOPC  H18R18641   2.893   4.511   6.477  3.1652 -0.7787 -0.5001
  155DOPC  H18S18642   2.965   4.657   6.410  1.4831 -0.0662  0.8348
  155DOPC  H18T18643   2.822   4.679   6.493  0.5976  0.5763  0.8692
  155DOPC   C3318644   3.156   4.023   8.024 -0.2522 -0.2565  0.8380
  155DOPC   H3X18645   3.259   4.062   8.037 -0.4576  0.1417  1.2675
  155DOPC   H3Y18646   3.071   4.084   8.059 -1.0866 -1.2107  0.5153
  155DOPC   C3418647   3.144   4.000   7.870 -0.4759 -0.0476  0.4403
  155DOPC   H4X18648   3.043   3.962   7.843 -0.8023  2.4529 -2.4713
  155DOPC   H4Y18649   3.228   3.938   7.834  0.9762  1.9877  0.1570
  155DOPC   C3518650   3.158   4.125   7.785 -0.0684  0.1092  0.2895
  155DOPC   H5X18651   3.233   4.193   7.830 -1.0091  1.3224  0.0868
  155DOPC   H5Y18652   3.059   4.176   7.791  1.5036  3.3130  0.9539
  155DOPC   C3618653   3.190   4.105   7.634  0.3078  0.0455 -0.1398
  155DOPC   H6X18654   3.209   4.212   7.609 -0.7154  0.6955  1.6896
  155DOPC   H6Y18655   3.287   4.058   7.607  1.5010  1.7360  1.0212
  155DOPC   C3718656   3.077   4.046   7.554  0.9794 -0.4765  0.7367
  155DOPC   H7X18657   3.050   3.940   7.569  1.9161 -1.2434 -2.3408
  155DOPC   H7Y18658   2.993   4.105   7.600  1.8865  0.9733  0.6063
  155DOPC   C3818659   3.080   4.075   7.397  0.6495 -0.1114  0.1906
  155DOPC   H8X18660   3.087   4.183   7.372  0.3665  0.1754  1.2802
  155DOPC   H8Y18661   2.980   4.045   7.359  2.1039 -3.0929 -1.6037
  155DOPC   C3918662   3.172   3.985   7.326 -0.9063 -0.0662  1.4683
  155DOPC   H9X18663   3.233   3.908   7.376 -0.8942 -0.6134  0.6346
  155DOPC  C31018664   3.180   4.002   7.191 -0.7650 -0.3394 -0.1305
  155DOPC  H10X18665   3.262   3.954   7.136  0.8542  0.7085  1.2658
  155DOPC  C31118666   3.109   4.100   7.101 -1.2253 -0.4060  0.0664
  155DOPC  H11X18667   3.149   4.202   7.120  0.8801 -1.3023  0.7538
  155DOPC  H11Y18668   2.999   4.101   7.121 -1.4346 -0.0554 -1.0594
  155DOPC  C31218669   3.123   4.070   6.951 -0.3391  0.2365  0.3404
  155DOPC  H12X18670   3.079   3.969   6.936 -0.4127  0.2746  0.3026
  155DOPC  H12Y18671   3.231   4.061   6.927 -0.3298  0.3704  0.3335
  155DOPC  C31318672   3.066   4.180   6.856 -0.0590  0.6371 -0.0606
  155DOPC  H13X18673   2.961   4.195   6.890  0.2548  0.7709  0.8705
  155DOPC  H13Y18674   3.120   4.277   6.859  2.5950 -0.6613 -1.7764
  155DOPC  C31418675   3.068   4.128   6.712 -0.0214 -0.9847  0.4451
  155DOPC  H14X18676   3.172   4.102   6.684  0.2109  0.9142 -0.6033
  155DOPC  H14Y18677   3.001   4.041   6.694 -1.2324  0.3360 -1.8306
  155DOPC  C31518678   3.010   4.234   6.611  0.5894  0.2567 -0.0531
  155DOPC  H15X18679   3.093   4.308   6.611  2.1763 -1.3936  1.7412
  155DOPC  H15Y18680   2.921   4.280   6.659  1.2654 -0.5631  2.1293
  155DOPC  C31618681   2.992   4.179   6.466  0.3268  0.0513 -0.5728
  155DOPC  H16X18682   2.909   4.105   6.472 -0.2000  0.7649  2.4388
  155DOPC  H16Y18683   2.957   4.254   6.391  0.3474  0.1405 -0.4940
  155DOPC  C31718684   3.113   4.109   6.409  0.1797  0.3594  0.3830
  155DOPC  H17X18685   3.195   4.184   6.410 -0.4153  1.0298  0.1716
  155DOPC  H17Y18686   3.143   4.025   6.475  1.9526  0.5112 -0.1661
  155DOPC  C31818687   3.098   4.042   6.273  0.3691  0.0947 -0.3544
  155DOPC  H18X18688   3.018   3.966   6.276 -0.1237  0.6440  1.9756
  155DOPC  H18Y18689   3.055   4.114   6.200  0.2135 -1.3501 -1.7348
  155DOPC  H18Z18690   3.182   3.976   6.243  0.1891 -0.7101  0.8924
  156DOPC     N18691   1.342   0.963   9.159 -0.7282  0.0252  0.0272
  156DOPC   C1218692   1.235   1.058   9.198  0.3459  0.2126  0.2084
  156DOPC  H12A18693   1.250   1.144   9.135  0.0739 -0.1362 -0.3307
  156DOPC  H12B18694   1.251   1.092   9.300  0.8265 -1.7148  0.8249
  156DOPC   C1318695   1.331   0.830   9.229  0.3495  0.0849 -0.1245
  156DOPC  H13A18696   1.414   0.764   9.207  0.6751  0.3637  0.2669
  156DOPC  H13B18697   1.335   0.838   9.337  2.2640 -2.4308  0.0897
  156DOPC  H13C18698   1.243   0.773   9.204  1.4435 -0.2335 -3.8633
  156DOPC   C1418699   1.479   1.028   9.178 -0.0510  0.0388  0.3228
  156DOPC  H14A18700   1.493   1.123   9.129  0.2663 -0.7175 -1.1105
  156DOPC  H14B18701   1.498   1.038   9.284  3.2409 -0.2899 -0.1130
  156DOPC  H14C18702   1.556   0.956   9.152  0.0014  0.7636 -1.6816
  156DOPC   C1518703   1.344   0.919   9.014 -0.3954 -0.2190  0.2139
  156DOPC  H15A18704   1.426   0.854   8.990 -0.3224  0.3049 -1.0220
  156DOPC  H15B18705   1.357   1.003   8.949  2.7025 -0.3132  0.5630
  156DOPC  H15C18706   1.252   0.867   8.992 -0.5134  0.2682 -0.4423
  156DOPC   C1118707   1.089   1.013   9.170  0.5540 -0.2783 -0.1340
  156DOPC  H11A18708   1.063   0.926   9.233  0.9827 -0.5905 -0.3846
  156DOPC  H11B18709   1.033   1.105   9.201  0.1938 -0.6152  0.2249
  156DOPC     P18710   1.032   1.102   8.914 -0.0541  0.2820 -0.2373
  156DOPC   O1318711   1.142   1.195   8.894 -0.7534  0.0497  0.3924
  156DOPC   O1418712   0.905   1.168   8.960  0.2218 -0.0908  0.0817
  156DOPC   O1218713   1.064   0.993   9.033  0.0039  0.7643  0.6013
  156DOPC   O1118714   0.993   1.017   8.784 -0.6466 -0.0157  0.3847
  156DOPC    C118715   1.014   0.871   8.783  0.7068  0.1575 -0.0965
  156DOPC    HA18716   0.949   0.824   8.860  2.1661 -2.2471 -0.2404
  156DOPC    HB18717   1.119   0.850   8.812  0.6855  1.8823  1.3748
  156DOPC    C218718   0.990   0.813   8.643 -0.0487  0.4111  0.2161
  156DOPC    HS18719   1.069   0.852   8.574 -2.0301  2.1566 -1.1950
  156DOPC   O2118720   0.863   0.852   8.593  0.0744  0.1600  0.4694
  156DOPC   C2118721   0.855   0.961   8.525  0.2430 -0.0657 -0.1428
  156DOPC   O2218722   0.948   1.017   8.473  0.7985  0.7361 -0.2082
  156DOPC   C2218723   0.713   1.029   8.531  0.1543  0.6163  0.2203
  156DOPC   H2R18724   0.720   1.136   8.501 -0.9680  0.0147 -2.4737
  156DOPC   H2S18725   0.702   1.022   8.641 -0.5767  0.7971  0.1595
  156DOPC    C318726   0.999   0.656   8.640  0.1251 -0.9253 -0.1013
  156DOPC    HX18727   0.933   0.610   8.717  1.9940 -2.7990  0.4851
  156DOPC    HY18728   1.101   0.641   8.684  0.6831 -1.9416 -1.6708
  156DOPC   O3118729   0.998   0.593   8.508  0.4502 -0.1474 -0.0341
  156DOPC   C3118730   0.876   0.554   8.474  0.2777 -0.1166  0.3436
  156DOPC   O3218731   0.781   0.539   8.547  0.5654 -0.0562 -0.1852
  156DOPC   C3218732   0.864   0.521   8.324  0.2838  0.8317 -0.0670
  156DOPC   H2X18733   0.963   0.504   8.276  0.1535  0.5039 -0.2209
  156DOPC   H2Y18734   0.808   0.425   8.324 -0.2147  1.1159  0.1222
  156DOPC   C2318735   0.606   0.947   8.456 -0.2267 -0.3472 -0.7299
  156DOPC   H3R18736   0.504   0.963   8.496  0.1643  2.1179 -0.5583
  156DOPC   H3S18737   0.620   0.837   8.464 -0.6687 -0.3228  0.7051
  156DOPC   C2418738   0.606   0.979   8.303  0.4945 -0.0211 -0.0978
  156DOPC   H4R18739   0.704   0.958   8.255 -0.1880 -0.8629 -1.1684
  156DOPC   H4S18740   0.585   1.088   8.296  2.7177  0.4689  0.0532
  156DOPC   C2518741   0.496   0.894   8.226 -0.2346 -0.5293  0.3115
  156DOPC   H5R18742   0.399   0.931   8.264  0.1223  0.9792 -0.1805
  156DOPC   H5S18743   0.506   0.789   8.262  1.4359  0.7983  4.3081
  156DOPC   C2618744   0.502   0.903   8.075  0.0286 -0.7621  0.2335
  156DOPC   H6R18745   0.606   0.880   8.043 -0.8831 -0.8308 -2.9602
  156DOPC   H6S18746   0.491   1.007   8.038 -1.3706 -1.3654 -1.1239
  156DOPC   C2718747   0.392   0.819   8.006 -0.0120  0.3792 -0.0892
  156DOPC   H7R18748   0.292   0.835   8.051  0.2032 -0.0256  0.5474
  156DOPC   H7S18749   0.431   0.716   8.021  1.6383  1.2332  2.2462
  156DOPC   C2818750   0.374   0.841   7.858  0.4281 -0.1235  0.2736
  156DOPC   H8R18751   0.298   0.769   7.820 -0.2287  0.7629 -0.1282
  156DOPC   H8S18752   0.468   0.810   7.808  0.5731  1.7012 -0.6498
  156DOPC   C2918753   0.333   0.984   7.827  0.4161 -0.6893 -0.4377
  156DOPC   H9R18754   0.275   1.027   7.910  1.9725 -0.9238  0.8238
  156DOPC  C21018755   0.375   1.052   7.718 -0.2158 -0.1387 -0.6155
  156DOPC  H10R18756   0.331   1.149   7.691  0.6422  0.9803  1.7104
  156DOPC  C21118757   0.457   0.984   7.605  0.3884  0.3225  0.1451
  156DOPC  H11R18758   0.467   0.874   7.616 -0.6215  0.1613 -0.3726
  156DOPC  H11S18759   0.560   1.023   7.588  0.6392  0.0186  0.9192
  156DOPC  C21218760   0.393   0.995   7.460 -0.2504  0.5014 -0.6575
  156DOPC  H12R18761   0.378   1.102   7.432 -3.0933  0.7144  1.2691
  156DOPC  H12S18762   0.295   0.943   7.464 -0.7005  1.0858 -2.8116
  156DOPC  C21318763   0.491   0.927   7.361 -0.4122 -1.1544  0.7725
  156DOPC  H13R18764   0.525   0.835   7.413 -1.9947 -4.2887 -3.1528
  156DOPC  H13S18765   0.581   0.989   7.342 -0.5182 -1.1667  0.1971
  156DOPC  C21418766   0.423   0.881   7.230  0.2921 -0.6896 -0.2195
  156DOPC  H14R18767   0.373   0.786   7.259 -0.9043 -0.0452 -0.1238
  156DOPC  H14S18768   0.497   0.840   7.157  0.4315  0.7963 -0.9363
  156DOPC  C21518769   0.329   0.981   7.163 -0.4295  0.3178  0.3116
  156DOPC  H15R18770   0.372   1.084   7.160  1.8975 -0.6206 -0.6456
  156DOPC  H15S18771   0.235   0.991   7.222  1.5257 -0.8480  3.9380
  156DOPC  C21618772   0.310   0.946   7.014 -0.0269  0.3653 -0.5332
  156DOPC  H16R18773   0.411   0.943   6.969  0.2486  0.5717  0.0544
  156DOPC  H16S18774   0.237   1.022   6.978 -1.0113 -0.9296 -1.3556
  156DOPC  C21718775   0.224   0.813   7.013 -0.2997 -0.5464 -0.1866
  156DOPC  H17R18776   0.247   0.754   7.104  0.6454  0.2460  0.1064
  156DOPC  H17S18777   0.257   0.761   6.921 -0.9306 -0.7069 -0.3298
  156DOPC  C21818778   0.065   0.848   7.020 -0.2959  0.0587 -0.5423
  156DOPC  H18R18779   0.039   0.905   6.929 -1.2035 -0.1649 -0.4292
  156DOPC  H18S18780   0.046   0.916   7.106 -0.4811 -0.0095 -0.5300
  156DOPC  H18T18781   0.003   0.757   7.036 -3.7650  2.5478  1.6045
  156DOPC   C3318782   0.788   0.625   8.249  0.8484  0.4532 -0.5186
  156DOPC   H3X18783   0.852   0.715   8.262  2.3497 -0.8352  1.6407
  156DOPC   H3Y18784   0.690   0.645   8.296  0.3091 -0.2063 -1.3325
  156DOPC   C3418785   0.763   0.583   8.100 -0.4028 -0.3028 -0.8627
  156DOPC   H4X18786   0.675   0.640   8.066 -1.5111 -1.7374 -0.4976
  156DOPC   H4Y18787   0.736   0.475   8.096 -0.3745 -0.3573  0.0246
  156DOPC   C3518788   0.880   0.610   8.009 -0.2600 -0.2274 -0.5228
  156DOPC   H5X18789   0.974   0.566   8.047 -1.2455 -2.7980 -0.8515
  156DOPC   H5Y18790   0.885   0.721   8.015 -0.3615 -0.2786  1.4351
  156DOPC   C3618791   0.853   0.576   7.861  0.0228  0.4735  0.0118
  156DOPC   H6X18792   0.930   0.625   7.798 -1.8229  0.2244 -2.6353
  156DOPC   H6Y18793   0.860   0.466   7.847 -1.0809  0.0388  2.3113
  156DOPC   C3718794   0.710   0.625   7.809  0.1575 -0.7228 -0.6149
  156DOPC   H7X18795   0.629   0.554   7.832  1.4908 -1.5662  1.8277
  156DOPC   H7Y18796   0.692   0.721   7.862  1.9581 -1.1691  0.9204
  156DOPC   C3818797   0.705   0.653   7.655  0.0184 -0.5000  0.1789
  156DOPC   H8X18798   0.780   0.735   7.645 -0.6022 -0.0480 -0.8759
  156DOPC   H8Y18799   0.604   0.694   7.638 -0.4300 -2.3856 -2.2196
  156DOPC   C3918800   0.718   0.531   7.576 -0.3691  0.2945  0.3870
  156DOPC   H9X18801   0.692   0.435   7.622 -0.7279 -0.0846 -0.5877
  156DOPC  C31018802   0.765   0.534   7.450  0.9911  0.3716 -0.8077
  156DOPC  H10X18803   0.775   0.440   7.392 -1.2621 -1.1961  1.1682
  156DOPC  C31118804   0.793   0.662   7.377  0.0015 -0.1943  0.7895
  156DOPC  H11X18805   0.903   0.663   7.360  0.0399 -0.7993  0.9824
  156DOPC  H11Y18806   0.775   0.756   7.434 -1.7973 -0.6543  1.0439
  156DOPC  C31218807   0.729   0.669   7.238 -0.6257  0.3561 -0.3802
  156DOPC  H12X18808   0.740   0.772   7.198  1.1079  0.0876 -0.6730
  156DOPC  H12Y18809   0.623   0.639   7.242 -0.4068 -1.1019 -3.0257
  156DOPC  C31318810   0.783   0.579   7.121  0.7900  0.2709  0.2200
  156DOPC  H13X18811   0.886   0.616   7.105  0.9723 -0.5427 -0.5519
  156DOPC  H13Y18812   0.766   0.477   7.162 -3.6759  0.8505  0.3158
  156DOPC  C31418813   0.696   0.594   6.993 -0.7178  0.1528 -0.0461
  156DOPC  H14X18814   0.695   0.498   6.938  1.1125  0.1751 -0.1703
  156DOPC  H14Y18815   0.598   0.637   7.024 -0.3588 -0.2930  1.7783
  156DOPC  C31518816   0.752   0.705   6.892  0.0323  0.4897  0.4467
  156DOPC  H15X18817   0.859   0.682   6.877  0.4113  1.3448  1.6906
  156DOPC  H15Y18818   0.759   0.805   6.940 -1.9275  0.6349  0.5006
  156DOPC  C31618819   0.670   0.704   6.758  0.7072 -0.0339 -0.3272
  156DOPC  H16X18820   0.562   0.710   6.782  0.8621 -1.2426  0.7880
  156DOPC  H16Y18821   0.703   0.788   6.694  2.4975  1.8214  2.8100
  156DOPC  C31718822   0.686   0.582   6.664  0.7484  0.3896  0.3720
  156DOPC  H17X18823   0.792   0.551   6.653  0.3518 -0.1273 -3.6154
  156DOPC  H17Y18824   0.630   0.494   6.703  2.8090 -1.1162  0.1067
  156DOPC  C31818825   0.642   0.606   6.512 -0.8562 -0.1717 -0.3440
  156DOPC  H18X18826   0.715   0.673   6.462  0.4366 -0.7593  0.6751
  156DOPC  H18Y18827   0.651   0.510   6.458  1.4904 -1.1209  1.5171
  156DOPC  H18Z18828   0.543   0.653   6.494 -0.2288  0.2260 -3.1116
  157DOPC     N18829   5.520   5.333   9.591  0.8132  0.2478 -0.9230
  157DOPC   C1218830   5.487   5.461   9.511 -0.0295 -0.5039  0.3366
  157DOPC  H12A18831   5.551   5.543   9.540  0.7234  0.0085 -2.4266
  157DOPC  H12B18832   5.381   5.477   9.516  0.0946  1.5333 -1.8818
  157DOPC   C1318833   5.655   5.286   9.569  0.5077  0.4871  0.1505
  157DOPC  H13A18834   5.726   5.367   9.572  2.0178 -0.8028  0.7652
  157DOPC  H13B18835   5.685   5.215   9.645 -0.5514 -1.6168 -1.3156
  157DOPC  H13C18836   5.669   5.247   9.469  0.6046  0.4009  0.1970
  157DOPC   C1418837   5.418   5.226   9.561 -0.4202 -0.6023  0.8725
  157DOPC  H14A18838   5.424   5.198   9.457  1.6611 -0.2435  0.8503
  157DOPC  H14B18839   5.449   5.137   9.615 -2.3815 -1.8342  0.0816
  157DOPC  H14C18840   5.322   5.244   9.607  0.3232  0.6987  1.9963
  157DOPC   C1518841   5.502   5.369   9.740 -0.6499  0.0088 -0.5030
  157DOPC  H15A18842   5.534   5.286   9.801  1.2891  0.7861 -0.3825
  157DOPC  H15B18843   5.405   5.401   9.774 -1.6127 -1.7830 -1.4229
  157DOPC  H15C18844   5.572   5.445   9.770  1.0901 -1.5925 -0.3170
  157DOPC   C1118845   5.513   5.471   9.359 -0.4622  0.0041  0.2773
  157DOPC  H11A18846   5.448   5.394   9.312 -1.5647  0.8544  0.3582
  157DOPC  H11B18847   5.472   5.567   9.323 -1.1919 -0.0334  0.9663
  157DOPC     P18848   5.757   5.566   9.329 -0.0974  0.3484 -0.1758
  157DOPC   O1318849   5.884   5.499   9.372  0.5888  0.1813  0.1041
  157DOPC   O1418850   5.706   5.663   9.425  0.0987 -0.3308  0.1307
  157DOPC   O1218851   5.650   5.448   9.324 -0.4620  0.0788 -0.3379
  157DOPC   O1118852   5.767   5.623   9.187  0.3557  0.3371  0.1829
  157DOPC    C118853   5.683   5.583   9.082  0.0456  0.2098  0.2502
  157DOPC    HA18854   5.585   5.635   9.083 -0.9097 -1.2403 -3.2556
  157DOPC    HB18855   5.663   5.474   9.081 -1.7734  0.4112 -3.7193
  157DOPC    C218856   5.749   5.605   8.937 -0.0840  0.8336 -0.1543
  157DOPC    HS18857   5.706   5.521   8.879 -1.3173  1.5407 -0.3001
  157DOPC   O2118858   5.897   5.603   8.928  0.2490  0.0186  0.0658
  157DOPC   C2118859   5.947   5.486   8.949 -0.1278 -0.0763  0.0487
  157DOPC   O2218860   5.887   5.384   8.966  0.1685 -0.3165 -0.0335
  157DOPC   C2218861   6.102   5.498   8.963  0.5235 -0.5252  0.5195
  157DOPC   H2R18862   6.143   5.397   8.986  1.7911 -0.3078 -0.6410
  157DOPC   H2S18863   6.128   5.566   9.046  2.7293 -0.3908 -0.2089
  157DOPC    C318864   5.698   5.733   8.859 -0.7049 -0.0464  0.0381
  157DOPC    HX18865   5.743   5.830   8.889 -1.0595  0.0719  0.2036
  157DOPC    HY18866   5.590   5.732   8.885 -0.2145  1.0396  2.3342
  157DOPC   O3118867   5.715   5.701   8.717 -0.0842  0.2304  0.3005
  157DOPC   C3118868   5.829   5.745   8.671 -0.3301 -0.2214 -0.3834
  157DOPC   O3218869   5.916   5.806   8.730 -0.4646  0.4774 -0.0173
  157DOPC   C3218870   5.854   5.705   8.520  0.8337  0.5408 -0.4339
  157DOPC   H2X18871   5.801   5.608   8.515 -0.6321  1.3703 -3.2421
  157DOPC   H2Y18872   5.805   5.771   8.444 -1.1279 -1.1414 -0.7214
  157DOPC   C2318873   6.171   5.550   8.836  0.5882  1.1971 -0.5542
  157DOPC   H3R18874   6.267   5.604   8.852  0.4162  1.7112 -1.2221
  157DOPC   H3S18875   6.099   5.618   8.786 -0.2836  0.5760 -0.1601
  157DOPC   C2418876   6.202   5.430   8.743 -0.2541 -0.0026  0.1566
  157DOPC   H4R18877   6.110   5.395   8.693 -0.8655  1.1882  0.4138
  157DOPC   H4S18878   6.246   5.350   8.807 -1.1440 -0.7858 -0.2017
  157DOPC   C2518879   6.302   5.472   8.640  0.4772  0.4188 -0.5637
  157DOPC   H5R18880   6.410   5.471   8.666  0.4195 -0.9546 -0.3432
  157DOPC   H5S18881   6.271   5.571   8.597  0.4675  0.7413  0.1813
  157DOPC   C2618882   6.290   5.382   8.513 -0.4367 -0.3196  0.9881
  157DOPC   H6R18883   6.184   5.382   8.481 -1.0959 -1.1125  3.0109
  157DOPC   H6S18884   6.316   5.284   8.558 -0.0962 -0.1286  1.2128
  157DOPC   C2718885   6.381   5.421   8.397  0.1840  0.3628 -0.5538
  157DOPC   H7R18886   6.483   5.379   8.408  0.2460  0.5141 -0.5500
  157DOPC   H7S18887   6.397   5.531   8.407  0.1194  0.3314 -0.1193
  157DOPC   C2818888   6.325   5.393   8.249 -0.3508 -0.2133 -0.3413
  157DOPC   H8R18889   6.222   5.435   8.243 -0.0084  0.4979 -1.5417
  157DOPC   H8S18890   6.317   5.283   8.236  2.8470 -0.9531  2.4626
  157DOPC   C2918891   6.405   5.460   8.141  0.0640  0.1523 -0.6668
  157DOPC   H9R18892   6.451   5.555   8.173 -3.0467  1.2576  0.9626
  157DOPC  C21018893   6.400   5.425   8.011  0.4618 -0.0180  0.0362
  157DOPC  H10R18894   6.447   5.497   7.941  2.6911 -0.8209  0.6210
  157DOPC  C21118895   6.329   5.314   7.944  0.3655  0.0247 -0.2369
  157DOPC  H11R18896   6.250   5.270   8.008 -0.1187 -0.5554 -1.1963
  157DOPC  H11S18897   6.411   5.238   7.939 -0.0681 -0.6130  1.7657
  157DOPC  C21218898   6.265   5.334   7.800 -0.3272 -0.0221  0.7530
  157DOPC  H12R18899   6.191   5.416   7.810  0.2809  0.6452 -0.0662
  157DOPC  H12S18900   6.216   5.239   7.769 -0.6067  0.4928 -0.3856
  157DOPC  C21318901   6.375   5.367   7.697 -0.4297 -0.5765  0.7283
  157DOPC  H13R18902   6.449   5.284   7.696 -0.4720 -0.6285 -0.5870
  157DOPC  H13S18903   6.427   5.461   7.725 -0.3061 -0.6670  0.7991
  157DOPC  C21418904   6.327   5.396   7.551  0.1981 -0.1276  0.5681
  157DOPC  H14R18905   6.389   5.476   7.506  0.3278 -1.4184 -1.6777
  157DOPC  H14S18906   6.225   5.441   7.550  1.0157  2.0311 -2.7345
  157DOPC  C21518907   6.328   5.282   7.447  0.8647  0.3016 -1.1204
  157DOPC  H15R18908   6.262   5.200   7.483 -0.3909  2.3672  1.6376
  157DOPC  H15S18909   6.427   5.233   7.454  0.5936 -0.2300 -0.8597
  157DOPC  C21618910   6.290   5.337   7.307  0.2745  0.1238  0.0814
  157DOPC  H16R18911   6.359   5.417   7.273  0.6981 -0.1490  0.2966
  157DOPC  H16S18912   6.191   5.388   7.317 -0.3964 -1.2474  0.7199
  157DOPC  C21718913   6.272   5.230   7.196  0.6741 -0.3083 -0.6124
  157DOPC  H17R18914   6.191   5.158   7.222  0.7229 -0.3634 -0.6139
  157DOPC  H17S18915   6.360   5.162   7.193 -0.9539 -2.4981 -1.0476
  157DOPC  C21818916   6.236   5.298   7.061 -0.3628  0.1219  0.0519
  157DOPC  H18R18917   6.181   5.224   7.000 -1.2329  0.0690  0.8887
  157DOPC  H18S18918   6.326   5.342   7.012 -0.0457 -0.9295 -0.3356
  157DOPC  H18T18919   6.163   5.374   7.095 -0.8140  0.8053 -2.2260
  157DOPC   C3318920   6.010   5.688   8.483 -0.3028 -0.0491  0.0660
  157DOPC   H3X18921   6.063   5.615   8.548 -0.5938 -0.5767 -0.2783
  157DOPC   H3Y18922   6.055   5.790   8.490 -3.4158  1.5150 -0.8878
  157DOPC   C3418923   6.029   5.618   8.341  0.0704 -0.7032  0.2888
  157DOPC   H4X18924   6.034   5.507   8.353 -0.6866 -0.6783  0.9552
  157DOPC   H4Y18925   6.131   5.638   8.302 -0.0655 -0.4954  0.0387
  157DOPC   C3518926   5.923   5.647   8.238  0.6257  0.2033  0.0811
  157DOPC   H5X18927   5.914   5.757   8.225  0.1089  0.4638  2.2318
  157DOPC   H5Y18928   5.829   5.603   8.277 -0.1682  0.7720 -1.1336
  157DOPC   C3618929   5.954   5.588   8.103 -0.5565 -0.2227  0.0736
  157DOPC   H6X18930   6.054   5.625   8.071  0.2478 -1.6816  0.7997
  157DOPC   H6Y18931   5.969   5.480   8.124  3.5476  0.4718  1.6279
  157DOPC   C3718932   5.846   5.622   7.994  0.5485  0.3202 -0.9174
  157DOPC   H7X18933   5.742   5.597   8.025 -0.1846  2.1085 -1.7945
  157DOPC   H7Y18934   5.855   5.728   7.959  1.0892  0.0885 -1.5010
  157DOPC   C3818935   5.872   5.549   7.862 -0.8263 -0.6216  0.0859
  157DOPC   H8X18936   5.869   5.439   7.882  0.2736 -0.8529 -0.8866
  157DOPC   H8Y18937   5.975   5.576   7.833 -1.3535 -0.7388 -2.1375
  157DOPC   C3918938   5.774   5.595   7.756 -0.2306 -0.7967 -0.1216
  157DOPC   H9X18939   5.667   5.600   7.781 -1.0959  0.2693 -3.5543
  157DOPC  C31018940   5.802   5.626   7.627 -0.1302  0.3203  0.0060
  157DOPC  H10X18941   5.717   5.647   7.561  0.2804  1.7090 -0.1338
  157DOPC  C31118942   5.946   5.645   7.570 -0.2539  0.1267  0.5023
  157DOPC  H11X18943   6.025   5.613   7.641 -0.2270  1.9581  1.3617
  157DOPC  H11Y18944   5.975   5.748   7.541 -0.4519  0.6389  2.0492
  157DOPC  C31218945   5.952   5.554   7.443  0.1122  0.6080  1.0458
  157DOPC  H12X18946   5.935   5.449   7.474  0.6182 -0.2227 -1.3096
  157DOPC  H12Y18947   6.054   5.551   7.398 -1.1651  0.5015 -2.1457
  157DOPC  C31318948   5.856   5.593   7.322 -0.2388 -0.2846  0.1585
  157DOPC  H13X18949   5.749   5.572   7.341 -0.8003 -0.1061 -2.4895
  157DOPC  H13Y18950   5.873   5.702   7.318  1.5472 -0.5411 -0.3787
  157DOPC  C31418951   5.902   5.530   7.191  0.3017  0.2649  0.2157
  157DOPC  H14X18952   6.009   5.557   7.187  0.3760  0.1504  1.1404
  157DOPC  H14Y18953   5.888   5.420   7.197 -2.2323  0.5411  0.3419
  157DOPC  C31518954   5.841   5.580   7.063  0.0078 -0.0934 -0.8513
  157DOPC  H15X18955   5.899   5.530   6.983  0.7700 -2.7356  1.1961
  157DOPC  H15Y18956   5.855   5.690   7.062  0.0094 -0.0467  1.0591
  157DOPC  C31618957   5.690   5.546   7.049  0.2398  0.0151  0.6354
  157DOPC  H16X18958   5.668   5.447   7.092  1.2551 -0.4424  0.1318
  157DOPC  H16Y18959   5.628   5.618   7.107 -2.1362 -0.8584 -0.6864
  157DOPC  C31718960   5.645   5.533   6.901 -0.4803 -0.2170  0.0078
  157DOPC  H17X18961   5.688   5.614   6.838  1.0878 -2.3055 -1.7978
  157DOPC  H17Y18962   5.684   5.439   6.856 -0.1035  0.4259 -1.0482
  157DOPC  C31818963   5.494   5.532   6.874  0.5033  0.6377 -0.0727
  157DOPC  H18X18964   5.456   5.430   6.893 -0.8550  1.2043  0.3835
  157DOPC  H18Y18965   5.441   5.599   6.946  0.5173  0.7209 -0.1400
  157DOPC  H18Z18966   5.471   5.555   6.768 -0.7465  1.0149  0.2627
  158DOPC     N18967   4.885   2.033   9.233 -0.2747  0.7861  0.1387
  158DOPC   C1218968   4.853   2.034   9.083  0.0082 -0.1295  0.0189
  158DOPC  H12A18969   4.921   2.095   9.026 -0.7028  0.6474 -0.0203
  158DOPC  H12B18970   4.759   2.086   9.070  0.2544 -0.2796 -3.0871
  158DOPC   C1318971   4.930   2.170   9.286 -0.4596  0.1370  0.3484
  158DOPC  H13A18972   4.854   2.242   9.260 -0.6377 -0.8804 -2.2503
  158DOPC  H13B18973   4.945   2.168   9.393  3.2423  0.0983 -0.0400
  158DOPC  H13C18974   5.026   2.207   9.253  0.6228 -1.0147  2.0241
  158DOPC   C1418975   5.000   1.936   9.259  0.0053 -0.3741  0.0977
  158DOPC  H14A18976   5.015   1.926   9.365 -0.6921  2.0929  0.5123
  158DOPC  H14B18977   4.976   1.838   9.223 -2.9619 -0.6242  2.3806
  158DOPC  H14C18978   5.094   1.961   9.211  0.7238 -2.1562  0.4945
  158DOPC   C1518979   4.767   1.991   9.305  0.7994 -0.3573 -0.1131
  158DOPC  H15A18980   4.680   2.052   9.284 -1.2745 -2.8335  0.7554
  158DOPC  H15B18981   4.776   1.993   9.413 -1.0863  0.9258  0.0756
  158DOPC  H15C18982   4.744   1.891   9.273 -0.3511  0.3200 -1.5382
  158DOPC   C1118983   4.846   1.890   9.020 -0.6910 -1.0708 -0.1343
  158DOPC  H11A18984   4.802   1.910   8.920 -0.0506 -2.7223 -0.7733
  158DOPC  H11B18985   4.948   1.848   9.014 -1.0105 -1.7227 -1.6174
  158DOPC     P18986   4.634   1.745   9.037 -0.1424  0.2150  0.6260
  158DOPC   O1318987   4.549   1.868   9.008 -0.7052  0.2026 -0.2796
  158DOPC   O1418988   4.578   1.638   9.121  0.1794 -0.5069 -0.7441
  158DOPC   O1218989   4.770   1.798   9.101 -0.7699 -0.5280  0.5822
  158DOPC   O1118990   4.681   1.679   8.899  0.6271 -0.5273 -0.2800
  158DOPC    C118991   4.777   1.573   8.893 -0.2547 -0.5625 -0.5020
  158DOPC    HA18992   4.734   1.471   8.908 -1.5816  0.1811  1.0579
  158DOPC    HB18993   4.854   1.574   8.973 -2.2464 -1.3561  1.5640
  158DOPC    C218994   4.856   1.576   8.760  0.2595  0.1746 -0.6455
  158DOPC    HS18995   4.786   1.566   8.675 -1.0763  0.7893  0.3477
  158DOPC   O2118996   4.948   1.469   8.757 -0.1457  0.0665 -0.3399
  158DOPC   C2118997   4.912   1.354   8.726  0.1847 -0.2284 -0.5536
  158DOPC   O2218998   4.801   1.315   8.697  0.2018 -0.4052  0.3904
  158DOPC   C2218999   5.032   1.272   8.717 -0.3543 -0.1806 -0.1178
  158DOPC   H2R19000   4.999   1.169   8.692  1.7380 -0.6130 -1.2770
  158DOPC   H2S19001   5.088   1.274   8.813  0.5415  0.6694 -0.6449
  158DOPC    C319002   4.928   1.714   8.736  0.2289 -0.5434 -0.2114
  158DOPC    HX19003   4.994   1.722   8.825 -0.5426 -0.6272  0.3805
  158DOPC    HY19004   4.847   1.789   8.747  1.8473  1.0138  2.1074
  158DOPC   O3119005   5.007   1.727   8.615 -0.0875 -0.1138  0.3901
  158DOPC   C3119006   4.938   1.759   8.500  0.0143  0.1822  0.0836
  158DOPC   O3219007   4.821   1.792   8.497 -0.2727 -0.5594  0.1837
  158DOPC   C3219008   5.036   1.740   8.377  0.5153 -0.1068 -0.1279
  158DOPC   H2X19009   5.143   1.760   8.403 -0.0582 -0.6550  3.0738
  158DOPC   H2Y19010   5.014   1.635   8.351 -2.0761  0.1660  0.7322
  158DOPC   C2319011   5.125   1.330   8.611 -1.0931  0.4700  0.6753
  158DOPC   H3R19012   5.205   1.253   8.609  0.2405  1.8327 -0.6775
  158DOPC   H3S19013   5.161   1.429   8.646  2.0024 -0.1630 -0.4281
  158DOPC   C2419014   5.075   1.327   8.466 -0.7001  0.3351 -0.0484
  158DOPC   H4R19015   4.995   1.404   8.471  1.3217  2.5304  0.2337
  158DOPC   H4S19016   5.035   1.229   8.431 -0.4272  0.3445 -0.3998
  158DOPC   C2519017   5.180   1.374   8.363  0.0638 -0.1804 -0.1336
  158DOPC   H5R19018   5.266   1.304   8.367  1.5950  1.6385  0.2468
  158DOPC   H5S19019   5.209   1.481   8.373  0.7057  0.1002 -3.7647
  158DOPC   C2619020   5.108   1.368   8.224 -0.3815 -0.6557  0.0834
  158DOPC   H6R19021   5.022   1.437   8.228 -0.0822 -0.1630 -1.3166
  158DOPC   H6S19022   5.071   1.265   8.208  0.8919 -1.1095 -0.0776
  158DOPC   C2719023   5.202   1.402   8.108 -0.0299 -0.6999 -0.2035
  158DOPC   H7R19024   5.285   1.332   8.132 -1.2621 -2.5929 -1.2067
  158DOPC   H7S19025   5.230   1.508   8.122  1.5193 -1.1441  0.2351
  158DOPC   C2819026   5.129   1.377   7.977  0.4510 -0.7090 -0.1909
  158DOPC   H8R19027   5.073   1.468   7.947 -1.4842 -1.7017  0.2108
  158DOPC   H8S19028   5.049   1.302   7.996  1.2065 -0.8240  3.1612
  158DOPC   C2919029   5.221   1.340   7.865 -0.4158 -0.2992 -0.2089
  158DOPC   H9R19030   5.327   1.354   7.892 -0.8513  4.3102 -0.1669
  158DOPC  C21019031   5.193   1.286   7.746 -0.1933 -0.4001 -0.1847
  158DOPC  H10R19032   5.272   1.248   7.680  1.7995  0.8633  1.3627
  158DOPC  C21119033   5.052   1.245   7.708  0.5647  0.2139  0.5353
  158DOPC  H11R19034   4.970   1.289   7.768 -1.3918 -0.6076 -1.3859
  158DOPC  H11S19035   5.043   1.135   7.724 -0.1441  0.0802 -0.6079
  158DOPC  C21219036   5.011   1.263   7.555 -0.0431 -0.3664  0.3196
  158DOPC  H12R19037   5.016   1.366   7.515 -0.5938 -0.2491  0.5387
  158DOPC  H12S19038   4.902   1.243   7.543 -0.4349  0.8997  1.4911
  158DOPC  C21319039   5.089   1.169   7.464  0.2789  0.2497  0.5900
  158DOPC  H13R19040   5.057   1.068   7.495 -1.9555  0.6337 -0.2971
  158DOPC  H13S19041   5.199   1.182   7.478  0.2397 -0.9443  2.2590
  158DOPC  C21419042   5.068   1.194   7.314  0.1654  0.3543  0.9877
  158DOPC  H14R19043   5.155   1.150   7.261 -0.6329  1.5695 -1.5181
  158DOPC  H14S19044   5.086   1.303   7.304  0.0667  0.4833  2.1097
  158DOPC  C21519045   4.938   1.145   7.253  0.1867  0.2782 -0.3406
  158DOPC  H15R19046   4.858   1.214   7.286 -0.7314 -0.5538 -0.7785
  158DOPC  H15S19047   4.915   1.047   7.301  1.1574  0.6192  0.8744
  158DOPC  C21619048   4.929   1.145   7.104 -0.0468  0.2906  0.1435
  158DOPC  H16R19049   4.825   1.120   7.075 -0.3188  1.3122  0.1949
  158DOPC  H16S19050   5.004   1.076   7.060 -1.1848  0.2060 -1.8015
  158DOPC  C21719051   4.947   1.289   7.055 -0.0605  0.4254  0.3611
  158DOPC  H17R19052   5.052   1.327   7.056  0.5285 -0.7871 -2.7450
  158DOPC  H17S19053   4.887   1.355   7.120 -0.3923  0.3486  0.1339
  158DOPC  C21819054   4.890   1.296   6.910  0.2771 -0.4364 -0.0697
  158DOPC  H18R19055   4.882   1.400   6.870 -1.2689  0.0537  1.3789
  158DOPC  H18S19056   4.791   1.247   6.910  0.9773 -1.9578  1.4397
  158DOPC  H18T19057   4.957   1.233   6.848  1.5875  2.3796 -1.7065
  158DOPC   C3319058   4.989   1.832   8.259 -0.0685  0.3066  0.0288
  158DOPC   H3X19059   5.032   1.934   8.271  1.3543 -0.1235 -1.2181
  158DOPC   H3Y19060   4.878   1.825   8.260  0.0165 -1.4808  0.4054
  158DOPC   C3419061   5.034   1.777   8.125  0.0911 -0.3812  0.4499
  158DOPC   H4X19062   4.993   1.674   8.112 -0.9545  0.1026 -0.2336
  158DOPC   H4Y19063   5.145   1.777   8.132  0.0328 -0.0471  1.5029
  158DOPC   C3519064   4.986   1.846   7.994  0.3914  0.0538  0.8733
  158DOPC   H5X19065   5.006   1.955   7.997  1.1513 -0.1015  1.8414
  158DOPC   H5Y19066   4.879   1.824   7.973  0.1883  1.2972  0.5025
  158DOPC   C3619067   5.066   1.791   7.880 -0.2991 -0.4771  0.4586
  158DOPC   H6X19068   5.171   1.814   7.905 -0.5928  0.4003  0.9098
  158DOPC   H6Y19069   5.059   1.680   7.875  1.3461 -0.5676 -0.6538
  158DOPC   C3719070   5.011   1.847   7.749  0.3054 -0.6701  0.9869
  158DOPC   H7X19071   4.902   1.825   7.746  0.0160  0.6744  0.7353
  158DOPC   H7Y19072   5.018   1.958   7.740  1.1784 -0.8111 -0.5918
  158DOPC   C3819073   5.068   1.784   7.621  0.2461  0.0147  0.1144
  158DOPC   H8X19074   5.176   1.761   7.635  0.0365 -1.2505 -0.2867
  158DOPC   H8Y19075   5.054   1.866   7.547  0.9047 -1.7314 -2.0492
  158DOPC   C3919076   4.998   1.662   7.575  0.4371 -0.7487 -0.0217
  158DOPC   H9X19077   5.038   1.567   7.614  0.8067 -0.7612 -0.4252
  158DOPC  C31019078   4.886   1.662   7.494 -0.7517  0.2922 -0.0408
  158DOPC  H10X19079   4.852   1.565   7.455 -1.1235  1.2060 -2.1526
  158DOPC  C31119080   4.825   1.779   7.432 -0.1203  0.2841  0.7399
  158DOPC  H11X19081   4.884   1.873   7.439  1.5526 -0.3960 -2.5522
  158DOPC  H11Y19082   4.722   1.799   7.469 -1.5745 -1.3344 -2.1155
  158DOPC  C31219083   4.794   1.749   7.283  0.0080 -0.0304 -0.0917
  158DOPC  H12X19084   4.724   1.828   7.250  0.2358  0.8504  1.4158
  158DOPC  H12Y19085   4.763   1.644   7.263 -0.8594 -0.5543  3.2319
  158DOPC  C31319086   4.919   1.748   7.195  0.2627  0.5010 -0.6161
  158DOPC  H13X19087   4.961   1.851   7.199  0.2337  0.5173 -0.7241
  158DOPC  H13Y19088   4.989   1.685   7.254 -1.7139 -0.8851  0.3639
  158DOPC  C31419089   4.895   1.707   7.049 -0.5832 -0.2154  0.3234
  158DOPC  H14X19090   4.991   1.723   6.996  0.7487  1.3784  2.9995
  158DOPC  H14Y19091   4.869   1.600   7.044 -2.7951  0.3270 -0.9228
  158DOPC  C31519092   4.787   1.783   6.975 -0.1998  0.3634  0.0692
  158DOPC  H15X19093   4.804   1.893   6.982  1.1367  0.1522  0.4908
  158DOPC  H15Y19094   4.686   1.766   7.019 -1.1442  2.0929 -1.2940
  158DOPC  C31619095   4.786   1.751   6.825  0.0911  0.0025 -0.0867
  158DOPC  H16X19096   4.891   1.764   6.789  0.2585  1.5975  0.8468
  158DOPC  H16Y19097   4.749   1.649   6.805 -0.4691  0.2929 -0.5753
  158DOPC  C31719098   4.684   1.852   6.760 -0.4319 -0.2051 -0.5133
  158DOPC  H17X19099   4.584   1.835   6.807  0.5398 -3.8364  0.5880
  158DOPC  H17Y19100   4.720   1.950   6.798 -0.7433 -0.9298  1.8096
  158DOPC  C31819101   4.681   1.841   6.609  0.0515  0.3064  0.4142
  158DOPC  H18X19102   4.784   1.850   6.568 -0.0126  1.3524  0.4612
  158DOPC  H18Y19103   4.637   1.739   6.606 -0.2812  0.3840  1.7924
  158DOPC  H18Z19104   4.609   1.919   6.578 -1.8157  0.0798  3.7644
  159DOPC     N19105   6.320   5.047   9.494  0.6957  1.0004  0.2353
  159DOPC   C1219106   6.254   5.091   9.363  0.3234 -0.3845 -0.2118
  159DOPC  H12A19107   6.277   5.195   9.350  0.9339 -0.6225 -1.1802
  159DOPC  H12B19108   6.147   5.089   9.373  0.1190 -1.7805 -1.9730
  159DOPC   C1319109   6.264   5.130   9.608 -0.5088  0.2977  0.2476
  159DOPC  H13A19110   6.303   5.230   9.600  0.7837 -0.2755 -0.7983
  159DOPC  H13B19111   6.156   5.134   9.616 -0.4698  3.3572  0.6178
  159DOPC  H13C19112   6.289   5.089   9.705 -1.8100  2.7056  1.7234
  159DOPC   C1419113   6.472   5.068   9.494 -0.1094 -0.7099 -0.5128
  159DOPC  H14A19114   6.490   5.174   9.497  1.9923 -1.0390  1.2170
  159DOPC  H14B19115   6.510   5.026   9.587 -0.2502  0.5124  0.1142
  159DOPC  H14C19116   6.513   5.019   9.407  0.3120 -0.8758 -0.2262
  159DOPC   C1519117   6.279   4.903   9.522 -0.0689 -0.7406  0.3765
  159DOPC  H15A19118   6.298   4.833   9.442 -0.8732  0.7029 -1.1462
  159DOPC  H15B19119   6.173   4.902   9.542  0.2893 -0.6373  2.4197
  159DOPC  H15C19120   6.330   4.864   9.608 -0.3132 -0.2100  0.7628
  159DOPC   C1119121   6.291   5.019   9.230 -0.0662 -0.3168 -0.1148
  159DOPC  H11A19122   6.254   5.076   9.143  0.3458 -2.9809 -2.1484
  159DOPC  H11B19123   6.402   5.016   9.223  0.1624  1.3874  1.6673
  159DOPC     P19124   6.080   4.880   9.187  0.4371  0.0610 -0.1669
  159DOPC   O1319125   6.004   5.004   9.216  0.4037 -0.1862 -0.3634
  159DOPC   O1419126   6.021   4.749   9.233 -0.0458 -0.0260 -0.0772
  159DOPC   O1219127   6.226   4.892   9.236  0.1022 -0.4081  0.2807
  159DOPC   O1119128   6.101   4.873   9.029 -0.5022  0.3216 -0.1954
  159DOPC    C119129   6.212   4.797   8.972 -0.0155  0.3431  0.3281
  159DOPC    HA19130   6.227   4.701   9.025  1.0150  0.8412  0.9745
  159DOPC    HB19131   6.312   4.845   8.983  0.9455 -1.5828  0.3763
  159DOPC    C219132   6.200   4.758   8.823 -0.4854  0.4003 -0.0534
  159DOPC    HS19133   6.284   4.688   8.803 -0.5215  0.8165 -1.8108
  159DOPC   O2119134   6.228   4.877   8.754 -0.0780 -0.3227 -0.4459
  159DOPC   C2119135   6.284   4.867   8.636  0.1927  0.9305  0.5031
  159DOPC   O2219136   6.338   4.766   8.582 -0.5699 -0.2001  0.3637
  159DOPC   C2219137   6.255   5.001   8.567  0.8542  0.6257  0.3481
  159DOPC   H2R19138   6.312   5.070   8.633  0.9366  0.0196  0.9163
  159DOPC   H2S19139   6.144   5.011   8.562  0.4481 -2.6569  0.8542
  159DOPC    C319140   6.067   4.689   8.779  0.0904  0.1460  0.2326
  159DOPC    HX19141   5.990   4.768   8.767  0.3480  0.7401  2.2031
  159DOPC    HY19142   6.029   4.613   8.850  0.3393 -0.0231  0.1873
  159DOPC   O3119143   6.078   4.638   8.648  0.5051 -0.1496  0.5295
  159DOPC   C3119144   6.142   4.520   8.628 -0.3518 -0.3064  0.1716
  159DOPC   O3219145   6.205   4.461   8.711  0.6434 -0.1232 -0.3679
  159DOPC   C3219146   6.129   4.480   8.481 -0.5041  0.4632 -0.3557
  159DOPC   H2X19147   6.038   4.416   8.471 -0.5448  0.2654  0.9804
  159DOPC   H2Y19148   6.123   4.567   8.413 -0.9748  0.3437 -0.4755
  159DOPC   C2319149   6.315   5.006   8.424  0.5226  0.4161 -0.1647
  159DOPC   H3R19150   6.425   4.991   8.418  0.5632  0.7586 -0.2770
  159DOPC   H3S19151   6.282   5.110   8.401 -2.0879  0.1121  1.7987
  159DOPC   C2419152   6.247   4.924   8.310  0.7981  0.1724 -0.3058
  159DOPC   H4R19153   6.138   4.931   8.331  0.6084 -1.3059 -0.6422
  159DOPC   H4S19154   6.275   4.817   8.327  0.2002  0.0283 -0.1954
  159DOPC   C2519155   6.270   4.981   8.173 -0.2654  0.0485  0.3613
  159DOPC   H5R19156   6.378   5.001   8.157 -0.1442  0.5418  1.6951
  159DOPC   H5S19157   6.220   5.080   8.169 -0.7575 -0.1911  0.5334
  159DOPC   C2619158   6.202   4.894   8.071  0.0811  0.0794 -0.1062
  159DOPC   H6R19159   6.100   4.878   8.112  0.3927 -1.6694  0.0698
  159DOPC   H6S19160   6.249   4.793   8.068  1.4903  0.6991  0.2645
  159DOPC   C2719161   6.201   4.951   7.925 -0.2573 -0.1105 -0.1441
  159DOPC   H7R19162   6.306   4.975   7.897  0.1187  0.9561  1.9790
  159DOPC   H7S19163   6.141   5.044   7.931  1.6562  1.1708 -0.1218
  159DOPC   C2819164   6.124   4.865   7.826  0.1884  1.2154 -0.4818
  159DOPC   H8R19165   6.093   4.941   7.751  0.8457  2.7627  0.7383
  159DOPC   H8S19166   6.035   4.824   7.879  2.2806 -1.1882  1.4791
  159DOPC   C2919167   6.192   4.747   7.756 -0.1501  0.9609  0.0139
  159DOPC   H9R19168   6.259   4.686   7.819 -1.7793 -1.5075 -0.5559
  159DOPC  C21019169   6.205   4.715   7.626 -0.6989  0.0904  0.5150
  159DOPC  H10R19170   6.263   4.624   7.606 -1.5995 -0.2711 -0.5564
  159DOPC  C21119171   6.144   4.795   7.512 -0.0914  0.1699 -0.5659
  159DOPC  H11R19172   6.091   4.887   7.546 -0.0931  0.1048 -0.3881
  159DOPC  H11S19173   6.064   4.741   7.458 -0.4101  0.9805 -0.9151
  159DOPC  C21219174   6.254   4.833   7.412  0.2810 -0.5031 -0.5298
  159DOPC  H12R19175   6.326   4.750   7.396 -0.0229 -1.0639  0.9315
  159DOPC  H12S19176   6.305   4.925   7.449  0.0795  0.6615 -2.9468
  159DOPC  C21319177   6.191   4.852   7.273  0.0000  0.3737  0.1658
  159DOPC  H13R19178   6.145   4.953   7.286 -2.8949 -0.8311  0.0889
  159DOPC  H13S19179   6.104   4.785   7.254  0.2645  0.2207 -0.5386
  159DOPC  C21419180   6.300   4.845   7.164  0.0551  0.7234  0.0744
  159DOPC  H14R19181   6.349   4.745   7.174 -3.3905 -1.0605  0.6543
  159DOPC  H14S19182   6.366   4.934   7.168  0.1104  0.7543 -1.1013
  159DOPC  C21519183   6.250   4.853   7.019  0.2243  0.1078  0.1483
  159DOPC  H15R19184   6.223   4.959   6.996 -0.4523 -0.2986 -1.0468
  159DOPC  H15S19185   6.156   4.796   7.001 -0.6212  0.8685  1.9489
  159DOPC  C21619186   6.357   4.825   6.922 -0.2670  0.7237  0.0928
  159DOPC  H16R19187   6.390   4.719   6.929 -2.0051  0.0515 -0.9653
  159DOPC  H16S19188   6.446   4.882   6.955  0.7420 -1.0530  0.5849
  159DOPC  C21719189   6.330   4.871   6.780  1.2825 -0.3112  0.2703
  159DOPC  H17R19190   6.233   4.825   6.753  1.5879  0.5243 -2.5188
  159DOPC  H17S19191   6.411   4.824   6.719 -0.7838 -1.4777 -1.7377
  159DOPC  C21819192   6.328   5.018   6.748  0.0907  0.1176 -0.1665
  159DOPC  H18R19193   6.312   5.034   6.639 -1.3252  0.1977  0.0337
  159DOPC  H18S19194   6.426   5.061   6.778  0.0259  0.4672 -0.4467
  159DOPC  H18T19195   6.250   5.072   6.806 -1.8536 -2.0149 -0.6552
  159DOPC   C3319196   6.257   4.394   8.438 -0.0526 -0.7455 -0.1380
  159DOPC   H3X19197   6.261   4.296   8.490  5.4615  0.0242  1.5414
  159DOPC   H3Y19198   6.335   4.466   8.471  1.0864 -1.9306 -0.2005
  159DOPC   C3419199   6.275   4.375   8.292 -0.0786 -0.1311 -0.2973
  159DOPC   H4X19200   6.377   4.337   8.270 -0.4777  0.3215 -3.4279
  159DOPC   H4Y19201   6.259   4.472   8.240  1.1318 -0.2502 -0.9249
  159DOPC   C3519202   6.180   4.272   8.233  0.9918  0.3302 -0.0558
  159DOPC   H5X19203   6.079   4.317   8.243 -0.3097 -2.2366 -0.8032
  159DOPC   H5Y19204   6.177   4.176   8.289 -1.5847 -0.5167 -1.4712
  159DOPC   C3619205   6.205   4.234   8.084  0.0985  0.1143 -0.4280
  159DOPC   H6X19206   6.302   4.180   8.071  0.3968  0.1712  1.3573
  159DOPC   H6Y19207   6.117   4.171   8.059 -1.0416  1.2709  0.5385
  159DOPC   C3719208   6.210   4.351   7.983 -0.1386 -0.1813 -0.0968
  159DOPC   H7X19209   6.135   4.430   8.005 -1.6041 -1.7870  0.9106
  159DOPC   H7Y19210   6.306   4.407   7.987  0.5463 -0.8718 -3.4267
  159DOPC   C3819211   6.192   4.293   7.839  0.6303 -0.4493  0.2570
  159DOPC   H8X19212   6.118   4.210   7.843  0.1695 -0.0469  0.1953
  159DOPC   H8Y19213   6.294   4.268   7.803  0.8060  1.3024 -0.6002
  159DOPC   C3919214   6.123   4.397   7.753 -0.0429  0.1391  0.0723
  159DOPC   H9X19215   6.092   4.489   7.803 -2.3680 -0.7691  0.4167
  159DOPC  C31019216   6.122   4.384   7.621 -0.3385  0.2879  0.2179
  159DOPC  H10X19217   6.054   4.451   7.565  2.5711  3.1424 -0.2209
  159DOPC  C31119218   6.192   4.280   7.534 -0.3473  0.1670  0.1103
  159DOPC  H11X19219   6.122   4.195   7.518 -1.0457  0.2649  2.3294
  159DOPC  H11Y19220   6.278   4.237   7.590 -0.5117  1.2831  1.2580
  159DOPC  C31219221   6.259   4.345   7.409 -0.5703  0.3249  0.1890
  159DOPC  H12X19222   6.332   4.266   7.381 -0.6985 -0.5785  2.2055
  159DOPC  H12Y19223   6.311   4.437   7.443 -1.7948  1.6488 -1.3751
  159DOPC  C31319224   6.177   4.374   7.290 -0.4669 -0.4658  0.4123
  159DOPC  H13X19225   6.131   4.280   7.252  0.3744 -0.2699 -1.1692
  159DOPC  H13Y19226   6.103   4.456   7.301 -1.5623 -1.2691 -0.6773
  159DOPC  C31419227   6.275   4.424   7.174  0.3204  0.0288 -0.3497
  159DOPC  H14X19228   6.326   4.516   7.211  0.6527 -0.6993  1.1128
  159DOPC  H14Y19229   6.359   4.353   7.160 -0.1360 -0.3944 -0.9803
  159DOPC  C31519230   6.203   4.442   7.041  0.0391 -0.0129 -0.5869
  159DOPC  H15X19231   6.153   4.540   7.026 -1.7614 -0.2795  2.7156
  159DOPC  H15Y19232   6.121   4.367   7.038 -0.9531  0.9291  1.4678
  159DOPC  C31619233   6.287   4.429   6.915 -0.2253  0.9101 -0.0722
  159DOPC  H16X19234   6.370   4.502   6.902  0.4187 -0.0918 -2.0131
  159DOPC  H16Y19235   6.338   4.330   6.908 -0.8206  0.7030 -2.1511
  159DOPC  C31719236   6.194   4.433   6.790 -0.0516 -0.8519  0.7120
  159DOPC  H17X19237   6.129   4.343   6.798  1.1290 -2.0795 -1.8889
  159DOPC  H17Y19238   6.125   4.519   6.783  0.8296 -0.2260 -1.0183
  159DOPC  C31819239   6.258   4.411   6.646  0.6994  0.1764 -0.3516
  159DOPC  H18X19240   6.316   4.317   6.643  1.8487  0.8635 -0.3570
  159DOPC  H18Y19241   6.175   4.425   6.574 -0.3961  4.0922  1.3676
  159DOPC  H18Z19242   6.322   4.500   6.624 -0.3821  1.0614 -0.0419
  160DOPC     N19243   0.597   2.222   9.011  0.0994 -0.4568  0.2609
  160DOPC   C1219244   0.694   2.317   8.948  0.3094  0.1814  0.2275
  160DOPC  H12A19245   0.784   2.335   9.006  0.0252 -0.1418  0.7790
  160DOPC  H12B19246   0.651   2.416   8.941  1.3166  0.7470  1.5487
  160DOPC   C1319247   0.658   2.090   9.040  0.0957  0.3844 -0.2773
  160DOPC  H13A19248   0.668   2.039   8.946 -1.2469 -2.5187  1.0199
  160DOPC  H13B19249   0.756   2.087   9.086 -0.7967 -1.1273  1.6956
  160DOPC  H13C19250   0.591   2.032   9.103  0.0815 -0.3507 -0.9579
  160DOPC   C1419251   0.482   2.193   8.927 -0.2370  0.7594  0.9019
  160DOPC  H14A19252   0.518   2.136   8.842  0.9568  1.5773  0.8438
  160DOPC  H14B19253   0.426   2.119   8.983 -1.0036 -1.4418 -2.4670
  160DOPC  H14C19254   0.422   2.276   8.893  0.9745  0.0752 -3.5603
  160DOPC   C1519255   0.539   2.278   9.141  0.3937  0.2625  0.4139
  160DOPC  H15A19256   0.471   2.212   9.191 -0.3471  0.8634  0.2200
  160DOPC  H15B19257   0.481   2.367   9.120 -1.5468 -0.6917  1.5084
  160DOPC  H15C19258   0.624   2.305   9.201  1.8310  1.8316 -2.1515
  160DOPC   C1119259   0.748   2.274   8.811 -0.2539 -0.0304  0.0346
  160DOPC  H11A19260   0.775   2.166   8.815 -1.0482 -0.4324 -3.1409
  160DOPC  H11B19261   0.665   2.278   8.738 -1.4524 -0.7773  1.2995
  160DOPC     P19262   0.836   2.511   8.764  0.2697  0.2382  0.1524
  160DOPC   O1319263   0.976   2.569   8.754  0.1325  0.3943 -0.1056
  160DOPC   O1419264   0.749   2.569   8.868  0.2062 -0.5064  0.1380
  160DOPC   O1219265   0.854   2.358   8.781  0.7347 -0.2347 -0.2759
  160DOPC   O1119266   0.770   2.523   8.617  0.6680 -0.0670 -0.3321
  160DOPC    C119267   0.848   2.477   8.509  0.1075 -0.7202  0.0383
  160DOPC    HA19268   0.898   2.384   8.543 -0.3474 -0.3356  1.8586
  160DOPC    HB19269   0.925   2.548   8.472 -3.3435  2.3724 -1.9387
  160DOPC    C219270   0.766   2.435   8.383  0.7082  0.2409 -0.1982
  160DOPC    HS19271   0.710   2.522   8.343 -1.5875 -1.0488  0.0702
  160DOPC   O2119272   0.680   2.323   8.407 -0.1983 -0.3437 -0.0159
  160DOPC   C2119273   0.557   2.343   8.456 -0.5785  0.3678  0.4858
  160DOPC   O2219274   0.510   2.446   8.483  0.2145 -0.7793 -0.0104
  160DOPC   C2219275   0.478   2.211   8.461  0.0631 -0.1000 -0.2588
  160DOPC   H2R19276   0.427   2.201   8.559  1.0770 -0.9542  0.2084
  160DOPC   H2S19277   0.556   2.132   8.456  1.4219  1.2143 -0.9674
  160DOPC    C319278   0.857   2.385   8.271 -0.0225 -0.1764 -0.0928
  160DOPC    HX19279   0.927   2.305   8.305  0.7360 -0.1196 -1.4385
  160DOPC    HY19280   0.917   2.474   8.241 -0.9735  0.9525  1.2369
  160DOPC   O3119281   0.767   2.345   8.166  0.4267  0.4948  0.0169
  160DOPC   C3119282   0.841   2.297   8.069  0.2125 -0.2249 -0.1147
  160DOPC   O3219283   0.966   2.309   8.053 -0.4362  0.1347 -0.5264
  160DOPC   C3219284   0.739   2.251   7.962  0.2889  0.1490  0.1317
  160DOPC   H2X19285   0.719   2.144   7.988  1.1994  0.1278  0.7943
  160DOPC   H2Y19286   0.649   2.312   7.979  1.9164  3.6915 -2.6391
  160DOPC   C2319287   0.368   2.208   8.352  0.3080  0.0733 -1.0899
  160DOPC   H3R19288   0.300   2.295   8.363  1.0608  0.5727 -0.2098
  160DOPC   H3S19289   0.303   2.123   8.380 -0.9386  1.5134  0.5555
  160DOPC   C2419290   0.420   2.197   8.210 -0.0018  0.5465  0.3272
  160DOPC   H4R19291   0.468   2.100   8.182 -0.4216  0.8806 -1.6607
  160DOPC   H4S19292   0.509   2.259   8.185 -0.5164  0.4637 -1.8820
  160DOPC   C2519293   0.308   2.211   8.105  0.1674 -0.1442 -0.3275
  160DOPC   H5R19294   0.275   2.317   8.108 -0.8615 -0.4478 -0.4047
  160DOPC   H5S19295   0.221   2.145   8.127 -1.5465  1.7855 -0.9673
  160DOPC   C2619296   0.347   2.175   7.961  0.0813  0.8943 -0.2143
  160DOPC   H6R19297   0.405   2.080   7.972 -0.2402  0.7470  0.2154
  160DOPC   H6S19298   0.417   2.252   7.923  1.0205 -0.7365 -2.0012
  160DOPC   C2719299   0.226   2.167   7.878  0.1238 -0.0678 -0.3878
  160DOPC   H7R19300   0.181   2.268   7.877  0.4020  0.0931  1.1176
  160DOPC   H7S19301   0.146   2.101   7.919 -0.3441  0.2458 -0.7854
  160DOPC   C2819302   0.257   2.128   7.737  0.2980  0.0038  0.2085
  160DOPC   H8R19303   0.157   2.119   7.688  0.0815 -1.2870  0.8615
  160DOPC   H8S19304   0.306   2.029   7.743  1.6474  0.4556 -2.0087
  160DOPC   C2919305   0.340   2.230   7.661  0.4235 -0.5032 -0.0702
  160DOPC   H9R19306   0.409   2.295   7.718  0.9918  0.6666 -1.9789
  160DOPC  C21019307   0.330   2.248   7.523  0.3876  0.1917 -0.0129
  160DOPC  H10R19308   0.397   2.320   7.474  1.1096 -0.2976  0.2344
  160DOPC  C21119309   0.256   2.161   7.426 -0.0951 -0.1594  0.2962
  160DOPC  H11R19310   0.224   2.062   7.464  1.6153  0.4893  3.7837
  160DOPC  H11S19311   0.333   2.126   7.354 -0.4368 -1.1058  0.3816
  160DOPC  C21219312   0.136   2.218   7.357 -0.0170 -0.2353 -0.0760
  160DOPC  H12R19313   0.062   2.259   7.429  1.5179  0.4270  1.1880
  160DOPC  H12S19314   0.089   2.134   7.301  0.0992  2.0698 -4.0535
  160DOPC  C21319315   0.170   2.323   7.245 -0.2128  0.6544  0.7593
  160DOPC  H13R19316   0.274   2.303   7.212  0.4955  3.0501  1.2709
  160DOPC  H13S19317   0.173   2.427   7.285  0.3220  0.5904  0.8930
  160DOPC  C21419318   0.081   2.319   7.119  0.6078 -0.7011  0.0195
  160DOPC  H14R19319  -0.002   2.390   7.134  0.6620 -0.9111  1.4642
  160DOPC  H14S19320   0.041   2.218   7.096 -0.8606 -0.2840  0.6475
  160DOPC  C21519321   0.155   2.368   6.991  0.4054 -0.1024 -0.8569
  160DOPC  H15R19322   0.237   2.302   6.956  0.0360 -2.0674  1.6851
  160DOPC  H15S19323   0.201   2.465   7.017 -0.1089  0.1124 -0.7330
  160DOPC  C21619324   0.050   2.395   6.881 -0.3048 -0.1155 -0.1739
  160DOPC  H16R19325   0.098   2.458   6.803  1.0683  0.2512  0.9249
  160DOPC  H16S19326  -0.037   2.452   6.920  0.5497  0.6580  0.6447
  160DOPC  C21719327  -0.003   2.264   6.822  0.7124  0.7196 -0.3850
  160DOPC  H17R19328  -0.052   2.208   6.904  2.5051 -2.0241 -1.0130
  160DOPC  H17S19329   0.085   2.208   6.782 -0.6378 -2.3092  0.5367
  160DOPC  C21819330  -0.100   2.307   6.709  0.6696  0.0740 -0.0294
  160DOPC  H18R19331  -0.151   2.219   6.664  2.1823 -0.5988 -0.4787
  160DOPC  H18S19332  -0.039   2.351   6.627 -0.3286 -1.1857 -1.5201
  160DOPC  H18T19333  -0.167   2.380   6.760  1.6241  0.4905  0.6549
  160DOPC   C3319334   0.794   2.256   7.817  0.4986 -0.0388 -0.5506
  160DOPC   H3X19335   0.741   2.184   7.751 -0.5992 -1.2071  1.4782
  160DOPC   H3Y19336   0.897   2.215   7.821  0.6398  0.4062  1.8351
  160DOPC   C3419337   0.765   2.392   7.748 -0.2794  0.1842  0.9771
  160DOPC   H4X19338   0.824   2.467   7.805 -0.1869 -0.6282  1.9915
  160DOPC   H4Y19339   0.658   2.422   7.752 -0.6448 -0.6517 -1.1656
  160DOPC   C3519340   0.810   2.411   7.598 -0.3594  0.4618 -0.7959
  160DOPC   H5X19341   0.912   2.366   7.593 -0.6662 -0.1560 -1.7664
  160DOPC   H5Y19342   0.811   2.521   7.580  3.3989  0.5640 -0.8411
  160DOPC   C3619343   0.713   2.349   7.501 -0.3752 -0.0027  0.2564
  160DOPC   H6X19344   0.704   2.239   7.512  1.6359 -0.4332 -1.5929
  160DOPC   H6Y19345   0.611   2.393   7.509  0.0760  1.0301  0.5027
  160DOPC   C3719346   0.765   2.362   7.357 -0.4813 -0.0888  0.3297
  160DOPC   H7X19347   0.761   2.472   7.343  1.4828  0.0507  0.4698
  160DOPC   H7Y19348   0.873   2.336   7.358 -0.5058 -0.2223 -0.2490
  160DOPC   C3819349   0.703   2.281   7.247  0.4466 -0.2049 -0.2245
  160DOPC   H8X19350   0.693   2.177   7.285 -4.4821  0.6294  1.4903
  160DOPC   H8Y19351   0.764   2.280   7.154  0.4719  0.1988 -0.2118
  160DOPC   C3919352   0.560   2.321   7.204 -0.2857  0.3746 -0.2999
  160DOPC   H9X19353   0.475   2.282   7.263 -0.9594 -0.7542 -1.9544
  160DOPC  C31019354   0.530   2.398   7.094  0.2058 -0.3403 -0.1164
  160DOPC  H10X19355   0.426   2.415   7.065  0.8086 -1.7475 -3.5055
  160DOPC  C31119356   0.632   2.450   6.997 -0.7221 -0.2280 -0.0133
  160DOPC  H11X19357   0.731   2.455   7.047 -1.0104  3.0039  0.3895
  160DOPC  H11Y19358   0.603   2.556   6.980  0.9634  0.0416 -1.3942
  160DOPC  C31219359   0.652   2.369   6.861 -0.1734  0.2448 -0.8013
  160DOPC  H12X19360   0.643   2.261   6.888 -2.0206  1.1273  2.7154
  160DOPC  H12Y19361   0.757   2.383   6.828  0.4743 -0.5367  0.7989
  160DOPC  C31319362   0.554   2.405   6.753  0.3529 -0.5771  0.1483
  160DOPC  H13X19363   0.453   2.406   6.799  0.5511 -0.2177  0.5728
  160DOPC  H13Y19364   0.580   2.510   6.730 -0.0978 -0.4558  0.1856
  160DOPC  C31419365   0.558   2.319   6.624  0.3119  0.3093  0.3076
  160DOPC  H14X19366   0.663   2.327   6.589  0.0268  0.8660 -0.4337
  160DOPC  H14Y19367   0.554   2.209   6.643 -0.1596  0.2748  0.0405
  160DOPC  C31519368   0.466   2.365   6.510  0.7572 -0.3492  0.1260
  160DOPC  H15X19369   0.500   2.466   6.480 -1.3719  0.4790  0.2888
  160DOPC  H15Y19370   0.358   2.359   6.535  0.4149 -0.1847 -1.2414
  160DOPC  C31619371   0.482   2.284   6.386  0.0320  0.0571  0.4201
  160DOPC  H16X19372   0.589   2.264   6.361 -0.9513 -0.3656 -4.2594
  160DOPC  H16Y19373   0.446   2.183   6.415  3.6687 -1.2296  1.0672
  160DOPC  C31719374   0.406   2.335   6.271 -0.0428 -0.1837 -0.3751
  160DOPC  H17X19375   0.297   2.347   6.283 -0.0965  0.5736 -1.4548
  160DOPC  H17Y19376   0.445   2.435   6.241  0.7974 -0.2958  0.3031
  160DOPC  C31819377   0.431   2.249   6.149 -0.3229 -0.0846  0.6248
  160DOPC  H18X19378   0.539   2.230   6.132 -0.8841 -1.5142 -2.0646
  160DOPC  H18Y19379   0.381   2.150   6.158  2.5580 -1.8848 -1.3188
  160DOPC  H18Z19380   0.387   2.295   6.058 -0.3764  1.6469  1.4942
  161DOPC     N19381   4.269   2.454   8.751  0.0144  0.1761  0.1429
  161DOPC   C1219382   4.318   2.330   8.689 -0.6848  0.4664  0.6629
  161DOPC  H12A19383   4.246   2.250   8.699 -0.1265  0.0382  1.3135
  161DOPC  H12B19384   4.401   2.302   8.752 -1.2599 -0.3941  1.0576
  161DOPC   C1319385   4.193   2.425   8.877  0.3165 -0.5616 -0.2485
  161DOPC  H13A19386   4.186   2.520   8.926 -0.0139 -0.2663 -0.8504
  161DOPC  H13B19387   4.099   2.375   8.860  1.1849 -1.7123 -2.0093
  161DOPC  H13C19388   4.240   2.357   8.947 -1.8043  0.3443  2.1948
  161DOPC   C1419389   4.178   2.523   8.651 -0.0302  0.4270  0.5016
  161DOPC  H14A19390   4.230   2.530   8.556  0.0695  0.9835  0.5942
  161DOPC  H14B19391   4.084   2.470   8.650  0.8314 -1.2074  1.8058
  161DOPC  H14C19392   4.160   2.624   8.684 -0.8577  0.5496 -0.2807
  161DOPC   C1519393   4.383   2.537   8.791  0.5717 -0.2766  0.6018
  161DOPC  H15A19394   4.344   2.627   8.838  0.3712  0.4678 -0.9315
  161DOPC  H15B19395   4.437   2.574   8.705 -2.4904  1.9070 -0.5991
  161DOPC  H15C19396   4.449   2.486   8.859  0.0965  0.1992  1.4344
  161DOPC   C1119397   4.354   2.336   8.534 -0.4485 -0.0173  0.4698
  161DOPC  H11A19398   4.380   2.236   8.493 -2.0548 -0.6167  0.8543
  161DOPC  H11B19399   4.260   2.356   8.479 -0.1461 -0.6286 -0.2881
  161DOPC     P19400   4.602   2.409   8.537 -0.4700  0.1494 -0.0678
  161DOPC   O1319401   4.615   2.409   8.688  0.5736 -0.0720 -0.1940
  161DOPC   O1419402   4.689   2.497   8.460 -0.1983 -0.3422 -0.0561
  161DOPC   O1219403   4.457   2.431   8.502 -0.3151  0.1824  0.1339
  161DOPC   O1119404   4.628   2.262   8.482 -0.1603 -0.1616 -0.5890
  161DOPC    C119405   4.637   2.226   8.344 -0.3448 -0.3471 -0.2556
  161DOPC    HA19406   4.581   2.300   8.282 -1.4618 -1.7989 -1.0551
  161DOPC    HB19407   4.592   2.125   8.329 -0.2777 -0.1569 -1.8654
  161DOPC    C219408   4.784   2.215   8.306 -0.5525 -0.3974  0.0066
  161DOPC    HS19409   4.826   2.318   8.309 -0.2904 -0.5165  0.5786
  161DOPC   O2119410   4.797   2.158   8.176  0.1520 -0.3860  0.1511
  161DOPC   C2119411   4.758   2.230   8.071 -0.0590 -0.6193  0.9555
  161DOPC   O2219412   4.721   2.342   8.073  0.1354 -0.5294  0.1276
  161DOPC   C2219413   4.778   2.139   7.949 -0.3425 -0.5236  0.9201
  161DOPC   H2R19414   4.742   2.036   7.968 -2.4736  0.0290  0.1244
  161DOPC   H2S19415   4.886   2.144   7.924  0.1645  0.3437  3.0374
  161DOPC    C319416   4.868   2.129   8.398 -0.1958 -0.6516 -0.3914
  161DOPC    HX19417   4.833   2.025   8.381  1.2088 -0.8662 -2.3514
  161DOPC    HY19418   4.853   2.153   8.505  0.6868  1.1906 -0.6462
  161DOPC   O3119419   5.012   2.134   8.377 -0.2841  0.2009  0.0002
  161DOPC   C3119420   5.082   2.231   8.441 -0.1867 -0.4852  0.2213
  161DOPC   O3219421   5.030   2.313   8.514  0.4640 -0.2033  0.5881
  161DOPC   C3219422   5.229   2.218   8.402 -0.8158 -0.3986 -0.5668
  161DOPC   H2X19423   5.282   2.285   8.473  0.3719  0.3572 -2.1369
  161DOPC   H2Y19424   5.262   2.113   8.416  2.1882  0.4496 -0.7466
  161DOPC   C2319425   4.696   2.187   7.829  0.0973 -0.0680  0.6692
  161DOPC   H3R19426   4.705   2.297   7.817 -1.7083  0.1641  1.1895
  161DOPC   H3S19427   4.590   2.166   7.856  0.0578 -1.1575 -0.2385
  161DOPC   C2419428   4.727   2.119   7.696 -0.2768 -0.0560 -0.3053
  161DOPC   H4R19429   4.693   2.013   7.694  1.1898 -0.5249 -1.0860
  161DOPC   H4S19430   4.836   2.100   7.691 -0.5657 -2.0120 -0.2444
  161DOPC   C2519431   4.676   2.191   7.570 -0.1320  0.5538  0.0633
  161DOPC   H5R19432   4.737   2.281   7.548  1.7679 -1.0610 -1.6783
  161DOPC   H5S19433   4.569   2.222   7.569 -0.4474 -0.4695  0.8309
  161DOPC   C2619434   4.672   2.102   7.438  0.0546 -0.5831 -0.5197
  161DOPC   H6R19435   4.603   2.015   7.445 -0.6500 -0.1650 -1.8304
  161DOPC   H6S19436   4.771   2.050   7.436 -0.7037 -2.2052  1.2130
  161DOPC   C2719437   4.650   2.184   7.306  0.4564  0.1969  0.2529
  161DOPC   H7R19438   4.718   2.272   7.315 -0.0545  0.4272  2.7207
  161DOPC   H7S19439   4.547   2.225   7.308  0.1201 -0.6481  0.3781
  161DOPC   C2819440   4.684   2.109   7.174  0.2144  0.8561 -0.4319
  161DOPC   H8R19441   4.615   2.024   7.152  1.8696 -1.1469  1.6307
  161DOPC   H8S19442   4.784   2.064   7.191  0.3630  1.8589  1.6825
  161DOPC   C2919443   4.676   2.198   7.059  0.2466 -0.4569  0.5371
  161DOPC   H9R19444   4.574   2.237   7.042  0.3648 -1.1201 -2.2004
  161DOPC  C21019445   4.774   2.256   6.983  0.2235  0.0801  0.5261
  161DOPC  H10R19446   4.736   2.320   6.902 -0.6519  0.9079  1.5468
  161DOPC  C21119447   4.919   2.230   6.990  0.0626 -0.5165 -0.3349
  161DOPC  H11R19448   4.931   2.131   7.038  1.0309  0.0374  0.5978
  161DOPC  H11S19449   4.967   2.313   7.046  0.9160 -1.6827  0.7018
  161DOPC  C21219450   4.981   2.235   6.849  0.3824 -0.0907 -0.3317
  161DOPC  H12R19451   5.080   2.190   6.871  0.2711 -1.1895 -1.9768
  161DOPC  H12S19452   5.010   2.337   6.816  2.4942 -1.2493 -2.2435
  161DOPC  C21319453   4.907   2.143   6.749  0.5483 -0.0472 -0.4459
  161DOPC  H13R19454   4.798   2.163   6.741  0.6516  1.0763  0.6059
  161DOPC  H13S19455   4.920   2.041   6.792  2.9564  0.7874  1.0412
  161DOPC  C21419456   4.959   2.152   6.606 -0.0112 -0.3299  0.1064
  161DOPC  H14R19457   4.936   2.257   6.577  0.8246  0.0007  0.6157
  161DOPC  H14S19458   4.900   2.081   6.544 -1.3601  0.5852  0.3020
  161DOPC  C21519459   5.108   2.119   6.584  0.6984  0.5081  0.3663
  161DOPC  H15R19460   5.170   2.188   6.645  0.6789  0.6695  0.2027
  161DOPC  H15S19461   5.142   2.155   6.485  0.1769  2.5227  0.8825
  161DOPC  C21619462   5.146   1.973   6.615 -0.6780  0.6313 -0.2095
  161DOPC  H16R19463   5.067   1.908   6.572 -1.2383  2.7812 -2.6607
  161DOPC  H16S19464   5.153   1.953   6.724 -0.6330 -1.1927 -0.5148
  161DOPC  C21719465   5.277   1.936   6.548 -0.0445  0.0695 -0.6364
  161DOPC  H17R19466   5.263   1.957   6.439  0.6463 -0.9131 -0.9340
  161DOPC  H17S19467   5.301   1.827   6.543 -1.7844 -0.2950 -2.0514
  161DOPC  C21819468   5.399   2.011   6.597  0.1773  0.1852  0.3560
  161DOPC  H18R19469   5.495   1.968   6.564 -0.1228  0.0786 -0.3811
  161DOPC  H18S19470   5.406   2.020   6.708 -0.1131  0.9548  0.3195
  161DOPC  H18T19471   5.381   2.114   6.560 -0.9981  0.2379  1.0036
  161DOPC   C3319472   5.265   2.277   8.257 -0.4089 -0.1244  0.0234
  161DOPC   H3X19473   5.376   2.281   8.244 -0.3512 -2.3000 -0.5951
  161DOPC   H3Y19474   5.224   2.380   8.252 -1.3809 -0.4739  0.6378
  161DOPC   C3419475   5.229   2.189   8.134 -0.0592  0.1639 -0.1615
  161DOPC   H4X19476   5.238   2.255   8.045  1.2484 -0.9753 -0.9077
  161DOPC   H4Y19477   5.122   2.162   8.142 -0.2797  1.4757  2.7633
  161DOPC   C3519478   5.314   2.062   8.114 -0.1911 -0.0369  0.2173
  161DOPC   H5X19479   5.276   1.972   8.167  2.8930 -1.0448  0.9588
  161DOPC   H5Y19480   5.414   2.077   8.160  0.6691  1.4525 -1.9653
  161DOPC   C3619481   5.329   2.032   7.962  0.0032 -0.0281  1.0919
  161DOPC   H6X19482   5.369   1.929   7.948  1.0142  0.5513 -0.5842
  161DOPC   H6Y19483   5.219   2.032   7.947 -0.1035 -3.6721  0.9122
  161DOPC   C3719484   5.405   2.135   7.881 -0.5263  0.2727  0.2563
  161DOPC   H7X19485   5.379   2.241   7.902 -0.2537  0.4653 -0.3486
  161DOPC   H7Y19486   5.514   2.129   7.905  0.0942  1.7680 -1.8916
  161DOPC   C3819487   5.395   2.104   7.730  0.3472 -0.1757 -0.0299
  161DOPC   H8X19488   5.416   1.997   7.710  0.3539 -0.3287  0.7493
  161DOPC   H8Y19489   5.478   2.157   7.678  0.4387 -1.5194 -1.2926
  161DOPC   C3919490   5.261   2.141   7.673 -0.0761  0.2960 -0.3343
  161DOPC   H9X19491   5.193   2.165   7.757  0.0217  0.1989 -0.2284
  161DOPC  C31019492   5.211   2.147   7.549  0.1383  0.7086  0.8384
  161DOPC  H10X19493   5.108   2.183   7.542 -0.0917 -0.0988 -0.1032
  161DOPC  C31119494   5.288   2.131   7.419  0.5528  0.1066  0.4812
  161DOPC  H11X19495   5.397   2.122   7.439  0.6132  1.2545  0.7577
  161DOPC  H11Y19496   5.266   2.221   7.357 -0.1595 -0.8683 -0.7163
  161DOPC  C31219497   5.237   2.002   7.341 -0.1810 -0.2340 -0.6325
  161DOPC  H12X19498   5.139   2.023   7.293 -0.2122 -0.1458 -0.5294
  161DOPC  H12Y19499   5.225   1.916   7.411 -1.0609  0.1047 -0.3537
  161DOPC  C31319500   5.332   1.956   7.230  0.3255 -0.2009 -0.7140
  161DOPC  H13X19501   5.352   2.044   7.166 -0.6707  0.1589 -0.5475
  161DOPC  H13Y19502   5.434   1.934   7.265 -0.1335 -1.0177  0.1605
  161DOPC  C31419503   5.288   1.839   7.140  0.3018 -0.1672  0.2111
  161DOPC  H14X19504   5.298   1.747   7.203  2.9062  0.5751  1.0276
  161DOPC  H14Y19505   5.182   1.853   7.112  0.3272  0.1829  0.2906
  161DOPC  C31519506   5.371   1.832   7.008 -0.4225  0.0445  0.2428
  161DOPC  H15X19507   5.473   1.793   7.026 -1.0679 -1.4657  0.7759
  161DOPC  H15Y19508   5.390   1.932   6.961  0.9521 -0.2011  0.2442
  161DOPC  C31619509   5.314   1.732   6.904 -0.3393 -0.3254  0.8775
  161DOPC  H16X19510   5.207   1.757   6.883  0.0135  0.0258 -0.6733
  161DOPC  H16Y19511   5.371   1.751   6.810  0.1868 -1.6764  0.9083
  161DOPC  C31719512   5.319   1.583   6.942  0.5967  0.4260  0.0363
  161DOPC  H17X19513   5.424   1.564   6.973  0.2189  1.4477  2.1321
  161DOPC  H17Y19514   5.266   1.570   7.039  3.7906  0.1544  1.8777
  161DOPC  C31819515   5.269   1.487   6.836  0.0696  0.0133  0.1825
  161DOPC  H18X19516   5.159   1.498   6.841  0.1300  2.0066 -1.6549
  161DOPC  H18Y19517   5.302   1.529   6.739 -0.3365  1.6735  0.7363
  161DOPC  H18Z19518   5.302   1.383   6.860  1.7642  0.2857 -0.8180
  162DOPC     N19519   2.529   1.651   9.042  0.1736  0.1317 -0.1520
  162DOPC   C1219520   2.498   1.753   8.933 -0.1098  0.1234 -0.6852
  162DOPC  H12A19521   2.434   1.830   8.973  1.0809  0.8325 -0.0866
  162DOPC  H12B19522   2.451   1.697   8.853  0.6544 -1.0549 -0.3320
  162DOPC   C1319523   2.589   1.725   9.158  0.2125  0.2694 -0.3961
  162DOPC  H13A19524   2.615   1.660   9.241 -2.8537 -0.7802 -0.1218
  162DOPC  H13B19525   2.681   1.778   9.139  0.8738 -0.3929  0.7707
  162DOPC  H13C19526   2.517   1.795   9.198 -0.9710 -1.5736  0.8721
  162DOPC   C1419527   2.618   1.543   8.996 -0.3026 -0.0885  0.1452
  162DOPC  H14A19528   2.685   1.586   8.923 -2.1242  2.0620 -0.3625
  162DOPC  H14B19529   2.683   1.499   9.071 -0.6056  0.1037  0.5231
  162DOPC  H14C19530   2.558   1.467   8.948 -2.9258  0.4461  2.3623
  162DOPC   C1519531   2.406   1.580   9.078 -0.4428 -0.4466 -0.9247
  162DOPC  H15A19532   2.344   1.645   9.138 -0.4064 -1.1481 -0.1064
  162DOPC  H15B19533   2.439   1.500   9.143  0.3515  0.6642  0.0911
  162DOPC  H15C19534   2.348   1.548   8.993  0.4309 -0.0887 -1.6738
  162DOPC   C1119535   2.619   1.829   8.864  1.0005  0.2599 -0.0651
  162DOPC  H11A19536   2.577   1.898   8.787 -1.1856 -0.2457  0.6161
  162DOPC  H11B19537   2.670   1.884   8.945  1.1665 -0.5560  0.3906
  162DOPC     P19538   2.669   1.674   8.659  0.2349  0.1368 -0.1287
  162DOPC   O1319539   2.530   1.627   8.673 -0.2240 -0.0310  0.1232
  162DOPC   O1419540   2.767   1.566   8.624 -0.3459 -0.3328  0.6247
  162DOPC   O1219541   2.716   1.740   8.797  0.2236 -0.6701  0.1210
  162DOPC   O1119542   2.676   1.799   8.560 -0.6331 -0.3097 -0.1225
  162DOPC    C119543   2.800   1.849   8.510  0.4116  0.2775 -0.1806
  162DOPC    HA19544   2.892   1.789   8.530 -0.1140 -0.5279 -0.1499
  162DOPC    HB19545   2.811   1.948   8.560 -0.7536  0.7726 -0.8652
  162DOPC    C219546   2.792   1.868   8.360 -0.8241 -0.2555 -0.4949
  162DOPC    HS19547   2.691   1.905   8.334 -1.3537 -1.4108 -0.1510
  162DOPC   O2119548   2.822   1.744   8.287  0.5363 -0.2396  0.2285
  162DOPC   C2119549   2.715   1.673   8.261  0.0303 -0.0934 -0.0949
  162DOPC   O2219550   2.601   1.707   8.286  0.0764  0.1050  0.2324
  162DOPC   C2219551   2.750   1.550   8.182  0.1039  0.4075 -0.6197
  162DOPC   H2R19552   2.685   1.465   8.212  0.6488  0.4043  0.5947
  162DOPC   H2S19553   2.857   1.523   8.197  0.6153  2.5645 -0.1508
  162DOPC    C319554   2.891   1.971   8.305  0.4217 -0.2935  0.2565
  162DOPC    HX19555   2.996   1.946   8.334  0.8139  1.3870  0.4195
  162DOPC    HY19556   2.862   2.068   8.351  0.9307 -0.3122  0.6310
  162DOPC   O3119557   2.867   1.969   8.165 -0.3361  0.1361  0.3120
  162DOPC   C3119558   2.894   2.078   8.098 -0.8568  0.1303 -0.4013
  162DOPC   O3219559   2.966   2.169   8.139  0.0760  0.1502  0.8576
  162DOPC   C3219560   2.836   2.073   7.961 -0.1544 -0.2422 -0.2505
  162DOPC   H2X19561   2.840   1.974   7.911 -1.6408  0.5392 -2.0222
  162DOPC   H2Y19562   2.729   2.103   7.968 -0.1603 -0.5277  1.2781
  162DOPC   C2319563   2.739   1.570   8.027 -0.1345  0.5283 -0.3050
  162DOPC   H3R19564   2.647   1.630   8.013 -1.8665 -1.4246  1.8131
  162DOPC   H3S19565   2.715   1.477   7.971  0.7226 -0.2897  0.6482
  162DOPC   C2419566   2.873   1.634   7.979  0.2388 -0.0198  0.4071
  162DOPC   H4R19567   2.958   1.571   8.012  2.0174  3.1640  2.4633
  162DOPC   H4S19568   2.874   1.740   8.013 -1.8844  0.1219  0.1774
  162DOPC   C2519569   2.872   1.652   7.824 -0.1552 -0.4371  0.2920
  162DOPC   H5R19570   2.967   1.703   7.798 -0.8395  0.8049  0.1186
  162DOPC   H5S19571   2.791   1.727   7.808  2.8791  3.2920  1.0518
  162DOPC   C2619572   2.865   1.524   7.742 -0.2195 -0.6641  0.2793
  162DOPC   H6R19573   2.759   1.501   7.720 -0.6857  1.2119  0.3960
  162DOPC   H6S19574   2.912   1.438   7.795 -1.1036 -0.4254  1.4978
  162DOPC   C2719575   2.945   1.538   7.613  0.1272  0.1184 -0.7240
  162DOPC   H7R19576   2.955   1.444   7.555  0.9545 -1.2614  1.5270
  162DOPC   H7S19577   3.048   1.570   7.637  0.1758 -1.2290  1.0513
  162DOPC   C2819578   2.897   1.632   7.502 -0.1934  0.3638  0.0674
  162DOPC   H8R19579   2.860   1.725   7.551 -1.7648 -0.5900  0.7669
  162DOPC   H8S19580   2.817   1.576   7.450  1.3285 -1.4455 -0.4159
  162DOPC   C2919581   3.005   1.673   7.404  0.2393 -0.3310  0.6728
  162DOPC   H9R19582   3.051   1.769   7.430 -1.1003  0.8146 -0.9617
  162DOPC  C21019583   3.035   1.611   7.290 -0.7497 -0.3213  0.3416
  162DOPC  H10R19584   3.100   1.669   7.224 -2.4330  2.3860  0.8936
  162DOPC  C21119585   2.975   1.479   7.249  0.0701  0.3571  0.9249
  162DOPC  H11R19586   2.899   1.430   7.313  0.9724 -1.1416  0.9002
  162DOPC  H11S19587   3.048   1.404   7.211 -2.1181 -0.9119 -1.0300
  162DOPC  C21219588   2.892   1.511   7.120  0.7892  0.8023  0.0535
  162DOPC  H12R19589   2.818   1.588   7.151 -0.3561 -0.6332  1.0415
  162DOPC  H12S19590   2.834   1.418   7.101 -0.2024  1.4967 -0.3344
  162DOPC  C21319591   2.979   1.548   6.996  0.0293 -0.3158  0.3343
  162DOPC  H13R19592   3.063   1.476   6.987  0.9286  0.6730  0.7000
  162DOPC  H13S19593   3.010   1.654   7.006 -1.4398  0.0634  1.2482
  162DOPC  C21419594   2.885   1.543   6.870 -0.0321 -0.2791  0.5133
  162DOPC  H14R19595   2.799   1.612   6.882 -0.3725 -0.9284  1.9555
  162DOPC  H14S19596   2.859   1.435   6.860  0.3777 -0.3804  0.5171
  162DOPC  C21519597   2.957   1.595   6.746 -0.0720  0.0185  0.5651
  162DOPC  H15R19598   3.051   1.536   6.741  0.9410  1.5836  0.1138
  162DOPC  H15S19599   2.989   1.702   6.754 -3.2880  1.3145 -1.6828
  162DOPC  C21619600   2.874   1.598   6.618  0.3919  0.4559  0.3461
  162DOPC  H16R19601   2.809   1.688   6.606 -0.1764  0.1177  0.8351
  162DOPC  H16S19602   2.820   1.504   6.595  1.9010 -0.3878  0.1529
  162DOPC  C21719603   2.970   1.610   6.495 -0.1580  0.6068 -0.3136
  162DOPC  H17R19604   3.037   1.521   6.496  0.0154  0.7383  0.9753
  162DOPC  H17S19605   3.036   1.699   6.507 -1.5576  1.7862 -1.0051
  162DOPC  C21819606   2.898   1.621   6.358 -0.1448 -0.2083 -0.0829
  162DOPC  H18R19607   2.846   1.526   6.335  0.1921 -0.9602  2.0201
  162DOPC  H18S19608   2.974   1.637   6.279 -0.1253 -0.6263 -0.1510
  162DOPC  H18T19609   2.831   1.709   6.344  0.2435  0.0862 -0.1076
  162DOPC   C3319610   2.916   2.178   7.877 -0.4534 -0.1267  0.6056
  162DOPC   H3X19611   3.014   2.128   7.859 -0.7077 -0.8926  1.2562
  162DOPC   H3Y19612   2.934   2.270   7.937  1.2072  0.1488 -0.2338
  162DOPC   C3419613   2.848   2.198   7.741  0.1320 -0.2291 -0.4727
  162DOPC   H4X19614   2.919   2.269   7.693  1.2991 -1.3221 -0.4095
  162DOPC   H4Y19615   2.747   2.236   7.769  0.6103  0.0159  0.9944
  162DOPC   C3519616   2.834   2.070   7.656  0.1964  0.0693  0.7010
  162DOPC   H5X19617   2.757   1.995   7.687 -0.0078  0.7587  1.9646
  162DOPC   H5Y19618   2.931   2.016   7.658 -0.1498 -0.6204 -0.3180
  162DOPC   C3619619   2.804   2.097   7.505  0.3086  0.2769 -0.4337
  162DOPC   H6X19620   2.701   2.139   7.503 -0.3697 -1.3288 -0.1980
  162DOPC   H6Y19621   2.876   2.176   7.472  0.1393  0.1148 -1.2157
  162DOPC   C3719622   2.821   1.981   7.415 -0.7328 -0.0195  0.3784
  162DOPC   H7X19623   2.929   1.965   7.396  0.1557  2.3665  2.7910
  162DOPC   H7Y19624   2.782   1.887   7.460  0.2812  0.8464  3.2416
  162DOPC   C3819625   2.758   2.014   7.284 -0.1359 -0.4425  0.1294
  162DOPC   H8X19626   2.792   2.117   7.258 -0.3239  0.1000  1.8474
  162DOPC   H8Y19627   2.654   2.046   7.303  0.1325 -0.6794  2.3153
  162DOPC   C3919628   2.765   1.907   7.175 -0.0342  0.2365 -0.3580
  162DOPC   H9X19629   2.716   1.810   7.192  0.5111  0.0127 -0.0349
  162DOPC  C31019630   2.841   1.912   7.057 -0.4846 -0.3910 -0.0415
  162DOPC  H10X19631   2.845   1.823   6.992  0.8092  1.3366 -2.4502
  162DOPC  C31119632   2.925   2.035   7.015 -0.6455 -0.0816 -0.3546
  162DOPC  H11X19633   3.031   2.006   6.998 -1.0731 -3.5721  1.8974
  162DOPC  H11Y19634   2.940   2.112   7.093 -1.0476 -0.8928  0.5481
  162DOPC  C31219635   2.874   2.102   6.881  0.0377 -0.1663  0.3753
  162DOPC  H12X19636   2.936   2.193   6.871 -1.2879  0.9563  1.9065
  162DOPC  H12Y19637   2.771   2.140   6.895  0.9018  1.9555  1.5172
  162DOPC  C31319638   2.877   2.008   6.755  0.1772  0.4407 -0.5866
  162DOPC  H13X19639   2.968   1.945   6.749 -1.3384 -1.8410 -0.8569
  162DOPC  H13Y19640   2.787   1.943   6.760  0.3618 -0.0361 -2.7191
  162DOPC  C31419641   2.870   2.086   6.622 -0.3247  0.3832 -0.2484
  162DOPC  H14X19642   2.931   2.177   6.641  0.2926 -0.1478  0.4007
  162DOPC  H14Y19643   2.904   2.014   6.544  1.8484  0.6692  0.3696
  162DOPC  C31519644   2.731   2.141   6.583  0.0467 -0.3601  0.4120
  162DOPC  H15X19645   2.694   2.205   6.666 -1.1716 -2.2996  1.4507
  162DOPC  H15Y19646   2.665   2.052   6.575  2.5329 -2.2658 -0.1497
  162DOPC  C31619647   2.721   2.219   6.457 -0.2905  0.5358  0.0572
  162DOPC  H16X19648   2.621   2.265   6.474  0.3597  1.6467  0.9892
  162DOPC  H16Y19649   2.787   2.308   6.449 -1.8217  1.5812 -2.3376
  162DOPC  C31719650   2.731   2.133   6.333 -0.1025 -0.2329  0.0348
  162DOPC  H17X19651   2.835   2.130   6.293 -0.6201  0.2526 -1.4458
  162DOPC  H17Y19652   2.693   2.030   6.348  1.8147 -1.4741 -2.7791
  162DOPC  C31819653   2.649   2.196   6.223  1.4731  0.5428  0.3435
  162DOPC  H18X19654   2.661   2.139   6.129  0.5638  1.3559 -0.2787
  162DOPC  H18Y19655   2.539   2.196   6.240  0.9045 -0.2905 -2.7244
  162DOPC  H18Z19656   2.669   2.304   6.206 -0.3262  0.7373 -0.7556
  163DOPC     N19657   1.871   5.638   9.391 -1.0460 -0.5344  0.2473
  163DOPC   C1219658   1.853   5.604   9.242 -0.2035  0.0183  0.2929
  163DOPC  H12A19659   1.951   5.596   9.197 -0.0878 -0.2947  0.5980
  163DOPC  H12B19660   1.796   5.679   9.189  0.0578 -1.2286 -1.8257
  163DOPC   C1319661   1.991   5.566   9.449 -0.1064 -0.6875 -0.6093
  163DOPC  H13A19662   1.965   5.463   9.468 -1.3805 -0.0739  1.3088
  163DOPC  H13B19663   2.079   5.576   9.387  0.7441  0.9278  0.7813
  163DOPC  H13C19664   2.006   5.607   9.548 -1.4817  0.4002 -0.8282
  163DOPC   C1419665   1.753   5.601   9.469 -0.2410  0.0724 -0.2127
  163DOPC  H14A19666   1.718   5.504   9.440 -2.9023  0.8015  0.3198
  163DOPC  H14B19667   1.775   5.602   9.575 -1.2678  1.3671  0.0159
  163DOPC  H14C19668   1.673   5.671   9.450 -0.2351  0.3425  0.6914
  163DOPC   C1519669   1.894   5.788   9.407  0.3279  0.0434  0.2722
  163DOPC  H15A19670   1.987   5.808   9.356  0.0757 -3.0610 -1.6969
  163DOPC  H15B19671   1.908   5.805   9.512 -0.4131  0.4000  0.3227
  163DOPC  H15C19672   1.803   5.835   9.371 -0.8155 -1.6549  0.8172
  163DOPC   C1119673   1.779   5.470   9.204  1.1202 -0.4746 -0.5092
  163DOPC  H11A19674   1.671   5.484   9.226  1.3209  1.1020 -0.3933
  163DOPC  H11B19675   1.788   5.464   9.094 -3.4816 -1.7266 -1.0045
  163DOPC     P19676   1.948   5.279   9.243 -0.0789  0.0011 -0.6610
  163DOPC   O1319677   1.925   5.144   9.293 -0.8005  0.1868 -0.2404
  163DOPC   O1419678   2.064   5.350   9.294  0.7224 -0.0655  0.0110
  163DOPC   O1219679   1.829   5.360   9.284  0.1661  0.2840  0.3287
  163DOPC   O1119680   1.958   5.293   9.084  0.0933  0.0187 -0.1239
  163DOPC    C119681   1.883   5.195   9.010  0.2333 -0.0289 -0.6382
  163DOPC    HA19682   1.778   5.193   9.045 -0.1899 -0.9045 -1.8614
  163DOPC    HB19683   1.928   5.095   9.030 -1.4755 -0.5344  0.8612
  163DOPC    C219684   1.877   5.232   8.859  0.5055 -0.1979  0.0591
  163DOPC    HS19685   1.980   5.234   8.818  0.7226 -0.5768  0.5692
  163DOPC   O2119686   1.794   5.354   8.864  0.0289  0.2509 -0.1639
  163DOPC   C2119687   1.838   5.449   8.778 -0.1528  1.0443  0.2010
  163DOPC   O2219688   1.939   5.431   8.715 -0.0098  0.2049  0.4452
  163DOPC   C2219689   1.743   5.571   8.762 -0.2847 -0.0881  0.4238
  163DOPC   H2R19690   1.804   5.660   8.740 -0.9427  0.1499 -0.4830
  163DOPC   H2S19691   1.703   5.591   8.864 -1.0307  0.2683  0.0742
  163DOPC    C319692   1.814   5.127   8.770  0.3144 -0.1874 -0.0130
  163DOPC    HX19693   1.707   5.114   8.797  0.2896 -1.6534 -0.6739
  163DOPC    HY19694   1.867   5.030   8.785  4.4665  1.9265  0.3494
  163DOPC   O3119695   1.810   5.178   8.632  0.1863  0.0125 -0.1856
  163DOPC   C3119696   1.924   5.161   8.562  0.5711  0.0425 -0.4185
  163DOPC   O3219697   2.016   5.093   8.603 -0.0667 -0.0776 -0.6469
  163DOPC   C3219698   1.918   5.248   8.438  0.4413 -0.2565 -0.2229
  163DOPC   H2X19699   1.811   5.261   8.412 -0.1143  0.3994  2.1845
  163DOPC   H2Y19700   1.961   5.348   8.461 -0.9703  0.6264 -1.2224
  163DOPC   C2319701   1.634   5.565   8.658  0.5843 -0.2333 -0.0688
  163DOPC   H3R19702   1.549   5.633   8.681 -0.6457 -0.1957 -4.1020
  163DOPC   H3S19703   1.583   5.469   8.678 -1.4633  0.6661 -0.6516
  163DOPC   C2419704   1.680   5.585   8.516 -0.0086 -0.3490  0.0854
  163DOPC   H4R19705   1.788   5.562   8.504  0.6960  2.0752  1.1116
  163DOPC   H4S19706   1.683   5.695   8.501  0.7033 -0.4273 -0.3658
  163DOPC   C2519707   1.599   5.512   8.404 -0.0440 -0.2788  0.0339
  163DOPC   H5R19708   1.497   5.552   8.420  0.4730  0.2092  2.4923
  163DOPC   H5S19709   1.608   5.404   8.432  0.4864  0.5687  3.6512
  163DOPC   C2619710   1.638   5.556   8.266  0.3828  0.6479  0.3507
  163DOPC   H6R19711   1.729   5.504   8.230 -0.9190 -0.1169 -2.0129
  163DOPC   H6S19712   1.646   5.667   8.263 -2.7144  0.9082 -0.9802
  163DOPC   C2719713   1.537   5.520   8.151 -0.0855  0.0736  0.1407
  163DOPC   H7R19714   1.434   5.555   8.174 -0.5806 -1.4320  0.3659
  163DOPC   H7S19715   1.528   5.410   8.136 -0.5878  0.3270 -1.6837
  163DOPC   C2819716   1.580   5.555   8.007  0.4300  0.4009  0.2580
  163DOPC   H8R19717   1.526   5.493   7.932 -1.0453  0.0715  1.5424
  163DOPC   H8S19718   1.685   5.521   8.001 -0.2339 -1.5926 -1.3017
  163DOPC   C2919719   1.559   5.700   7.966  0.3207  0.6708  0.1196
  163DOPC   H9R19720   1.604   5.770   8.037  0.9005  0.6030 -0.1753
  163DOPC  C21019721   1.516   5.748   7.846  0.5310  0.3022  0.7058
  163DOPC  H10R19722   1.525   5.855   7.824 -1.8028  0.6828  1.3021
  163DOPC  C21119723   1.458   5.664   7.728 -0.8318 -0.4944  0.2606
  163DOPC  H11R19724   1.369   5.707   7.678  0.6972  1.0757 -1.2349
  163DOPC  H11S19725   1.416   5.564   7.754  1.5598 -1.4423  0.8384
  163DOPC  C21219726   1.557   5.665   7.611 -0.1963 -0.0804  0.0002
  163DOPC  H12R19727   1.638   5.600   7.651  0.5131  1.2006  0.7101
  163DOPC  H12S19728   1.586   5.772   7.602 -0.5030 -0.1136 -1.9378
  163DOPC  C21319729   1.494   5.603   7.486 -0.3067  0.4027  0.7407
  163DOPC  H13R19730   1.398   5.651   7.460 -0.2711 -0.1002 -0.4075
  163DOPC  H13S19731   1.483   5.497   7.520  0.0178  0.6124  1.5195
  163DOPC  C21419732   1.584   5.610   7.363 -0.6981  0.2366 -0.3147
  163DOPC  H14R19733   1.687   5.578   7.388  0.2585  1.1513 -2.7626
  163DOPC  H14S19734   1.597   5.718   7.337  0.8465 -0.0682 -0.8987
  163DOPC  C21519735   1.528   5.528   7.250  0.4933 -0.4294 -0.1612
  163DOPC  H15R19736   1.430   5.562   7.212  0.1230 -3.5061 -2.3222
  163DOPC  H15S19737   1.511   5.420   7.270  1.0567 -0.8070 -1.5612
  163DOPC  C21619738   1.628   5.527   7.133  0.5436  0.1286 -0.7176
  163DOPC  H16R19739   1.713   5.468   7.174  0.5368 -0.2314 -1.2194
  163DOPC  H16S19740   1.660   5.627   7.095  0.1188  0.7205  0.4046
  163DOPC  C21719741   1.594   5.435   7.014 -0.3200  0.3058  0.0777
  163DOPC  H17R19742   1.518   5.490   6.955  1.6843  2.7557 -0.3830
  163DOPC  H17S19743   1.547   5.345   7.059 -0.2429  0.6467  0.8619
  163DOPC  C21819744   1.709   5.401   6.927 -0.4308 -0.4736  0.1331
  163DOPC  H18R19745   1.675   5.324   6.854  0.9229 -0.7053 -0.2865
  163DOPC  H18S19746   1.793   5.364   6.990  0.2957  0.8411 -0.0099
  163DOPC  H18T19747   1.751   5.494   6.882  0.3670 -0.7268  0.3340
  163DOPC   C3319748   1.987   5.176   8.328  0.1124 -0.3710  0.8140
  163DOPC   H3X19749   1.940   5.078   8.304 -3.7993  1.6565 -0.8517
  163DOPC   H3Y19750   2.095   5.159   8.348  0.8790  3.5847  0.7794
  163DOPC   C3419751   1.982   5.260   8.199  0.1582  0.3467 -0.6918
  163DOPC   H4X19752   2.080   5.243   8.148 -0.6003 -0.8280 -1.8218
  163DOPC   H4Y19753   1.966   5.367   8.224 -2.2970  0.0552 -0.8136
  163DOPC   C3519754   1.871   5.202   8.103 -0.2093  0.1555  0.3884
  163DOPC   H5X19755   1.770   5.214   8.147  0.1893  0.2612  1.2940
  163DOPC   H5Y19756   1.882   5.092   8.094  0.9453  0.3683 -1.6837
  163DOPC   C3619757   1.884   5.275   7.968  0.1065  0.1039 -0.5957
  163DOPC   H6X19758   1.893   5.384   7.989 -2.4622  0.1074  0.9697
  163DOPC   H6Y19759   1.978   5.237   7.923  0.4176  0.5529 -0.3317
  163DOPC   C3719760   1.765   5.251   7.881 -1.3284  0.2920  0.9464
  163DOPC   H7X19761   1.747   5.141   7.886  0.1151  0.0698  1.9688
  163DOPC   H7Y19762   1.666   5.286   7.918 -2.2481 -0.5328 -0.6459
  163DOPC   C3819763   1.780   5.309   7.738  0.4644 -0.0759  0.6387
  163DOPC   H8X19764   1.880   5.280   7.700  1.4474  1.3442  2.0680
  163DOPC   H8Y19765   1.780   5.419   7.728  3.7922 -0.1400 -1.6019
  163DOPC   C3919766   1.661   5.263   7.659  0.0755  0.1177 -0.0811
  163DOPC   H9X19767   1.567   5.294   7.706 -0.8330 -0.9103 -1.1426
  163DOPC  C31019768   1.658   5.169   7.562 -0.3828 -0.1464 -0.7475
  163DOPC  H10X19769   1.564   5.132   7.517 -0.9589  0.1126  0.2040
  163DOPC  C31119770   1.780   5.091   7.515  0.4093 -0.7009  0.6457
  163DOPC  H11X19771   1.759   4.983   7.499  3.1573 -1.3326  0.7858
  163DOPC  H11Y19772   1.869   5.091   7.580 -0.0494 -0.4458  1.2852
  163DOPC  C31219773   1.837   5.167   7.388 -0.1658  0.1529  0.0676
  163DOPC  H12X19774   1.930   5.122   7.347  2.1775  0.5317  4.3856
  163DOPC  H12Y19775   1.859   5.266   7.433  0.2364 -0.6669  1.7592
  163DOPC  C31319776   1.746   5.190   7.261 -0.7204  0.4533 -0.4307
  163DOPC  H13X19777   1.680   5.274   7.293  0.8149  1.4512  0.2115
  163DOPC  H13Y19778   1.808   5.230   7.178  0.7589  0.5248  0.6739
  163DOPC  C31419779   1.670   5.062   7.216  0.8276 -0.8808 -0.1263
  163DOPC  H14X19780   1.745   4.981   7.208  0.5986 -1.1133  0.0529
  163DOPC  H14Y19781   1.601   5.039   7.300  0.3475  1.0791  0.0540
  163DOPC  C31519782   1.597   5.061   7.078  0.6666  0.5017  0.4733
  163DOPC  H15X19783   1.655   5.108   6.996 -2.3538  0.8846 -1.6253
  163DOPC  H15Y19784   1.500   5.113   7.090  0.2070 -0.6008  1.9786
  163DOPC  C31619785   1.558   4.916   7.022  0.2125 -0.1029  0.3730
  163DOPC  H16X19786   1.649   4.867   6.980 -1.5592 -1.2082 -2.4785
  163DOPC  H16Y19787   1.505   4.865   7.105 -2.0261  0.6283 -0.5464
  163DOPC  C31719788   1.449   4.935   6.918 -0.4203 -0.0467  0.2563
  163DOPC  H17X19789   1.430   5.040   6.888  0.9512  0.2771  0.4452
  163DOPC  H17Y19790   1.472   4.877   6.826 -2.1698 -2.4122  1.2304
  163DOPC  C31819791   1.306   4.891   6.965 -0.3738  0.0470 -0.6538
  163DOPC  H18X19792   1.281   4.942   7.060  0.4159 -2.1117  0.7868
  163DOPC  H18Y19793   1.227   4.905   6.888 -0.8795  0.6621 -0.0284
  163DOPC  H18Z19794   1.320   4.784   6.994  1.3007  0.4170 -0.0455
  164DOPC     N19795   1.066   2.846   9.002  0.5147  0.4643  0.6229
  164DOPC   C1219796   1.079   2.998   9.008 -0.2994  0.0773  0.5201
  164DOPC  H12A19797   0.998   3.031   9.072 -0.5919 -0.3862  0.3932
  164DOPC  H12B19798   1.058   3.014   8.903  1.1554 -2.8242 -0.3300
  164DOPC   C1319799   0.934   2.807   8.954 -0.0776 -0.0481 -0.2280
  164DOPC  H13A19800   0.930   2.703   8.928  1.8076 -0.3938  0.7332
  164DOPC  H13B19801   0.854   2.835   9.022  0.1557  2.2178 -0.7756
  164DOPC  H13C19802   0.899   2.851   8.862 -0.7726 -2.3095 -1.1083
  164DOPC   C1419803   1.084   2.772   9.138 -0.0529 -0.0076  0.3823
  164DOPC  H14A19804   1.023   2.683   9.142 -2.6048  1.5424 -1.3009
  164DOPC  H14B19805   1.189   2.753   9.153 -0.1671  0.5150  2.2058
  164DOPC  H14C19806   1.062   2.835   9.224 -3.5895  0.5583 -0.7810
  164DOPC   C1519807   1.163   2.784   8.902 -0.6249 -0.4552 -0.0791
  164DOPC  H15A19808   1.135   2.829   8.807  1.1545  0.9569  0.0008
  164DOPC  H15B19809   1.149   2.677   8.893  0.3203 -0.5311 -0.8256
  164DOPC  H15C19810   1.261   2.820   8.931 -0.2841 -0.9376 -0.6090
  164DOPC   C1119811   1.210   3.059   9.043  0.6811 -0.3098  0.3752
  164DOPC  H11A19812   1.194   3.168   9.055  1.9765 -0.2528  1.8582
  164DOPC  H11B19813   1.231   3.038   9.150 -1.1624 -2.2793  0.4016
  164DOPC     P19814   1.404   3.110   8.872 -0.3391  0.3592  0.2081
  164DOPC   O1319815   1.487   3.020   8.786  0.1974 -0.5661  0.3526
  164DOPC   O1419816   1.476   3.197   8.960 -0.2807 -0.3991  0.1920
  164DOPC   O1219817   1.317   3.016   8.961  0.0446  0.4275 -0.4680
  164DOPC   O1119818   1.301   3.183   8.781 -0.0075  0.3277  0.0698
  164DOPC    C119819   1.239   3.106   8.671 -0.5346 -0.2730  0.4286
  164DOPC    HA19820   1.132   3.135   8.679 -0.4483 -0.1327  1.1913
  164DOPC    HB19821   1.240   2.995   8.679 -1.8894 -0.6370 -2.9306
  164DOPC    C219822   1.293   3.147   8.532 -0.1734  0.2805  0.8869
  164DOPC    HS19823   1.390   3.095   8.516 -0.1246  0.2554  1.2606
  164DOPC   O2119824   1.300   3.293   8.530 -0.2027  0.3017  0.2387
  164DOPC   C2119825   1.364   3.339   8.426  0.6116  0.4871  0.3461
  164DOPC   O2219826   1.429   3.280   8.345 -0.3023 -0.7197  0.0171
  164DOPC   C2219827   1.344   3.491   8.431  0.2286  0.2055  0.8111
  164DOPC   H2R19828   1.351   3.527   8.536  0.0897  1.5196  0.3878
  164DOPC   H2S19829   1.237   3.499   8.404  0.2739  0.2635  0.6511
  164DOPC    C319830   1.204   3.088   8.421  0.3516  0.0129  0.2552
  164DOPC    HX19831   1.101   3.128   8.436  0.5380  0.0564  1.4999
  164DOPC    HY19832   1.182   2.979   8.419  2.2586 -0.4303  1.3903
  164DOPC   O3119833   1.232   3.121   8.288 -0.6093 -0.3780  0.4756
  164DOPC   C3119834   1.321   3.058   8.210 -0.2006 -0.2763 -0.2543
  164DOPC   O3219835   1.388   2.962   8.238 -0.0490  0.4230 -0.2778
  164DOPC   C3219836   1.331   3.130   8.081 -0.1578  0.1166 -0.6468
  164DOPC   H2X19837   1.247   3.201   8.064  0.2226  0.8230  0.3125
  164DOPC   H2Y19838   1.422   3.193   8.071 -0.2546  0.0427 -2.2953
  164DOPC   C2319839   1.428   3.580   8.334 -0.2768  0.0974 -0.3451
  164DOPC   H3R19840   1.537   3.566   8.346  0.3633  4.4481  0.9472
  164DOPC   H3S19841   1.393   3.682   8.363 -3.0804 -0.7733 -0.3203
  164DOPC   C2419842   1.392   3.557   8.185 -0.1753  0.3117 -0.1645
  164DOPC   H4R19843   1.284   3.562   8.161  0.0611  1.3493 -1.0642
  164DOPC   H4S19844   1.423   3.453   8.158 -1.3133 -0.4014  1.1505
  164DOPC   C2519845   1.469   3.659   8.094  0.0859 -0.4925 -0.3195
  164DOPC   H5R19846   1.575   3.628   8.080  0.7017  2.0407 -2.0081
  164DOPC   H5S19847   1.469   3.755   8.150  0.1923 -1.6897  1.8617
  164DOPC   C2619848   1.406   3.679   7.947  0.1190 -0.0650 -0.3171
  164DOPC   H6R19849   1.466   3.753   7.892 -0.0736 -0.1536 -0.6511
  164DOPC   H6S19850   1.299   3.699   7.968  0.6282  1.0330  1.4221
  164DOPC   C2719851   1.414   3.546   7.862  0.5399 -0.2582 -0.1153
  164DOPC   H7R19852   1.351   3.457   7.884 -0.0189  0.1380 -0.0804
  164DOPC   H7S19853   1.518   3.509   7.857  0.1336 -1.4503 -0.0147
  164DOPC   C2819854   1.373   3.577   7.718 -0.0570 -0.2521 -0.5018
  164DOPC   H8R19855   1.432   3.666   7.689 -1.1077  0.3478 -0.8715
  164DOPC   H8S19856   1.264   3.597   7.711 -0.2126 -1.2987 -1.4200
  164DOPC   C2919857   1.414   3.458   7.640 -0.0068 -0.2435 -0.2645
  164DOPC   H9R19858   1.492   3.394   7.686  0.4309  1.2813  1.2125
  164DOPC  C21019859   1.395   3.433   7.507  0.3745 -0.7605 -0.0700
  164DOPC  H10R19860   1.416   3.333   7.467 -1.9973 -0.1604 -3.3146
  164DOPC  C21119861   1.316   3.513   7.405 -0.4139  0.3753  0.4171
  164DOPC  H11R19862   1.329   3.623   7.421  3.1178  0.4978 -1.9801
  164DOPC  H11S19863   1.208   3.491   7.395 -0.3026 -0.2090  0.4866
  164DOPC  C21219864   1.374   3.502   7.265 -0.0111 -0.5546  0.0019
  164DOPC  H12R19865   1.334   3.415   7.208  2.2445 -0.1422 -2.4377
  164DOPC  H12S19866   1.485   3.510   7.262 -0.0418  0.7363  1.2609
  164DOPC  C21319867   1.310   3.607   7.173 -0.0655 -0.5181 -0.8019
  164DOPC  H13R19868   1.343   3.707   7.210  0.5709 -1.4925  1.4601
  164DOPC  H13S19869   1.200   3.596   7.184 -0.1200 -1.2630 -1.9577
  164DOPC  C21419870   1.354   3.589   7.023 -0.2973 -0.4747 -0.0059
  164DOPC  H14R19871   1.318   3.490   6.989 -0.6877 -0.9988  1.8342
  164DOPC  H14S19872   1.465   3.593   7.026 -0.2681 -0.0030 -1.1790
  164DOPC  C21519873   1.307   3.701   6.937  0.0590  0.4858  0.4413
  164DOPC  H15R19874   1.321   3.796   6.993 -0.4634  0.3490  0.8199
  164DOPC  H15S19875   1.196   3.695   6.931  0.1650 -0.6075 -1.0453
  164DOPC  C21619876   1.375   3.693   6.806 -0.5776 -0.1358  0.1614
  164DOPC  H16R19877   1.361   3.591   6.766 -1.8698  0.4249 -0.9000
  164DOPC  H16S19878   1.484   3.714   6.811 -0.8749  1.7240 -0.3839
  164DOPC  C21719879   1.327   3.793   6.702  0.4906  0.3547  0.0871
  164DOPC  H17R19880   1.346   3.895   6.741 -0.0309  0.6779 -0.4850
  164DOPC  H17S19881   1.218   3.784   6.682  0.8382 -1.4555 -1.2603
  164DOPC  C21819882   1.410   3.766   6.572 -0.6204  0.7531  0.7169
  164DOPC  H18R19883   1.351   3.699   6.506 -2.4417  1.4811  1.5285
  164DOPC  H18S19884   1.502   3.712   6.603  0.3830  1.4028 -0.9922
  164DOPC  H18T19885   1.435   3.862   6.521  0.3805  1.1539  1.8962
  164DOPC   C3319886   1.325   3.035   7.958 -0.0007  0.0395  0.6444
  164DOPC   H3X19887   1.241   2.964   7.964 -0.5799  0.5930 -0.5976
  164DOPC   H3Y19888   1.422   2.980   7.956  0.4793  0.8150 -2.3325
  164DOPC   C3419889   1.325   3.109   7.824  0.1394 -0.3277 -0.0384
  164DOPC   H4X19890   1.407   3.180   7.804 -1.4441  1.1059 -1.9327
  164DOPC   H4Y19891   1.227   3.160   7.813 -0.3613 -1.5047 -1.4913
  164DOPC   C3519892   1.338   3.013   7.701 -0.8077  0.4610 -0.0393
  164DOPC   H5X19893   1.310   2.908   7.723 -0.3121  0.2354 -0.4578
  164DOPC   H5Y19894   1.442   3.016   7.663 -0.7791 -1.3660 -0.1820
  164DOPC   C3619895   1.256   3.060   7.575  0.3473  0.3100 -0.1769
  164DOPC   H6X19896   1.152   3.059   7.613  0.8480  0.8723  1.2824
  164DOPC   H6Y19897   1.282   3.166   7.555 -1.7064  0.8639 -0.1641
  164DOPC   C3719898   1.291   2.969   7.453 -0.3731  0.7381 -0.3786
  164DOPC   H7X19899   1.389   3.007   7.419  0.2257 -0.6632 -0.2780
  164DOPC   H7Y19900   1.308   2.865   7.486  1.1228  1.7859  2.5028
  164DOPC   C3819901   1.187   2.988   7.342  0.6618  0.0880 -0.7388
  164DOPC   H8X19902   1.098   3.006   7.406  2.1784  2.0584  0.9468
  164DOPC   H8Y19903   1.180   2.889   7.291  0.6415 -2.6181  3.9842
  164DOPC   C3919904   1.187   3.103   7.253  0.6777 -0.0453  0.6049
  164DOPC   H9X19905   1.181   3.198   7.306 -1.7186  0.5488 -0.5905
  164DOPC  C31019906   1.208   3.104   7.122  0.2989  0.3756 -0.6845
  164DOPC  H10X19907   1.235   3.202   7.079 -0.2674  0.7011 -0.3186
  164DOPC  C31119908   1.210   2.985   7.029 -0.6167  0.8893  0.0853
  164DOPC  H11X19909   1.195   2.887   7.079  0.2850 -0.1023 -1.4872
  164DOPC  H11Y19910   1.309   2.971   6.980 -1.1768 -0.5751 -0.6670
  164DOPC  C31219911   1.102   2.992   6.921  0.9874  0.1098  0.3337
  164DOPC  H12X19912   1.120   2.926   6.834 -1.8724  0.5381 -0.6955
  164DOPC  H12Y19913   1.090   3.093   6.878 -3.0238 -0.7867 -1.1628
  164DOPC  C31319914   0.958   2.957   6.967  0.1168 -0.8523  0.2973
  164DOPC  H13X19915   0.958   2.852   7.002  1.6244 -0.3427  1.9858
  164DOPC  H13Y19916   0.944   3.018   7.059 -2.2230  2.6462 -2.1113
  164DOPC  C31419917   0.848   2.986   6.868 -0.4985 -0.3343 -0.8289
  164DOPC  H14X19918   0.841   3.097   6.858 -0.5447 -0.1557  0.8195
  164DOPC  H14Y19919   0.752   2.960   6.919  0.1208 -1.7153 -0.3210
  164DOPC  C31519920   0.861   2.905   6.743  0.7232 -0.0762  0.6029
  164DOPC  H15X19921   0.897   2.807   6.781  2.2304  0.5010  0.7286
  164DOPC  H15Y19922   0.931   2.954   6.672  1.0193 -1.9528 -0.4832
  164DOPC  C31619923   0.732   2.909   6.661 -0.8788 -0.3966  0.6593
  164DOPC  H16X19924   0.652   2.868   6.727 -2.5527  2.3323  0.4682
  164DOPC  H16Y19925   0.708   3.016   6.642  0.0797 -0.0764  1.1884
  164DOPC  C31719926   0.728   2.830   6.531 -0.2511  0.2250 -0.2893
  164DOPC  H17X19927   0.766   2.892   6.446  1.2886  0.6119  0.6486
  164DOPC  H17Y19928   0.789   2.737   6.538 -0.6214 -0.0361 -0.4851
  164DOPC  C31819929   0.584   2.795   6.495  0.1555  0.0902  0.0038
  164DOPC  H18X19930   0.589   2.742   6.398 -0.8399 -0.8309  0.4291
  164DOPC  H18Y19931   0.541   2.726   6.570  0.0950 -0.1847 -0.2799
  164DOPC  H18Z19932   0.525   2.885   6.465  1.9226  1.1546 -0.4366
  165DOPC     N19933   4.910   3.776   9.230 -0.8085  0.4091 -0.6184
  165DOPC   C1219934   4.890   3.845   9.096 -0.3092  0.5319 -0.2497
  165DOPC  H12A19935   4.792   3.888   9.089 -0.4541  0.3573  0.6130
  165DOPC  H12B19936   4.897   3.771   9.017  0.0565 -0.7302  0.9260
  165DOPC   C1319937   4.808   3.669   9.238 -0.5611 -0.3046  0.1543
  165DOPC  H13A19938   4.820   3.609   9.326 -0.9865 -0.9242 -0.2036
  165DOPC  H13B19939   4.712   3.715   9.254  0.6116  1.8169  1.6295
  165DOPC  H13C19940   4.799   3.600   9.155 -0.5783 -0.7827  0.5498
  165DOPC   C1419941   4.898   3.880   9.336 -0.1506  0.4660  0.8368
  165DOPC  H14A19942   4.900   3.839   9.436 -2.0845  0.0177  0.7262
  165DOPC  H14B19943   4.980   3.949   9.328 -0.1555  0.3120 -1.0260
  165DOPC  H14C19944   4.807   3.933   9.315  0.0350 -0.4321 -2.8961
  165DOPC   C1519945   5.050   3.716   9.235  0.4190  0.6995 -0.1351
  165DOPC  H15A19946   5.116   3.796   9.202  2.1100 -0.1973  0.9503
  165DOPC  H15B19947   5.054   3.635   9.164  1.0281  0.3128  0.3350
  165DOPC  H15C19948   5.087   3.683   9.330  0.6643 -0.2329 -0.5454
  165DOPC   C1119949   4.991   3.962   9.061 -0.6788  0.4766 -0.0269
  165DOPC  H11A19950   5.097   3.930   9.064  0.0271  1.9537 -3.6660
  165DOPC  H11B19951   4.969   3.996   8.957  1.6864  0.1170 -0.7029
  165DOPC     P19952   4.875   4.186   9.137 -0.6456 -0.4117 -0.2534
  165DOPC   O1319953   4.894   4.306   9.224  0.3412 -0.0084  0.2613
  165DOPC   O1419954   4.742   4.124   9.149  0.1172 -0.7433 -0.3081
  165DOPC   O1219955   4.990   4.081   9.148  0.2506 -0.1188 -0.4786
  165DOPC   O1119956   4.888   4.238   8.989  0.5562 -0.0400 -0.0968
  165DOPC    C119957   5.017   4.288   8.942 -0.3579 -0.3698  0.3149
  165DOPC    HA19958   5.100   4.220   8.972 -0.6897 -0.4400  1.0990
  165DOPC    HB19959   5.037   4.386   8.990  0.7354 -0.9552  1.0905
  165DOPC    C219960   5.017   4.300   8.788 -0.6323 -0.2068 -0.3938
  165DOPC    HS19961   5.105   4.354   8.748  0.2584  0.0446  1.7791
  165DOPC   O2119962   4.900   4.362   8.740 -0.0574 -0.6641 -0.2390
  165DOPC   C2119963   4.887   4.492   8.768  0.4890 -0.6372  0.2159
  165DOPC   O2219964   4.965   4.566   8.830  0.8522  0.3442 -0.0238
  165DOPC   C2219965   4.749   4.541   8.717  0.6644 -0.7760 -0.3256
  165DOPC   H2R19966   4.686   4.562   8.806 -0.0811  3.5142 -1.6304
  165DOPC   H2S19967   4.715   4.456   8.654 -0.5507  0.8608 -1.9852
  165DOPC    C319968   5.011   4.160   8.724  0.6090 -0.6618  0.5420
  165DOPC    HX19969   4.906   4.128   8.743  0.3849 -0.9486 -1.1071
  165DOPC    HY19970   5.059   4.087   8.793  2.0110  0.6974  1.0740
  165DOPC   O3119971   5.036   4.152   8.577 -0.3017 -0.2857 -0.6113
  165DOPC   C3119972   5.018   4.034   8.525  0.0913  0.6479 -0.3232
  165DOPC   O3219973   4.992   3.929   8.583 -0.0499  0.0803 -0.4676
  165DOPC   C3219974   5.035   4.039   8.369  0.1225  0.5549 -0.9226
  165DOPC   H2X19975   5.138   4.070   8.342  0.4589  0.5041  0.2175
  165DOPC   H2Y19976   5.013   3.937   8.331 -0.2627 -0.4745  1.7676
  165DOPC   C2319977   4.743   4.668   8.629 -0.1384  0.4263 -0.3034
  165DOPC   H3R19978   4.736   4.763   8.686 -3.2297 -1.3929  2.7243
  165DOPC   H3S19979   4.647   4.658   8.575 -0.5822  2.6014 -0.0075
  165DOPC   C2419980   4.858   4.666   8.517 -0.2604 -0.8616 -0.2639
  165DOPC   H4R19981   4.869   4.571   8.460 -1.0317 -1.6367  0.8126
  165DOPC   H4S19982   4.950   4.684   8.576 -1.0979 -0.7541  1.0553
  165DOPC   C2519983   4.850   4.771   8.405  0.7153  0.1911 -0.2687
  165DOPC   H5R19984   4.827   4.867   8.456  1.9603 -0.0467  0.7744
  165DOPC   H5S19985   4.776   4.754   8.324  0.8714 -0.4431 -0.2836
  165DOPC   C2619986   4.984   4.782   8.326 -0.2507 -0.2602 -0.3062
  165DOPC   H6R19987   5.050   4.802   8.413  0.7162  0.0166 -1.0914
  165DOPC   H6S19988   4.995   4.870   8.258 -0.0619  2.0357  2.5036
  165DOPC   C2719989   5.021   4.655   8.249  0.9062 -0.1895 -0.2973
  165DOPC   H7R19990   5.011   4.561   8.308  0.4912  0.4370  0.6420
  165DOPC   H7S19991   5.131   4.656   8.231  1.3489  2.5211  1.9586
  165DOPC   C2819992   4.941   4.658   8.114 -0.5367 -0.1852  0.4692
  165DOPC   H8R19993   4.981   4.739   8.049  1.3210 -2.8562 -1.9530
  165DOPC   H8S19994   4.835   4.664   8.144 -0.8386 -2.0803 -0.0865
  165DOPC   C2919995   4.967   4.533   8.034  0.0822 -0.1345 -0.0724
  165DOPC   H9R19996   4.903   4.447   8.061 -0.9471  0.3678 -0.8328
  165DOPC  C21019997   5.048   4.524   7.924 -0.2108 -0.1233 -0.4362
  165DOPC  H10R19998   5.055   4.431   7.865 -1.8387 -1.6221  1.6238
  165DOPC  C21119999   5.122   4.646   7.869  0.4759 -0.6302  0.0215
  165DOPC  H11R20000   5.216   4.610   7.822  1.2348 -1.1305  1.8297
  165DOPC  H11S20001   5.154   4.721   7.944 -0.4264  0.8769 -1.0471
  165DOPC  C21220002   5.022   4.709   7.761 -0.1257  0.1344  0.6580
  165DOPC  H12R20003   5.089   4.787   7.721  0.4212 -0.4413  0.4288
  165DOPC  H12S20004   4.928   4.753   7.800  0.1656  2.1455 -0.8124
  165DOPC  C21320005   4.986   4.618   7.645  0.2501  0.2922  0.2970
  165DOPC  H13R20006   4.925   4.536   7.687 -0.6940 -0.1795 -1.8946
  165DOPC  H13S20007   5.079   4.575   7.602 -0.2050  1.9345 -2.6535
  165DOPC  C21420008   4.920   4.693   7.526 -0.1069 -0.2551 -0.2798
  165DOPC  H14R20009   4.977   4.789   7.530 -0.1151 -0.2844  2.2243
  165DOPC  H14S20010   4.811   4.707   7.540 -0.1916 -1.0802 -0.0657
  165DOPC  C21520011   4.948   4.631   7.387  0.4369  0.0612 -1.0534
  165DOPC  H15R20012   4.907   4.528   7.392  0.2710  0.1424 -0.7050
  165DOPC  H15S20013   5.057   4.617   7.374  0.8144 -0.2760  1.8436
  165DOPC  C21620014   4.901   4.717   7.266  0.5024  0.3303 -0.0718
  165DOPC  H16R20015   4.964   4.809   7.269  2.7174 -1.1322  0.2789
  165DOPC  H16S20016   4.795   4.745   7.284  0.8774  1.5802  0.3646
  165DOPC  C21720017   4.895   4.632   7.139 -0.0986 -0.5887 -0.1559
  165DOPC  H17R20018   4.816   4.555   7.153 -1.4061  0.4828 -1.1919
  165DOPC  H17S20019   4.990   4.577   7.123  0.3047 -0.4288  1.5115
  165DOPC  C21820020   4.862   4.721   7.020 -0.1251  0.3578 -0.2483
  165DOPC  H18R20021   4.939   4.801   7.014 -0.8605  1.0453 -0.8389
  165DOPC  H18S20022   4.761   4.764   7.040 -0.5705 -0.1432 -1.3441
  165DOPC  H18T20023   4.848   4.663   6.926 -0.7292  0.5725 -0.2975
  165DOPC   C3320024   4.937   4.132   8.296  0.1068 -0.4026  0.4671
  165DOPC   H3X20025   4.991   4.184   8.214 -0.0944 -1.5439 -0.4190
  165DOPC   H3Y20026   4.912   4.222   8.356  1.5586  1.5468 -1.6575
  165DOPC   C3420027   4.806   4.057   8.253 -0.6287 -0.0120  0.6468
  165DOPC   H4X20028   4.728   4.132   8.226 -0.1813  0.8333  1.6354
  165DOPC   H4Y20029   4.766   3.995   8.336  1.7402 -1.5878  0.7064
  165DOPC   C3520030   4.823   3.987   8.115 -0.1185 -0.6948  0.0595
  165DOPC   H5X20031   4.721   3.964   8.079 -0.3163  1.6809 -1.1158
  165DOPC   H5Y20032   4.877   3.893   8.137 -0.1832 -0.6527  0.4002
  165DOPC   C3620033   4.884   4.074   8.002  0.1948  0.1437  0.3107
  165DOPC   H6X20034   4.833   4.173   7.993 -2.5229 -1.1924 -0.1288
  165DOPC   H6Y20035   4.992   4.090   8.022  0.3008 -1.2173  0.9284
  165DOPC   C3720036   4.866   4.010   7.866 -0.3571  0.7170 -0.8406
  165DOPC   H7X20037   4.758   4.007   7.840 -0.2677  0.5135 -1.2050
  165DOPC   H7Y20038   4.897   3.904   7.878 -0.7474  0.8734  2.2686
  165DOPC   C3820039   4.967   4.072   7.768  0.2897 -0.8333 -0.6496
  165DOPC   H8X20040   4.980   3.993   7.691  0.0639  0.5352 -2.1387
  165DOPC   H8Y20041   5.064   4.083   7.821  0.2920 -2.6720 -0.2097
  165DOPC   C3920042   4.912   4.200   7.711  0.0843  0.2076 -0.8095
  165DOPC   H9X20043   4.865   4.270   7.782 -0.2427 -1.1852  0.4100
  165DOPC  C31020044   4.917   4.239   7.583 -0.4022 -0.0805 -0.3638
  165DOPC  H10X20045   4.877   4.336   7.552 -1.0394 -0.7588 -1.7626
  165DOPC  C31120046   4.991   4.166   7.467 -0.2271  0.3260 -0.0981
  165DOPC  H11X20047   5.060   4.089   7.507 -2.8741 -1.7706  0.7488
  165DOPC  H11Y20048   5.043   4.230   7.394  1.5956 -2.2904 -1.2245
  165DOPC  C31220049   4.879   4.092   7.393  0.1803  0.0585  0.7101
  165DOPC  H12X20050   4.810   4.037   7.461 -1.9231  0.6108 -0.8475
  165DOPC  H12Y20051   4.934   4.016   7.334 -0.5467  0.3608 -0.3967
  165DOPC  C31320052   4.797   4.186   7.308  0.1231  0.5116  0.1397
  165DOPC  H13X20053   4.688   4.181   7.329 -0.0009  1.6338 -0.1386
  165DOPC  H13Y20054   4.844   4.285   7.327 -1.5022  1.5722 -1.0757
  165DOPC  C31420055   4.810   4.153   7.155 -0.6352  0.0598  0.5994
  165DOPC  H14X20056   4.916   4.176   7.133 -0.6502  0.4315  0.9201
  165DOPC  H14Y20057   4.802   4.042   7.144  3.3371 -0.2267 -1.0259
  165DOPC  C31520058   4.719   4.223   7.064  0.9840 -1.0329  0.2426
  165DOPC  H15X20059   4.735   4.332   7.074 -1.1714 -0.5025 -1.3056
  165DOPC  H15Y20060   4.611   4.210   7.087  0.9268  1.8952  2.1313
  165DOPC  C31620061   4.730   4.182   6.921  0.0700  0.0851  0.0215
  165DOPC  H16X20062   4.696   4.077   6.909 -0.9739  0.3497  0.5433
  165DOPC  H16Y20063   4.669   4.250   6.858 -1.7999  0.1540  1.7961
  165DOPC  C31720064   4.871   4.203   6.853  0.1725 -0.0394 -0.0219
  165DOPC  H17X20065   4.936   4.138   6.916  1.4091  0.8397 -0.3401
  165DOPC  H17Y20066   4.855   4.169   6.749 -2.7395  0.4746  0.1787
  165DOPC  C31820067   4.920   4.350   6.853  0.3380 -0.3888  0.0465
  165DOPC  H18X20068   4.841   4.417   6.814  0.5270  0.3319  0.8834
  165DOPC  H18Y20069   4.949   4.372   6.958  0.2168 -0.4583  0.0960
  165DOPC  H18Z20070   5.002   4.360   6.779  0.6741 -1.1184  0.3111
  166DOPC     N20071   0.759   5.131   9.725  0.0658  0.1764 -0.3317
  166DOPC   C1220072   0.823   5.083   9.596 -0.0232 -0.7569 -0.7250
  166DOPC  H12A20073   0.890   5.001   9.617  1.3483  0.3833 -0.4753
  166DOPC  H12B20074   0.878   5.164   9.550 -1.2106  0.4393 -0.1012
  166DOPC   C1320075   0.666   5.247   9.705  0.1724 -0.8059 -0.5348
  166DOPC  H13A20076   0.621   5.260   9.802  3.0317  2.7539  0.5395
  166DOPC  H13B20077   0.716   5.340   9.682  0.4774 -0.5699  0.9918
  166DOPC  H13C20078   0.593   5.226   9.628 -0.5022  0.7387 -0.3534
  166DOPC   C1420079   0.864   5.180   9.823 -0.4755 -0.1328  0.1909
  166DOPC  H14A20080   0.933   5.254   9.785 -0.7846  0.3643  0.5940
  166DOPC  H14B20081   0.827   5.225   9.914  1.6238  1.0613  0.5155
  166DOPC  H14C20082   0.928   5.098   9.853  1.6077  1.4811  0.3977
  166DOPC   C1520083   0.688   5.017   9.789  0.5635  0.1989  0.5197
  166DOPC  H15A20084   0.666   5.026   9.894 -0.2252 -1.1359  0.4890
  166DOPC  H15B20085   0.750   4.929   9.777 -0.5422 -0.4841 -0.4842
  166DOPC  H15C20086   0.595   4.989   9.741 -0.0379  0.7874  1.3124
  166DOPC   C1120087   0.721   5.031   9.489 -0.2362  0.0611  0.2923
  166DOPC  H11A20088   0.775   4.963   9.420  0.1037 -0.6669  1.2544
  166DOPC  H11B20089   0.647   4.966   9.541 -0.4557  0.1119  0.0402
  166DOPC     P20090   0.707   5.230   9.318  0.5441 -0.0861  0.0098
  166DOPC   O1320091   0.838   5.280   9.372  0.1428  0.1990 -0.0227
  166DOPC   O1420092   0.598   5.324   9.292  0.0059  0.1231  0.3487
  166DOPC   O1220093   0.642   5.127   9.419 -0.3800  0.6440  0.7225
  166DOPC   O1120094   0.732   5.143   9.188  0.2162  0.2013  0.0546
  166DOPC    C120095   0.639   5.051   9.135 -0.0368 -0.0258  0.0527
  166DOPC    HA20096   0.537   5.071   9.175  0.6571 -2.1195  3.2246
  166DOPC    HB20097   0.669   4.949   9.168 -1.3501 -1.2874 -2.4188
  166DOPC    C220098   0.633   5.073   8.975  0.5207 -0.8730 -0.2896
  166DOPC    HS20099   0.550   5.010   8.936  0.1152 -0.5144 -0.0129
  166DOPC   O2120100   0.759   5.034   8.924 -0.5223 -0.3049  0.2529
  166DOPC   C2120101   0.761   4.998   8.796 -0.0633 -0.5677 -0.1384
  166DOPC   O2220102   0.664   5.001   8.724  0.1738 -0.2707  0.6307
  166DOPC   C2220103   0.901   4.944   8.759 -0.6366 -0.1465 -0.0278
  166DOPC   H2R20104   0.921   4.848   8.812  0.0396 -0.3454 -0.6331
  166DOPC   H2S20105   0.977   5.014   8.799  0.2214 -0.1117 -1.6350
  166DOPC    C320106   0.612   5.230   8.943 -0.5531 -0.2448  0.0482
  166DOPC    HX20107   0.683   5.290   9.004  0.6641  0.5064 -1.9853
  166DOPC    HY20108   0.515   5.270   8.978  1.1632  2.6214  1.9431
  166DOPC   O3120109   0.630   5.268   8.803 -0.2262 -0.6046 -0.3150
  166DOPC   C3120110   0.529   5.251   8.721 -0.4159  0.8033 -0.1825
  166DOPC   O3220111   0.413   5.220   8.752  0.0323 -0.6607  0.1298
  166DOPC   C3220112   0.574   5.302   8.582  0.9038  0.0350 -0.5210
  166DOPC   H2X20113   0.513   5.392   8.559 -0.6966 -0.9497 -0.3043
  166DOPC   H2Y20114   0.679   5.336   8.567  0.7123  1.4556  1.0808
  166DOPC   C2320115   0.911   4.929   8.607 -0.3084 -0.0556 -0.3003
  166DOPC   H3R20116   0.903   5.029   8.558 -0.8139 -0.6971 -1.5744
  166DOPC   H3S20117   0.826   4.870   8.566 -1.3060  0.4207  1.0322
  166DOPC   C2420118   1.039   4.858   8.560 -0.2729  0.1897  0.1800
  166DOPC   H4R20119   1.050   4.772   8.629  0.4342  0.9979  1.1143
  166DOPC   H4S20120   1.124   4.927   8.575 -1.0518  1.0254  0.9227
  166DOPC   C2520121   1.029   4.814   8.420 -0.2206  0.8293 -0.2915
  166DOPC   H5R20122   0.945   4.742   8.419 -0.0866  0.6554  0.5380
  166DOPC   H5S20123   1.120   4.753   8.401 -0.6827 -0.1084  0.3714
  166DOPC   C2620124   1.013   4.926   8.318 -0.9501 -0.5032 -0.6409
  166DOPC   H6R20125   1.084   5.008   8.342  1.1973 -2.4059 -0.0590
  166DOPC   H6S20126   0.910   4.964   8.336 -0.0617  0.8020  2.4140
  166DOPC   C2720127   1.048   4.869   8.183  0.2426  0.3035 -0.3283
  166DOPC   H7R20128   0.988   4.778   8.164  1.0956 -0.4158  0.3274
  166DOPC   H7S20129   1.153   4.835   8.198 -0.1450 -1.2603 -1.0611
  166DOPC   C2820130   1.030   4.971   8.064  0.1307 -0.5074  0.7069
  166DOPC   H8R20131   1.077   4.923   7.975 -1.5387 -0.5971 -0.1644
  166DOPC   H8S20132   1.083   5.064   8.095 -1.8122  0.4087  1.4423
  166DOPC   C2920133   0.892   5.005   8.021 -0.3658 -0.0496 -0.1726
  166DOPC   H9R20134   0.825   5.054   8.095 -0.2076 -1.2463  0.8034
  166DOPC  C21020135   0.823   4.956   7.923 -0.4154 -0.0266 -0.2561
  166DOPC  H10R20136   0.721   4.997   7.919 -0.4020 -0.0852 -1.2102
  166DOPC  C21120137   0.856   4.845   7.825  0.0003  0.0311 -0.0136
  166DOPC  H11R20138   0.790   4.755   7.830  1.2374 -0.8942  0.0477
  166DOPC  H11S20139   0.956   4.804   7.849 -0.8647 -0.6781  2.8664
  166DOPC  C21220140   0.867   4.895   7.679 -0.1151  0.2261 -0.2329
  166DOPC  H12R20141   0.956   4.962   7.676  0.1461  0.0283  1.7268
  166DOPC  H12S20142   0.769   4.944   7.664 -0.7142 -1.0933 -0.7784
  166DOPC  C21320143   0.894   4.780   7.574 -0.1019 -0.7294 -0.4097
  166DOPC  H13R20144   0.807   4.712   7.583  0.8848 -1.9544  0.1917
  166DOPC  H13S20145   0.993   4.735   7.597  1.8856  3.4549  0.0587
  166DOPC  C21420146   0.907   4.826   7.430  0.1667 -0.2257  0.7216
  166DOPC  H14R20147   1.002   4.884   7.428  0.4580 -0.4610  3.5547
  166DOPC  H14S20148   0.818   4.886   7.402 -1.2209 -3.3497 -2.2062
  166DOPC  C21520149   0.911   4.708   7.332 -0.1775  0.3548 -0.2752
  166DOPC  H15R20150   0.825   4.638   7.341  0.7719 -0.7879  0.2530
  166DOPC  H15S20151   1.001   4.657   7.372 -1.8034 -1.5252  1.1739
  166DOPC  C21620152   0.921   4.757   7.190 -0.3250  0.6418  0.3491
  166DOPC  H16R20153   0.997   4.836   7.177  1.5861 -1.3539 -1.4821
  166DOPC  H16S20154   0.819   4.787   7.157 -1.0396 -1.6718  0.2947
  166DOPC  C21720155   0.953   4.655   7.076  0.3822 -0.1693  0.0981
  166DOPC  H17R20156   0.890   4.564   7.092  0.8423 -0.6532 -0.7811
  166DOPC  H17S20157   1.056   4.615   7.084  0.1968 -0.9721 -1.2244
  166DOPC  C21820158   0.930   4.708   6.935 -0.2542  0.3395  0.1176
  166DOPC  H18R20159   0.822   4.704   6.912 -0.7773 -1.4909  2.4649
  166DOPC  H18S20160   0.977   4.631   6.871 -0.5849  1.3281 -1.3583
  166DOPC  H18T20161   0.979   4.801   6.900  2.5965 -1.6363 -1.5353
  166DOPC   C3320162   0.531   5.200   8.480 -0.2446  0.1197  0.1039
  166DOPC   H3X20163   0.427   5.161   8.483 -0.2387 -0.2488 -2.4007
  166DOPC   H3Y20164   0.590   5.106   8.488 -2.8094 -1.5276  0.6323
  166DOPC   C3420165   0.548   5.271   8.344  0.2513 -0.1085  0.5306
  166DOPC   H4X20166   0.651   5.312   8.333 -0.6094  1.8434 -0.7042
  166DOPC   H4Y20167   0.488   5.364   8.338  2.5189  1.3866 -0.5041
  166DOPC   C3520168   0.513   5.175   8.229 -0.8039 -0.1350 -0.2236
  166DOPC   H5X20169   0.415   5.126   8.250 -0.8008  0.4129  1.1957
  166DOPC   H5Y20170   0.597   5.102   8.226 -0.5696  0.0893  0.5558
  166DOPC   C3620171   0.504   5.246   8.092  0.2745  0.2282 -0.1568
  166DOPC   H6X20172   0.402   5.290   8.098 -0.5613 -1.7119  4.4231
  166DOPC   H6Y20173   0.590   5.316   8.090 -0.8341  1.6495  0.0867
  166DOPC   C3720174   0.512   5.149   7.973  0.2650  0.2066 -0.3941
  166DOPC   H7X20175   0.613   5.110   7.999  0.5452  1.4859  0.5207
  166DOPC   H7Y20176   0.443   5.062   7.973 -0.4050  0.7195  0.5716
  166DOPC   C3820177   0.501   5.221   7.834  0.8857  0.5131 -0.1571
  166DOPC   H8X20178   0.405   5.277   7.842  1.3193  1.0521  1.7915
  166DOPC   H8Y20179   0.481   5.154   7.747 -0.5350  0.5950  0.0918
  166DOPC   C3920180   0.604   5.326   7.808  0.5023 -0.3941 -0.0360
  166DOPC   H9X20181   0.610   5.400   7.889 -2.8858  0.9993 -0.8645
  166DOPC  C31020182   0.690   5.322   7.704 -0.7729 -0.3388 -0.3505
  166DOPC  H10X20183   0.744   5.417   7.688 -1.6458  0.2680  0.2582
  166DOPC  C31120184   0.691   5.219   7.595 -0.9898 -0.3992  0.1146
  166DOPC  H11X20185   0.623   5.133   7.612 -1.5367  0.2850  1.5372
  166DOPC  H11Y20186   0.793   5.175   7.595 -1.3146 -1.1800  1.1892
  166DOPC  C31220187   0.686   5.274   7.451  0.3876  0.3174 -0.3458
  166DOPC  H12X20188   0.707   5.189   7.383  0.8500  0.7235 -0.7145
  166DOPC  H12Y20189   0.764   5.351   7.438 -0.2910  0.6106 -3.2693
  166DOPC  C31320190   0.541   5.335   7.416  0.0015 -0.2219  0.8195
  166DOPC  H13X20191   0.484   5.239   7.412  1.6051 -1.1587 -1.9191
  166DOPC  H13Y20192   0.496   5.393   7.499 -0.2774 -0.0144  0.5287
  166DOPC  C31420193   0.544   5.411   7.293 -0.5843 -1.0199  0.4736
  166DOPC  H14X20194   0.450   5.468   7.274  0.3097  0.9094  1.5665
  166DOPC  H14Y20195   0.629   5.482   7.298  0.2650 -1.8678 -1.2869
  166DOPC  C31520196   0.572   5.335   7.160 -0.1271  0.0243 -0.2810
  166DOPC  H15X20197   0.507   5.246   7.150 -1.9824  1.3253 -0.2254
  166DOPC  H15Y20198   0.676   5.299   7.179 -0.1760  0.6697  1.4351
  166DOPC  C31620199   0.566   5.422   7.033 -0.7387 -0.5854  0.6330
  166DOPC  H16X20200   0.478   5.490   7.027  1.3737  2.1672 -2.6110
  166DOPC  H16Y20201   0.649   5.494   7.027 -1.4968  0.3016  0.5435
  166DOPC  C31720202   0.567   5.346   6.901  0.8449 -0.3092  0.0087
  166DOPC  H17X20203   0.660   5.286   6.898  1.1589  0.2156 -1.2109
  166DOPC  H17Y20204   0.475   5.283   6.893 -0.0832  1.1061 -0.8237
  166DOPC  C31820205   0.571   5.440   6.790  0.6541 -0.4383 -0.0639
  166DOPC  H18X20206   0.563   5.385   6.694  1.3359 -0.3237 -0.1937
  166DOPC  H18Y20207   0.481   5.504   6.799  1.1331  0.1067  0.9873
  166DOPC  H18Z20208   0.663   5.503   6.790  1.3568 -1.4224  0.7495
  167DOPC     N20209   6.376   4.066   9.445 -0.1048  0.0412 -0.4635
  167DOPC   C1220210   6.386   3.919   9.388 -0.4236  0.3496 -0.4324
  167DOPC  H12A20211   6.370   3.851   9.470  1.0154  1.4391  0.8103
  167DOPC  H12B20212   6.481   3.915   9.336 -0.7708 -1.4009 -1.0086
  167DOPC   C1320213   6.462   4.078   9.561 -0.7669  0.6363 -0.8497
  167DOPC  H13A20214   6.561   4.036   9.551 -1.3727 -1.0048 -0.1824
  167DOPC  H13B20215   6.475   4.178   9.601 -0.8397  0.1108  0.5314
  167DOPC  H13C20216   6.426   4.021   9.645  2.2517 -0.0366  0.1347
  167DOPC   C1420217   6.239   4.106   9.484 -0.4087  0.0281  0.0808
  167DOPC  H14A20218   6.177   4.127   9.398 -1.3535 -0.6334  0.5704
  167DOPC  H14B20219   6.191   4.027   9.540 -0.2732 -0.6645 -0.7604
  167DOPC  H14C20220   6.236   4.201   9.535 -0.7763  0.5140 -0.8125
  167DOPC   C1520221   6.421   4.156   9.340 -0.8819 -0.2939  0.0408
  167DOPC  H15A20222   6.451   4.253   9.375  1.8994 -0.6898 -1.0046
  167DOPC  H15B20223   6.354   4.165   9.256 -2.0168  2.1082  1.1140
  167DOPC  H15C20224   6.511   4.113   9.299 -2.7544 -1.9612 -2.6632
  167DOPC   C1120225   6.278   3.878   9.283 -0.1940  0.0002  0.8769
  167DOPC  H11A20226   6.299   3.773   9.253 -1.1651  0.4677 -1.6237
  167DOPC  H11B20227   6.178   3.863   9.330 -0.6589 -0.2157 -0.1696
  167DOPC     P20228   6.153   4.042   9.122  0.2520 -0.2364 -0.0382
  167DOPC   O1320229   6.207   4.144   9.033  0.5975 -0.7199 -0.2885
  167DOPC   O1420230   6.070   4.086   9.232 -0.4693  0.4537  0.2311
  167DOPC   O1220231   6.278   3.966   9.168 -0.2685 -0.4765  0.3337
  167DOPC   O1120232   6.058   3.938   9.045 -0.2489  0.0414 -0.5981
  167DOPC    C120233   6.108   3.840   8.958  0.6596  0.6120  0.0014
  167DOPC    HA20234   6.022   3.772   8.940 -1.5119  3.6009 -1.9616
  167DOPC    HB20235   6.187   3.779   9.005 -0.3060  1.0966  2.4227
  167DOPC    C220236   6.160   3.896   8.819  0.7102  0.0242 -0.2299
  167DOPC    HS20237   6.247   3.961   8.838  2.7966 -1.8524 -2.6226
  167DOPC   O2120238   6.054   3.970   8.753 -0.9171  0.5188 -0.0241
  167DOPC   C2120239   6.086   4.079   8.690 -0.2160  0.2976 -0.1414
  167DOPC   O2220240   6.194   4.129   8.672 -0.2651  0.0324 -0.2832
  167DOPC   C2220241   5.964   4.135   8.620  0.0840 -0.0104 -0.8979
  167DOPC   H2R20242   6.004   4.238   8.610 -2.4630  1.0712 -0.7753
  167DOPC   H2S20243   5.874   4.143   8.685  0.4076 -1.4052 -0.2485
  167DOPC    C320244   6.201   3.783   8.719  0.0314 -0.3722 -0.1094
  167DOPC    HX20245   6.113   3.722   8.691  0.9726 -1.8011 -0.0549
  167DOPC    HY20246   6.277   3.715   8.764  1.6557  2.0608  1.0680
  167DOPC   O3120247   6.252   3.834   8.591  0.2072  0.2912  0.7394
  167DOPC   C3120248   6.363   3.894   8.603  0.2989 -0.8589  1.1355
  167DOPC   O3220249   6.441   3.906   8.696  0.2838  0.3034  0.3184
  167DOPC   C3220250   6.393   3.943   8.457  0.0104  0.0826  0.3663
  167DOPC   H2X20251   6.377   3.862   8.383 -0.6534  1.0752 -0.5972
  167DOPC   H2Y20252   6.314   4.018   8.441 -3.1446 -2.7893  1.3359
  167DOPC   C2320253   5.948   4.074   8.478 -0.3421 -0.2350 -0.0737
  167DOPC   H3R20254   5.907   3.971   8.488 -0.1958 -0.1056  2.9721
  167DOPC   H3S20255   6.046   4.059   8.429 -0.7397 -2.7139 -0.2455
  167DOPC   C2420256   5.862   4.161   8.379 -0.0416 -0.1699 -0.0835
  167DOPC   H4R20257   5.901   4.263   8.361 -0.5609  0.3246  1.4978
  167DOPC   H4S20258   5.763   4.169   8.428 -0.2026  0.2341 -0.4666
  167DOPC   C2520259   5.845   4.097   8.239 -0.1081 -0.8956 -0.7953
  167DOPC   H5R20260   5.813   3.991   8.235 -0.6301 -0.7809  0.1511
  167DOPC   H5S20261   5.942   4.107   8.185  0.0219  1.5452 -0.2462
  167DOPC   C2620262   5.749   4.182   8.146 -0.4386  0.4590 -0.2866
  167DOPC   H6R20263   5.805   4.273   8.114  0.2778 -0.3737 -1.4556
  167DOPC   H6S20264   5.662   4.232   8.193  1.2887  2.6383  0.8187
  167DOPC   C2720265   5.709   4.097   8.027 -0.4382  0.4644  0.2125
  167DOPC   H7R20266   5.618   4.137   7.978  1.9231  1.2107 -4.0930
  167DOPC   H7S20267   5.682   3.998   8.070  0.5699 -0.0954 -0.4004
  167DOPC   C2820268   5.825   4.076   7.921 -1.0164  0.3258  0.3244
  167DOPC   H8R20269   5.812   3.985   7.858 -3.6986  0.9949 -0.1999
  167DOPC   H8S20270   5.925   4.061   7.967  0.4230  2.1914 -1.9521
  167DOPC   C2920271   5.844   4.190   7.821  0.1695  0.0887 -0.2955
  167DOPC   H9R20272   5.900   4.277   7.858  1.5144 -0.8955  0.0442
  167DOPC  C21020273   5.820   4.185   7.688  0.0616 -0.0279 -0.3988
  167DOPC  H10R20274   5.821   4.277   7.628 -2.6739  0.0036 -0.5313
  167DOPC  C21120275   5.757   4.066   7.621 -0.1684 -0.0106  0.4057
  167DOPC  H11R20276   5.650   4.043   7.641 -0.4607  0.9357 -0.0208
  167DOPC  H11S20277   5.806   3.975   7.663  0.9470  0.3208 -0.1346
  167DOPC  C21220278   5.779   4.050   7.470 -0.2950  0.5359 -0.2989
  167DOPC  H12R20279   5.889   4.048   7.452 -0.3247 -1.6675 -0.5040
  167DOPC  H12S20280   5.751   3.945   7.448  0.7391  0.2457 -0.3061
  167DOPC  C21320281   5.714   4.159   7.386 -0.1994 -0.3949 -0.2437
  167DOPC  H13R20282   5.724   4.262   7.427 -1.0861 -1.0765  1.8247
  167DOPC  H13S20283   5.604   4.143   7.394  0.0447 -2.7512 -0.8097
  167DOPC  C21420284   5.766   4.160   7.236 -0.6695  0.3109  0.5297
  167DOPC  H14R20285   5.875   4.178   7.229 -0.2360 -2.6381 -3.0498
  167DOPC  H14S20286   5.730   4.250   7.181  0.1565  0.9019  0.9310
  167DOPC  C21520287   5.721   4.040   7.141 -0.4116 -0.4628 -0.4486
  167DOPC  H15R20288   5.613   4.021   7.162 -0.5402 -0.5047 -1.1264
  167DOPC  H15S20289   5.773   3.944   7.163 -0.1510  0.1695  1.9833
  167DOPC  C21620290   5.733   4.070   6.984  0.0836 -0.6941  0.1134
  167DOPC  H16R20291   5.836   4.103   6.960 -0.5577  1.0570 -0.4031
  167DOPC  H16S20292   5.665   4.154   6.957  2.5406  0.6372 -2.4024
  167DOPC  C21720293   5.700   3.951   6.895  0.2354  0.1560 -0.1631
  167DOPC  H17R20294   5.605   3.907   6.933  1.0385 -1.4521  0.0875
  167DOPC  H17S20295   5.778   3.873   6.910  0.1889  0.3386  1.1563
  167DOPC  C21820296   5.692   3.979   6.740 -0.0046 -0.4446  0.0219
  167DOPC  H18R20297   5.775   4.042   6.700 -2.4550  2.7680 -0.4124
  167DOPC  H18S20298   5.598   4.036   6.729  0.1082  0.5409  3.2202
  167DOPC  H18T20299   5.701   3.882   6.687  1.0232 -0.2127 -0.2583
  167DOPC   C3320300   6.536   3.988   8.446 -0.2510 -0.2881 -0.5985
  167DOPC   H3X20301   6.600   3.902   8.474  0.4322 -0.0369 -1.3101
  167DOPC   H3Y20302   6.563   4.067   8.519  0.6953  1.4267 -2.6670
  167DOPC   C3420303   6.583   4.055   8.315  0.1062  0.2298  0.9432
  167DOPC   H4X20304   6.693   4.066   8.324  0.3310 -1.1944  0.1693
  167DOPC   H4Y20305   6.540   4.157   8.301  0.4234  0.1528 -0.8332
  167DOPC   C3520306   6.544   3.982   8.189  0.7728 -0.0125 -0.5860
  167DOPC   H5X20307   6.434   3.971   8.181  0.9296 -1.4218 -1.0651
  167DOPC   H5Y20308   6.588   3.881   8.198 -0.9125 -0.5823  2.7629
  167DOPC   C3620309   6.588   4.053   8.062 -0.5865 -0.0165 -0.0023
  167DOPC   H6X20310   6.566   4.161   8.072 -1.7636 -0.1700 -0.7932
  167DOPC   H6Y20311   6.698   4.044   8.044 -0.9387 -1.0678 -1.8820
  167DOPC   C3720312   6.519   3.999   7.935  0.7603  0.1675  0.0295
  167DOPC   H7X20313   6.513   3.888   7.932  2.8844  0.0172 -2.4203
  167DOPC   H7Y20314   6.413   4.032   7.941 -0.5258 -3.5647  0.6595
  167DOPC   C3820315   6.583   4.072   7.812  0.2083  0.2847  0.5217
  167DOPC   H8X20316   6.690   4.043   7.808  0.1534  0.1734 -0.4000
  167DOPC   H8Y20317   6.581   4.182   7.828 -1.3680  0.2613  0.6631
  167DOPC   C3920318   6.505   4.059   7.681  0.6899  0.4928 -0.2425
  167DOPC   H9X20319   6.401   4.025   7.695  1.3074 -1.3282  0.1932
  167DOPC  C31020320   6.538   4.107   7.558 -0.0938 -0.0316  0.0592
  167DOPC  H10X20321   6.473   4.078   7.474  0.7363  1.4098 -1.1339
  167DOPC  C31120322   6.665   4.180   7.536  0.2418 -0.0689  0.2272
  167DOPC  H11X20323   6.747   4.156   7.607 -1.0171 -3.4442  0.7365
  167DOPC  H11Y20324   6.637   4.287   7.542 -0.9653 -0.4160  1.3749
  167DOPC  C31220325   6.738   4.162   7.396 -0.4527 -0.1484 -0.6434
  167DOPC  H12X20326   6.783   4.060   7.393  0.2805  0.1321  0.1739
  167DOPC  H12Y20327   6.825   4.230   7.402 -1.4944  1.2039 -0.5155
  167DOPC  C31320328   6.644   4.204   7.279  0.0897  0.0599  0.3300
  167DOPC  H13X20329   6.548   4.148   7.289  0.8804 -1.3662  0.1518
  167DOPC  H13Y20330   6.621   4.312   7.283 -1.9135 -0.3678  2.0146
  167DOPC  C31420331   6.702   4.156   7.148  0.4219 -0.1177  0.4922
  167DOPC  H14X20332   6.791   4.220   7.133 -0.5950  0.9671 -1.4361
  167DOPC  H14Y20333   6.731   4.050   7.160 -0.4952 -0.3919  0.4050
  167DOPC  C31520334   6.606   4.155   7.026 -0.1390 -0.5143  0.1877
  167DOPC  H15X20335   6.551   4.251   7.034  1.0970  0.1453  1.3700
  167DOPC  H15Y20336   6.530   4.074   7.035 -0.1692 -0.6501 -1.1104
  167DOPC  C31620337   6.664   4.136   6.891 -0.7297  0.2413 -0.2394
  167DOPC  H16X20338   6.743   4.214   6.895 -1.1518  0.7494 -1.3765
  167DOPC  H16Y20339   6.707   4.035   6.877  2.3044  1.6832 -2.3402
  167DOPC  C31720340   6.566   4.168   6.783  0.5274 -0.2215 -0.0229
  167DOPC  H17X20341   6.473   4.120   6.819  1.5570 -0.5747  2.3054
  167DOPC  H17Y20342   6.552   4.278   6.790 -0.1620 -0.2472 -0.8362
  167DOPC  C31820343   6.593   4.130   6.638  0.2366 -0.3921  0.0805
  167DOPC  H18X20344   6.689   4.176   6.606  0.1966  0.0211  0.5464
  167DOPC  H18Y20345   6.596   4.019   6.631  1.1657 -0.4579  1.1818
  167DOPC  H18Z20346   6.513   4.161   6.567  0.8458  1.8806  0.3344
  168DOPC     N20347   2.962   2.558   8.316  0.2925  0.2555 -0.0139
  168DOPC   C1220348   3.003   2.463   8.431 -0.2601  0.0279 -0.7350
  168DOPC  H12A20349   3.023   2.523   8.519 -2.1766 -1.8953  1.1699
  168DOPC  H12B20350   3.099   2.417   8.412  0.3876 -0.4356  2.9186
  168DOPC   C1320351   2.954   2.478   8.186 -0.4742 -0.0897 -0.6899
  168DOPC  H13A20352   3.050   2.450   8.145 -0.5250 -0.9767 -0.2312
  168DOPC  H13B20353   2.895   2.388   8.196  0.5119 -0.6339  0.5453
  168DOPC  H13C20354   2.900   2.535   8.113 -1.2554  0.5420  0.3614
  168DOPC   C1420355   3.065   2.663   8.302 -0.2514 -0.0535  0.0898
  168DOPC  H14A20356   3.033   2.743   8.237  1.2086 -1.1613 -2.0869
  168DOPC  H14B20357   3.087   2.702   8.400 -1.0030  0.2690  0.1393
  168DOPC  H14C20358   3.153   2.618   8.259 -1.1447 -0.3628 -1.4818
  168DOPC   C1520359   2.835   2.631   8.339 -0.0774  0.5935 -0.0807
  168DOPC  H15A20360   2.840   2.682   8.434 -1.2498 -2.9643  2.0741
  168DOPC  H15B20361   2.748   2.569   8.330  0.1515  0.4049 -1.1531
  168DOPC  H15C20362   2.821   2.711   8.267  0.7178  1.1474  0.3657
  168DOPC   C1120363   2.914   2.340   8.453  0.1416  0.0432 -0.4911
  168DOPC  H11A20364   2.921   2.272   8.365  0.4362  0.2725 -0.6489
  168DOPC  H11B20365   2.955   2.279   8.537  0.9110  1.6552  0.3669
  168DOPC     P20366   2.658   2.276   8.484  0.0842 -0.1178 -0.2436
  168DOPC   O1320367   2.528   2.337   8.500 -0.1698 -0.2000 -0.4217
  168DOPC   O1420368   2.688   2.176   8.584  0.3034  0.3485 -0.1202
  168DOPC   O1220369   2.777   2.385   8.480  0.2393  0.8881 -0.3382
  168DOPC   O1120370   2.664   2.208   8.343  0.2744 -0.7206 -0.1512
  168DOPC    C120371   2.612   2.284   8.231 -0.0175 -0.1306  0.8051
  168DOPC    HA20372   2.684   2.278   8.146  0.5774 -3.3608  1.3789
  168DOPC    HB20373   2.586   2.388   8.256  1.1400 -0.0383  1.7417
  168DOPC    C220374   2.484   2.208   8.179  1.0993 -0.9273  1.0220
  168DOPC    HS20375   2.425   2.188   8.271  0.5896  1.5223  1.2915
  168DOPC   O2120376   2.526   2.088   8.117 -0.0908  0.0398 -0.0585
  168DOPC   C2120377   2.428   1.991   8.107 -0.0012 -0.8477  0.0456
  168DOPC   O2220378   2.315   2.003   8.154  0.3954 -0.2097  0.0165
  168DOPC   C2220379   2.472   1.871   8.038 -0.2003  0.3480 -0.1023
  168DOPC   H2R20380   2.456   1.783   8.104  1.1118  1.2727  1.5375
  168DOPC   H2S20381   2.582   1.873   8.023 -0.2413 -0.1845 -0.4945
  168DOPC    C320382   2.400   2.298   8.076 -0.5642  0.6113  0.2970
  168DOPC    HX20383   2.396   2.398   8.124  1.1150  0.9953 -0.2899
  168DOPC    HY20384   2.297   2.258   8.071 -0.3317 -0.5721  2.9219
  168DOPC   O3120385   2.450   2.309   7.943 -0.1813  0.4379  0.0945
  168DOPC   C3120386   2.477   2.423   7.890  0.1788  0.0533  0.1446
  168DOPC   O3220387   2.457   2.531   7.939 -0.0823 -0.1498 -0.4308
  168DOPC   C3220388   2.528   2.403   7.751 -1.0034 -0.7183  0.3296
  168DOPC   H2X20389   2.637   2.422   7.757 -0.3200 -2.1109 -3.9345
  168DOPC   H2Y20390   2.520   2.296   7.721  1.0085 -0.3655 -1.7190
  168DOPC   C2320391   2.403   1.853   7.899  0.1881  0.3710  0.0752
  168DOPC   H3R20392   2.294   1.869   7.910  0.1007 -0.2557  0.1908
  168DOPC   H3S20393   2.411   1.746   7.871 -2.4458  0.3970 -1.0939
  168DOPC   C2420394   2.454   1.944   7.779  0.7792  0.3804 -0.0067
  168DOPC   H4R20395   2.559   1.913   7.757  0.7768  1.3011 -1.4456
  168DOPC   H4S20396   2.461   2.051   7.810 -1.0596  0.4757  0.1501
  168DOPC   C2520397   2.377   1.939   7.652 -0.1963  0.7850 -0.2242
  168DOPC   H5R20398   2.267   1.943   7.666 -0.0470  2.0388  0.6629
  168DOPC   H5S20399   2.379   1.837   7.606 -0.4166  0.5493  0.2827
  168DOPC   C2620400   2.423   2.042   7.546  0.7771 -0.5385  0.5279
  168DOPC   H6R20401   2.528   2.031   7.512  0.3616  0.6164 -1.2785
  168DOPC   H6S20402   2.413   2.147   7.579 -1.7272 -1.0070  1.5048
  168DOPC   C2720403   2.335   2.022   7.422 -0.3144  0.3824  0.9661
  168DOPC   H7R20404   2.231   2.014   7.461 -0.8810 -0.2999 -0.6277
  168DOPC   H7S20405   2.364   1.933   7.362 -1.1309  0.3479  0.6154
  168DOPC   C2820406   2.334   2.146   7.330 -0.9256 -0.9524  0.6902
  168DOPC   H8R20407   2.438   2.157   7.292 -0.4537 -0.2459  2.1414
  168DOPC   H8S20408   2.308   2.230   7.397  2.0118 -0.0441  0.8323
  168DOPC   C2920409   2.228   2.124   7.226 -0.3641 -0.6978  0.1922
  168DOPC   H9R20410   2.129   2.157   7.260  0.1436  0.3097  0.7177
  168DOPC  C21020411   2.242   2.069   7.106 -0.0408 -0.0595 -0.2905
  168DOPC  H10R20412   2.164   2.073   7.029  1.2833  1.7435 -1.6288
  168DOPC  C21120413   2.377   2.019   7.048  0.4515 -0.1337  0.1823
  168DOPC  H11R20414   2.366   1.912   7.021  0.4140  0.0614 -0.6005
  168DOPC  H11S20415   2.463   2.022   7.118  2.0890  0.7088 -1.7610
  168DOPC  C21220416   2.418   2.099   6.918  0.1657  0.3506 -0.0124
  168DOPC  H12R20417   2.508   2.047   6.878 -0.6071 -1.5443  0.5795
  168DOPC  H12S20418   2.439   2.204   6.947  0.8686  0.5709 -1.2484
  168DOPC  C21320419   2.319   2.077   6.802 -0.5198 -0.3816  0.9432
  168DOPC  H13R20420   2.215   2.110   6.825 -0.9762 -1.0571 -0.0843
  168DOPC  H13S20421   2.317   1.968   6.782 -0.2071 -0.2694  0.2925
  168DOPC  C21420422   2.374   2.143   6.675 -0.3720 -0.2771 -0.1369
  168DOPC  H14R20423   2.469   2.098   6.641  0.2945 -0.0564  1.3601
  168DOPC  H14S20424   2.393   2.249   6.702  1.2951 -0.5085 -0.3483
  168DOPC  C21520425   2.271   2.153   6.559  0.6053 -0.0532  0.2960
  168DOPC  H15R20426   2.318   2.211   6.476 -2.4594  0.0972 -1.5260
  168DOPC  H15S20427   2.183   2.211   6.596 -0.9586 -0.4364 -2.5061
  168DOPC  C21620428   2.207   2.022   6.506 -1.1710  0.1543 -0.3484
  168DOPC  H16R20429   2.133   1.992   6.584  0.9648  2.2737  2.7266
  168DOPC  H16S20430   2.285   1.943   6.512 -0.9397  0.2347 -1.9785
  168DOPC  C21720431   2.139   2.027   6.369 -0.2141 -0.4391 -0.3565
  168DOPC  H17R20432   2.055   2.099   6.381 -0.2940 -0.8113  1.6141
  168DOPC  H17S20433   2.103   1.928   6.335 -1.0345 -0.9182  1.7550
  168DOPC  C21820434   2.244   2.088   6.263 -0.8126  0.4194  0.0080
  168DOPC  H18R20435   2.259   2.198   6.269 -2.1384  0.5557  1.2920
  168DOPC  H18S20436   2.205   2.063   6.162  0.6580  1.3769 -0.8344
  168DOPC  H18T20437   2.349   2.052   6.267  0.0342  2.5212 -1.1379
  168DOPC   C3320438   2.465   2.480   7.639  0.3739 -0.8219  0.0763
  168DOPC   H3X20439   2.485   2.588   7.654 -0.1022 -0.6857 -0.2581
  168DOPC   H3Y20440   2.356   2.459   7.648 -0.0218  0.1729 -1.8940
  168DOPC   C3420441   2.524   2.446   7.498  0.3458 -0.4617 -0.2001
  168DOPC   H4X20442   2.481   2.348   7.470 -0.4059  0.0390 -0.8488
  168DOPC   H4Y20443   2.634   2.442   7.493  0.3607 -1.1396  0.5600
  168DOPC   C3520444   2.478   2.545   7.391  0.2510  0.4705 -0.0912
  168DOPC   H5X20445   2.529   2.642   7.413  1.8792 -0.1582 -0.8936
  168DOPC   H5Y20446   2.368   2.554   7.403  0.2930  1.4846 -0.3231
  168DOPC   C3620447   2.519   2.500   7.246  0.7761  0.3003 -0.1728
  168DOPC   H6X20448   2.617   2.448   7.243  0.0322 -1.4503  2.3198
  168DOPC   H6Y20449   2.439   2.427   7.223  1.2627 -1.0887  2.1599
  168DOPC   C3720450   2.511   2.604   7.133 -0.7143 -0.3675 -0.2019
  168DOPC   H7X20451   2.567   2.698   7.150 -1.5467  0.3030 -1.0567
  168DOPC   H7Y20452   2.559   2.566   7.041  2.4831  2.2854  0.1774
  168DOPC   C3820453   2.369   2.633   7.075  0.0525 -0.4268 -0.5596
  168DOPC   H8X20454   2.305   2.679   7.153  0.5080  1.8147 -1.4369
  168DOPC   H8Y20455   2.318   2.541   7.040  1.5448 -0.1548 -3.6923
  168DOPC   C3920456   2.380   2.731   6.963  0.5183 -1.0791  0.6730
  168DOPC   H9X20457   2.380   2.836   6.995 -0.7713 -0.8566  0.0288
  168DOPC  C31020458   2.380   2.707   6.831 -1.0478 -0.1397  0.3380
  168DOPC  H10X20459   2.408   2.788   6.762 -0.6796 -1.0007 -0.5473
  168DOPC  C31120460   2.390   2.565   6.774 -0.4476 -0.2947 -0.1182
  168DOPC  H11X20461   2.298   2.555   6.713  0.9703  0.5952 -2.4904
  168DOPC  H11Y20462   2.384   2.474   6.838 -1.0178 -1.0357 -1.2072
  168DOPC  C31220463   2.511   2.556   6.683 -0.2363  0.5286  1.0780
  168DOPC  H12X20464   2.527   2.449   6.656  0.4633  0.8043  0.3798
  168DOPC  H12Y20465   2.606   2.584   6.733  0.3529 -0.6243  0.6377
  168DOPC  C31320466   2.517   2.630   6.550  0.6357 -0.7500 -0.2371
  168DOPC  H13X20467   2.421   2.637   6.494  0.4198  0.1028  0.2235
  168DOPC  H13Y20468   2.541   2.731   6.588 -0.9732 -0.6991  0.7488
  168DOPC  C31420469   2.629   2.579   6.462 -0.8493  0.3943  0.2282
  168DOPC  H14X20470   2.724   2.565   6.519 -1.7192 -2.6913  1.0607
  168DOPC  H14Y20471   2.615   2.475   6.426 -0.5671  0.0978  0.9467
  168DOPC  C31520472   2.662   2.663   6.342  0.3743 -0.7618 -0.5704
  168DOPC  H15X20473   2.733   2.606   6.279  0.6585 -1.4509  0.3437
  168DOPC  H15Y20474   2.715   2.755   6.375  3.9717 -1.9068 -2.7214
  168DOPC  C31620475   2.542   2.696   6.245  0.7793  0.3076  0.1708
  168DOPC  H16X20476   2.491   2.601   6.218 -1.8573  0.8764  2.6109
  168DOPC  H16Y20477   2.478   2.766   6.302 -0.9089 -0.5782 -0.5523
  168DOPC  C31720478   2.568   2.767   6.111  0.2153 -0.4872  0.2070
  168DOPC  H17X20479   2.472   2.777   6.056  0.9767  2.0581 -0.8232
  168DOPC  H17Y20480   2.603   2.872   6.125  1.0948 -1.1195  3.6610
  168DOPC  C31820481   2.661   2.691   6.017 -0.2978 -0.3000 -0.2651
  168DOPC  H18X20482   2.686   2.757   5.931 -0.1698  1.4024  1.0431
  168DOPC  H18Y20483   2.757   2.680   6.071 -0.3922  0.5164  0.0762
  168DOPC  H18Z20484   2.632   2.590   5.981  2.2827 -1.2464  0.1270
  169DOPC     N20485   1.219   3.511   8.920 -0.2334 -0.0359 -0.1251
  169DOPC   C1220486   1.185   3.427   8.801  0.3924 -0.3427  0.1262
  169DOPC  H12A20487   1.139   3.333   8.830  1.1524 -0.4478  1.0576
  169DOPC  H12B20488   1.278   3.393   8.758  0.0986 -0.0875 -0.7289
  169DOPC   C1320489   1.308   3.628   8.884 -0.3966 -0.1248 -0.1975
  169DOPC  H13A20490   1.403   3.596   8.844 -0.4725 -0.9922  0.2804
  169DOPC  H13B20491   1.259   3.688   8.809 -1.3126 -1.9053 -1.0819
  169DOPC  H13C20492   1.343   3.688   8.967  1.4372 -2.1092  0.5627
  169DOPC   C1420493   1.287   3.426   9.028  0.2962  0.2445 -0.9596
  169DOPC  H14A20494   1.220   3.345   9.051  0.1361  0.4302 -0.7700
  169DOPC  H14B20495   1.379   3.391   8.983  1.2639  0.6873  0.6112
  169DOPC  H14C20496   1.300   3.489   9.115 -1.3348 -0.3144 -0.2901
  169DOPC   C1520497   1.092   3.563   8.988 -0.2054  0.0189 -0.0506
  169DOPC  H15A20498   1.023   3.606   8.917 -2.9562 -0.3243  2.2267
  169DOPC  H15B20499   1.126   3.647   9.047  1.1007 -0.5215  0.0180
  169DOPC  H15C20500   1.039   3.500   9.057 -1.6020  0.5673 -0.6018
  169DOPC   C1120501   1.089   3.491   8.693 -0.9196 -0.6806  0.4918
  169DOPC  H11A20502   1.146   3.575   8.649  0.8816 -1.7267  0.7517
  169DOPC  H11B20503   1.078   3.407   8.621 -0.8142  0.6305 -1.1086
  169DOPC     P20504   0.849   3.406   8.744  0.0955 -0.4265 -0.1780
  169DOPC   O1320505   0.739   3.459   8.828  0.2965 -0.5721  0.2620
  169DOPC   O1420506   0.890   3.267   8.772  0.3792 -0.4934  0.1811
  169DOPC   O1220507   0.961   3.516   8.744  0.1326  0.0483 -0.3360
  169DOPC   O1120508   0.793   3.415   8.596  0.2623  0.4046  0.6923
  169DOPC    C120509   0.753   3.543   8.537  0.1004  0.4909  0.0462
  169DOPC    HA20510   0.840   3.612   8.526  0.4666 -0.2155 -1.8789
  169DOPC    HB20511   0.680   3.594   8.604 -0.3966  0.6789 -0.6271
  169DOPC    C220512   0.703   3.525   8.395  0.4537  0.4668  0.6306
  169DOPC    HS20513   0.632   3.440   8.401  0.5251  0.4897  2.3076
  169DOPC   O2120514   0.814   3.496   8.310  0.0253  0.2797 -0.4870
  169DOPC   C2120515   0.853   3.372   8.317  0.4768  0.3331  0.0365
  169DOPC   O2220516   0.797   3.273   8.353  0.3165  0.2561  0.5356
  169DOPC   C2220517   0.999   3.358   8.273 -0.0628  0.0786 -0.1180
  169DOPC   H2R20518   1.033   3.254   8.293 -0.1110  0.3376  1.4705
  169DOPC   H2S20519   1.050   3.416   8.353 -0.2100 -1.9099  1.4838
  169DOPC    C320520   0.638   3.654   8.337  0.7377  0.5346 -0.4912
  169DOPC    HX20521   0.709   3.734   8.368  0.8220 -0.4185  1.9934
  169DOPC    HY20522   0.544   3.682   8.388  0.7790  0.3860 -0.3349
  169DOPC   O3120523   0.629   3.658   8.189  0.1098 -0.4107 -0.4528
  169DOPC   C3120524   0.543   3.568   8.144  0.8486 -0.3108  0.2565
  169DOPC   O3220525   0.481   3.489   8.210 -0.3391 -0.1234 -0.8536
  169DOPC   C3220526   0.541   3.592   7.993 -0.4209  0.3360 -0.0391
  169DOPC   H2X20527   0.496   3.691   7.968  2.6080  1.2227 -2.6244
  169DOPC   H2Y20528   0.649   3.610   7.978 -0.8111  5.1838  1.0947
  169DOPC   C2320529   1.042   3.410   8.131 -0.9642  0.0847  0.1403
  169DOPC   H3R20530   1.151   3.391   8.119 -1.2234 -0.3259 -1.8457
  169DOPC   H3S20531   1.025   3.519   8.124  0.4320  0.2019 -3.1711
  169DOPC   C2420532   0.973   3.341   8.014  0.3441  0.6252 -0.2202
  169DOPC   H4R20533   0.863   3.333   8.025  0.4487  1.3208  1.6759
  169DOPC   H4S20534   1.011   3.236   8.017  1.7144  1.1222  0.2954
  169DOPC   C2520535   1.006   3.404   7.879 -0.2955 -0.0905 -0.6923
  169DOPC   H5R20536   1.116   3.420   7.881 -0.4072  0.6799 -0.6475
  169DOPC   H5S20537   0.946   3.497   7.870  0.1066  0.3279  0.7007
  169DOPC   C2620538   0.963   3.326   7.759 -0.3771  0.2450 -0.3836
  169DOPC   H6R20539   0.852   3.335   7.760 -0.3189  1.0889 -0.6856
  169DOPC   H6S20540   0.981   3.217   7.766 -0.8421  0.2519  1.4799
  169DOPC   C2720541   1.023   3.380   7.628 -0.5311 -0.2042 -0.1886
  169DOPC   H7R20542   1.133   3.395   7.640 -0.8148  0.2588  2.1904
  169DOPC   H7S20543   0.979   3.481   7.619 -1.2412 -0.4209  0.7007
  169DOPC   C2820544   0.977   3.293   7.511 -0.0708 -0.9514 -0.1700
  169DOPC   H8R20545   0.980   3.189   7.549 -0.1410 -0.5509  0.9808
  169DOPC   H8S20546   1.040   3.321   7.423  0.3339 -2.0172 -0.2267
  169DOPC   C2920547   0.834   3.322   7.472 -0.8468 -0.2058 -0.0043
  169DOPC   H9R20548   0.770   3.349   7.557 -2.0133 -0.3858 -0.7994
  169DOPC  C21020549   0.787   3.339   7.342 -0.3671 -0.4281  0.4699
  169DOPC  H10R20550   0.680   3.358   7.326  0.2188  1.1240 -2.0760
  169DOPC  C21120551   0.863   3.311   7.219  0.0536  0.5353  0.4027
  169DOPC  H11R20552   0.941   3.236   7.244  2.9132  2.9357 -0.7319
  169DOPC  H11S20553   0.927   3.394   7.183 -0.1537  0.5511  0.0706
  169DOPC  C21220554   0.782   3.254   7.101 -0.1219  0.4185 -0.1855
  169DOPC  H12R20555   0.758   3.149   7.129 -2.3876  1.0962  0.5734
  169DOPC  H12S20556   0.858   3.238   7.021 -0.0085  0.5313 -0.0998
  169DOPC  C21320557   0.676   3.347   7.045  1.3338 -0.1980  0.1016
  169DOPC  H13R20558   0.716   3.445   7.011 -1.3416  0.4188 -1.6120
  169DOPC  H13S20559   0.584   3.362   7.106 -0.4392  2.6463 -2.9316
  169DOPC  C21420560   0.610   3.289   6.918 -0.3344  0.0160  0.4662
  169DOPC  H14R20561   0.580   3.185   6.947  2.0129 -0.8734 -0.0619
  169DOPC  H14S20562   0.688   3.280   6.839 -1.0307  1.6488 -0.4396
  169DOPC  C21520563   0.483   3.351   6.856  0.0655  0.2020  0.3598
  169DOPC  H15R20564   0.508   3.445   6.804  1.3194 -0.6448 -0.6199
  169DOPC  H15S20565   0.399   3.373   6.926  0.2781  0.3154  0.5794
  169DOPC  C21620566   0.435   3.269   6.737  0.9210 -0.4216  0.1936
  169DOPC  H16R20567   0.411   3.167   6.775 -0.2473  0.0341  0.7011
  169DOPC  H16S20568   0.522   3.257   6.669 -1.3468 -2.1023 -2.6678
  169DOPC  C21720569   0.325   3.335   6.650  0.1899 -0.3813  0.2527
  169DOPC  H17R20570   0.379   3.426   6.618  0.8826 -0.3654  1.3894
  169DOPC  H17S20571   0.234   3.359   6.710 -1.1853 -0.8861 -1.5585
  169DOPC  C21820572   0.280   3.258   6.531  0.5352 -0.3502 -0.0222
  169DOPC  H18R20573   0.365   3.250   6.461  2.3354 -0.6242  2.0816
  169DOPC  H18S20574   0.195   3.309   6.480 -0.3408 -1.1165  0.6344
  169DOPC  H18T20575   0.251   3.154   6.559 -1.1582 -0.1137 -0.7805
  169DOPC   C3320576   0.488   3.473   7.911  0.5630 -0.4989 -0.2071
  169DOPC   H3X20577   0.378   3.487   7.926  0.7645  2.2511 -0.9241
  169DOPC   H3Y20578   0.521   3.373   7.949 -0.6419 -0.6775  0.4285
  169DOPC   C3420579   0.520   3.478   7.763  0.4211 -0.7797 -0.7567
  169DOPC   H4X20580   0.453   3.398   7.724 -1.8029  0.2000  0.8336
  169DOPC   H4Y20581   0.624   3.447   7.740 -0.0662 -2.6580 -0.5717
  169DOPC   C3520582   0.494   3.607   7.688 -0.4557 -0.3350 -0.0123
  169DOPC   H5X20583   0.546   3.693   7.734 -1.0251  0.8123 -1.4391
  169DOPC   H5Y20584   0.387   3.625   7.710 -0.2766 -0.2812  0.8493
  169DOPC   C3620585   0.522   3.588   7.540  0.7623 -0.3281  0.8242
  169DOPC   H6X20586   0.630   3.590   7.514  0.4729 -1.8282 -0.6855
  169DOPC   H6Y20587   0.484   3.488   7.510 -0.6439  0.3180  0.3240
  169DOPC   C3720588   0.446   3.698   7.462  0.0013  0.5841  0.2351
  169DOPC   H7X20589   0.336   3.680   7.458  0.0501  0.2504  0.3969
  169DOPC   H7Y20590   0.468   3.799   7.504  0.3427  0.4081  0.4888
  169DOPC   C3820591   0.491   3.698   7.315 -0.7717  0.6893 -0.4304
  169DOPC   H8X20592   0.451   3.612   7.256 -0.4975 -0.1120  0.5326
  169DOPC   H8Y20593   0.602   3.695   7.311 -0.6614  2.4774  0.5071
  169DOPC   C3920594   0.453   3.824   7.239 -0.1277 -0.4436  0.4672
  169DOPC   H9X20595   0.416   3.902   7.307  3.3722 -0.6417  2.8588
  169DOPC  C31020596   0.445   3.840   7.098  0.2921  0.5426  0.0355
  169DOPC  H10X20597   0.421   3.939   7.056  0.3825  0.2550 -0.7028
  169DOPC  C31120598   0.481   3.727   6.997  0.4613 -0.1974  0.8382
  169DOPC  H11X20599   0.444   3.625   7.022 -1.4416 -0.0054 -0.8855
  169DOPC  H11Y20600   0.590   3.731   6.981  0.2676  0.9565 -0.4302
  169DOPC  C31220601   0.412   3.773   6.865 -0.3200 -0.3646 -0.9030
  169DOPC  H12X20602   0.454   3.704   6.788  1.9909 -0.2069  0.1287
  169DOPC  H12Y20603   0.452   3.869   6.829  4.4165 -2.1200 -1.0308
  169DOPC  C31320604   0.261   3.759   6.868 -0.7149 -0.1832 -1.2038
  169DOPC  H13X20605   0.215   3.664   6.904 -1.7677  0.3901 -0.9946
  169DOPC  H13Y20606   0.217   3.834   6.937  1.8312  1.2831 -1.0672
  169DOPC  C31420607   0.195   3.802   6.731  0.3074  0.0044  0.2568
  169DOPC  H14X20608   0.086   3.821   6.741  0.5158  0.9668  0.8672
  169DOPC  H14Y20609   0.241   3.898   6.702  1.4583  0.0839  2.1859
  169DOPC  C31520610   0.205   3.689   6.630 -0.1310  0.0178  0.6292
  169DOPC  H15X20611   0.142   3.605   6.665 -0.9647  0.4145  0.1086
  169DOPC  H15Y20612   0.313   3.667   6.615 -0.0827  0.9064 -0.4675
  169DOPC  C31620613   0.150   3.724   6.489 -0.4119  0.4622 -0.5834
  169DOPC  H16X20614   0.039   3.730   6.486 -0.4832  0.7661  1.3272
  169DOPC  H16Y20615   0.184   3.817   6.439 -1.5369  0.8172 -0.7192
  169DOPC  C31720616   0.186   3.602   6.395  0.5063 -0.3391 -0.0303
  169DOPC  H17X20617   0.293   3.576   6.384  0.3432 -0.0883 -2.6946
  169DOPC  H17Y20618   0.137   3.504   6.416 -0.0378 -0.4680 -1.7757
  169DOPC  C31820619   0.143   3.639   6.247  0.6705 -1.3036  0.7166
  169DOPC  H18X20620   0.176   3.560   6.177 -1.1306  0.0502 -1.8269
  169DOPC  H18Y20621   0.033   3.651   6.258  0.7128  1.3141 -0.7587
  169DOPC  H18Z20622   0.185   3.737   6.215 -0.4642 -1.4941 -1.5626
  170DOPC     N20623   0.559   1.362   9.115  0.5873  0.2200  0.0762
  170DOPC   C1220624   0.585   1.421   8.979 -0.0969  0.3946 -0.3520
  170DOPC  H12A20625   0.653   1.354   8.930  2.0711  1.6098  0.8293
  170DOPC  H12B20626   0.633   1.517   8.995 -1.2346  1.2223 -1.6563
  170DOPC   C1320627   0.500   1.468   9.208  0.2062 -0.2928 -0.4409
  170DOPC  H13A20628   0.467   1.436   9.305 -1.1700 -0.1661 -0.8383
  170DOPC  H13B20629   0.566   1.553   9.209 -0.3750  0.1581  0.9565
  170DOPC  H13C20630   0.404   1.495   9.165 -0.6512  0.6281  1.8985
  170DOPC   C1420631   0.686   1.317   9.175 -0.1522 -0.0841  0.5260
  170DOPC  H14A20632   0.754   1.400   9.181  0.2744 -0.0385 -2.9241
  170DOPC  H14B20633   0.678   1.278   9.275  3.8804 -0.0063  1.0339
  170DOPC  H14C20634   0.734   1.236   9.122 -1.2452 -0.9402  0.8088
  170DOPC   C1520635   0.466   1.243   9.097  0.1825 -0.4127 -0.0737
  170DOPC  H15A20636   0.518   1.153   9.067 -0.1845 -1.5275  2.4002
  170DOPC  H15B20637   0.382   1.272   9.036 -0.1954  2.0948  1.4932
  170DOPC  H15C20638   0.426   1.217   9.193  0.7061 -0.6828  0.0734
  170DOPC   C1120639   0.461   1.456   8.892 -0.4346 -0.5854  0.4588
  170DOPC  H11A20640   0.497   1.483   8.790  1.5631 -2.0978  0.7090
  170DOPC  H11B20641   0.397   1.372   8.859 -0.0587  0.5125 -3.6716
  170DOPC     P20642   0.414   1.705   8.952  0.0784 -0.2658 -0.3688
  170DOPC   O1320643   0.552   1.718   9.002 -0.0336 -0.2157  0.4747
  170DOPC   O1420644   0.317   1.790   9.027  0.3215 -0.2465  0.4251
  170DOPC   O1220645   0.379   1.557   8.954 -0.3631 -0.3145 -0.1035
  170DOPC   O1120646   0.408   1.730   8.802 -0.1714 -0.1724 -0.5564
  170DOPC    C120647   0.284   1.764   8.734  0.2568 -0.3634 -0.4019
  170DOPC    HA20648   0.270   1.873   8.742  1.4514 -0.3374  2.6086
  170DOPC    HB20649   0.194   1.714   8.776  1.0032 -0.1041  1.6678
  170DOPC    C220650   0.276   1.745   8.579 -0.1698 -0.3081  0.0570
  170DOPC    HS20651   0.173   1.723   8.545  0.6775 -0.7007 -2.4487
  170DOPC   O2120652   0.363   1.644   8.534  0.3680 -0.3175  0.8323
  170DOPC   C2120653   0.328   1.526   8.575 -0.4009  1.0432 -0.7243
  170DOPC   O2220654   0.224   1.487   8.627 -0.5790  0.0412 -0.2515
  170DOPC   C2220655   0.441   1.430   8.543  0.1140  0.2364  0.1894
  170DOPC   H2R20656   0.466   1.372   8.634 -0.1786 -2.6668 -1.4596
  170DOPC   H2S20657   0.526   1.491   8.505 -1.5786  2.2233 -0.5655
  170DOPC    C320658   0.305   1.879   8.503 -0.1518 -1.1076 -0.4567
  170DOPC    HX20659   0.394   1.919   8.556 -3.3420  0.6739  4.2510
  170DOPC    HY20660   0.236   1.966   8.513  0.7302 -0.3989 -0.3783
  170DOPC   O3120661   0.322   1.864   8.366 -0.3118  0.2997  0.0813
  170DOPC   C3120662   0.212   1.854   8.293 -0.4522  0.4317  0.6050
  170DOPC   O3220663   0.096   1.856   8.327 -0.1639  0.4922 -0.7485
  170DOPC   C3220664   0.252   1.818   8.151 -0.1690 -0.2259 -0.2312
  170DOPC   H2X20665   0.305   1.909   8.114  0.5612 -0.2458  0.7247
  170DOPC   H2Y20666   0.323   1.735   8.131  0.7348  0.6188 -0.6193
  170DOPC   C2320667   0.411   1.331   8.431 -0.2850  0.8391 -0.2584
  170DOPC   H3R20668   0.309   1.289   8.445  0.2071  0.4695  2.7268
  170DOPC   H3S20669   0.476   1.241   8.441 -1.6962 -0.4078 -1.7591
  170DOPC   C2420670   0.422   1.401   8.298  0.0537 -0.2085  0.6923
  170DOPC   H4R20671   0.525   1.387   8.258  0.0825 -0.8289  0.9677
  170DOPC   H4S20672   0.399   1.507   8.317 -0.1248  0.3242 -2.0598
  170DOPC   C2520673   0.324   1.335   8.197  0.4282 -0.5992  0.3660
  170DOPC   H5R20674   0.220   1.348   8.233  0.3354  2.0380 -0.6245
  170DOPC   H5S20675   0.342   1.225   8.190  2.2999 -0.2022 -3.6952
  170DOPC   C2620676   0.319   1.384   8.057 -0.7535  0.1115 -0.1927
  170DOPC   H6R20677   0.300   1.493   8.050 -1.0375 -0.0269 -2.2589
  170DOPC   H6S20678   0.242   1.332   7.996  2.2469 -3.4843 -1.2470
  170DOPC   C2720679   0.442   1.349   7.969 -0.2907  0.1589 -0.4871
  170DOPC   H7R20680   0.440   1.239   7.954  1.3296  0.0496 -0.1076
  170DOPC   H7S20681   0.526   1.396   8.024  0.2043  1.1919 -2.0574
  170DOPC   C2820682   0.430   1.416   7.827 -0.2426 -0.7292 -0.0771
  170DOPC   H8R20683   0.412   1.523   7.849  0.5716 -0.5114 -0.4485
  170DOPC   H8S20684   0.339   1.373   7.780 -3.2610  3.6875  1.0274
  170DOPC   C2920685   0.563   1.394   7.762  0.0742  0.4629  0.1166
  170DOPC   H9R20686   0.648   1.365   7.825 -1.9039  1.7909  3.7435
  170DOPC  C21020687   0.577   1.424   7.632 -0.1406 -0.1965  0.3505
  170DOPC  H10R20688   0.678   1.422   7.589  0.5824  0.2742  1.9238
  170DOPC  C21120689   0.458   1.458   7.546 -0.8128 -0.5506  0.5975
  170DOPC  H11R20690   0.424   1.561   7.567  1.2224 -0.1332  2.2471
  170DOPC  H11S20691   0.371   1.392   7.569 -0.4664 -0.4478  2.3878
  170DOPC  C21220692   0.507   1.433   7.404 -0.0886 -0.4273  0.3578
  170DOPC  H12R20693   0.528   1.326   7.385 -1.7054 -0.5490 -0.9510
  170DOPC  H12S20694   0.595   1.495   7.375 -0.9399  0.6343 -0.0541
  170DOPC  C21320695   0.408   1.467   7.295 -0.2985 -0.1728  0.3275
  170DOPC  H13R20696   0.386   1.575   7.312  1.2595 -0.2393  3.4289
  170DOPC  H13S20697   0.322   1.398   7.308 -0.2314 -0.3513 -0.1581
  170DOPC  C21420698   0.445   1.417   7.157  0.5663 -0.0617 -0.6403
  170DOPC  H14R20699   0.473   1.310   7.162  2.6731  0.4911  2.5381
  170DOPC  H14S20700   0.541   1.468   7.132  0.9396  0.1231  1.0702
  170DOPC  C21520701   0.344   1.432   7.047  0.2287 -0.1969  0.3108
  170DOPC  H15R20702   0.301   1.534   7.057 -2.5031 -1.3675  1.8303
  170DOPC  H15S20703   0.261   1.358   7.055 -1.7605  1.9247  0.4521
  170DOPC  C21620704   0.406   1.417   6.902 -0.1140  0.2144  0.4799
  170DOPC  H16R20705   0.460   1.320   6.899  0.1613  0.3599  0.6306
  170DOPC  H16S20706   0.478   1.501   6.892  1.3420 -1.0464  0.1278
  170DOPC  C21720707   0.298   1.418   6.795  0.1424  0.5664  0.2492
  170DOPC  H17R20708   0.225   1.342   6.831  2.0855 -0.8018  1.4873
  170DOPC  H17S20709   0.330   1.367   6.702  2.1854 -0.0860  1.2564
  170DOPC  C21820710   0.235   1.551   6.760 -0.6361 -0.2647 -1.1351
  170DOPC  H18R20711   0.166   1.540   6.673 -1.7281 -1.4520 -0.1517
  170DOPC  H18S20712   0.315   1.619   6.723 -1.6348  1.2594 -0.5919
  170DOPC  H18T20713   0.189   1.597   6.850  3.3244 -0.0571  0.9804
  170DOPC   C3320714   0.133   1.791   8.061  0.4515 -0.2612  0.0693
  170DOPC   H3X20715   0.067   1.880   8.058  0.8802  0.0844  0.7198
  170DOPC   H3Y20716   0.070   1.710   8.102  0.3667  0.8003  2.2126
  170DOPC   C3420717   0.183   1.757   7.921 -0.4449  0.0629  0.0185
  170DOPC   H4X20718   0.234   1.659   7.935  0.3633  0.8631  3.6564
  170DOPC   H4Y20719   0.257   1.832   7.888 -0.2512 -0.7758 -1.5421
  170DOPC   C3520720   0.077   1.760   7.816 -0.4673  0.2847 -0.2229
  170DOPC   H5X20721   0.038   1.864   7.816 -1.5479 -0.0909 -0.8753
  170DOPC   H5Y20722  -0.005   1.694   7.853  0.4238 -0.2930  0.7751
  170DOPC   C3620723   0.116   1.724   7.672 -0.3695  0.3691  0.1572
  170DOPC   H6X20724   0.212   1.776   7.655 -0.8356  1.0317 -0.4894
  170DOPC   H6Y20725   0.134   1.615   7.662  2.6290  0.6407  1.3766
  170DOPC   C3720726   0.011   1.764   7.559  0.1319 -0.6613 -0.3763
  170DOPC   H7X20727  -0.076   1.695   7.566  0.4276 -0.8782  1.8723
  170DOPC   H7Y20728  -0.026   1.863   7.593  1.5192 -0.2214 -0.0926
  170DOPC   C3820729   0.071   1.791   7.417 -0.0600  0.4922 -0.9071
  170DOPC   H8X20730   0.158   1.858   7.434  2.4188 -2.4998 -0.8944
  170DOPC   H8Y20731  -0.005   1.850   7.362  0.3827  1.9376 -0.0358
  170DOPC   C3920732   0.130   1.673   7.341 -0.4376 -0.0585 -0.4552
  170DOPC   H9X20733   0.159   1.593   7.411 -0.0722  0.3925 -0.0907
  170DOPC  C31020734   0.124   1.651   7.209 -0.2865  0.3518 -1.4379
  170DOPC  H10X20735   0.144   1.550   7.170 -3.0954 -1.4555  1.3006
  170DOPC  C31120736   0.087   1.761   7.110  0.1559  0.6600 -0.2465
  170DOPC  H11X20737   0.149   1.757   7.018  2.0393 -0.2572  0.9909
  170DOPC  H11Y20738   0.100   1.855   7.169 -1.9049 -0.6167  2.4874
  170DOPC  C31220739  -0.056   1.774   7.055 -0.0212  0.1820 -0.1909
  170DOPC  H12X20740  -0.129   1.778   7.139 -1.0142 -0.5646 -0.9974
  170DOPC  H12Y20741  -0.085   1.686   6.994 -0.9251  0.7396 -0.5803
  170DOPC  C31320742  -0.086   1.904   6.980  0.2380 -0.0675 -0.0249
  170DOPC  H13X20743  -0.102   1.981   7.059  0.4808 -0.8323  0.7789
  170DOPC  H13Y20744   0.004   1.931   6.920  0.6923 -1.6138 -0.0809
  170DOPC  C31420745  -0.204   1.880   6.885  0.4866 -0.6124  0.2383
  170DOPC  H14X20746  -0.178   1.789   6.827  0.5934 -0.9329  0.7826
  170DOPC  H14Y20747  -0.291   1.857   6.951  1.3141 -1.3095  1.1121
  170DOPC  C31520748  -0.243   1.993   6.790 -0.1838 -0.2275  0.8196
  170DOPC  H15X20749  -0.151   2.030   6.739 -1.3443  0.2379 -1.0209
  170DOPC  H15Y20750  -0.274   2.071   6.862  1.7909  1.0313  0.3981
  170DOPC  C31620751  -0.341   1.952   6.681 -0.1995 -0.0462 -0.5143
  170DOPC  H16X20752  -0.358   2.044   6.622 -0.1823 -0.7126 -1.5886
  170DOPC  H16Y20753  -0.290   1.883   6.610 -1.6753 -0.8370 -0.8513
  170DOPC  C31720754  -0.479   1.904   6.726  0.1822  0.1794 -0.4848
  170DOPC  H17X20755  -0.475   1.813   6.791 -0.5850  1.2415  1.1094
  170DOPC  H17Y20756  -0.535   1.971   6.795 -1.4461  0.5307 -2.0473
  170DOPC  C31820757  -0.578   1.883   6.607 -0.0607  0.2395 -0.1163
  170DOPC  H18X20758  -0.674   1.836   6.636  0.0181  0.2131  0.1025
  170DOPC  H18Y20759  -0.593   1.979   6.553  0.5761  0.1025 -0.5575
  170DOPC  H18Z20760  -0.525   1.821   6.532 -0.1620  1.0566 -0.8769
  171DOPC     N20761   3.036   5.696   3.792 -0.0481 -0.2017 -0.7154
  171DOPC   C1220762   2.964   5.789   3.894 -0.7653 -0.0702  0.5086
  171DOPC  H12A20763   2.897   5.859   3.847  1.2399  1.8015  0.2970
  171DOPC  H12B20764   3.038   5.852   3.941 -2.5322  0.6396  2.4676
  171DOPC   C1320765   3.129   5.601   3.866  0.0357 -0.0194 -0.2894
  171DOPC  H13A20766   3.171   5.536   3.790  2.7278  0.4193  0.7278
  171DOPC  H13B20767   3.221   5.649   3.895  0.5678 -0.7103 -0.8135
  171DOPC  H13C20768   3.079   5.551   3.947  2.0258  0.0898  1.0689
  171DOPC   C1420769   3.115   5.776   3.693 -0.2563 -0.1264  0.0243
  171DOPC  H14A20770   3.149   5.703   3.621 -0.2194 -0.3332  0.2515
  171DOPC  H14B20771   3.063   5.852   3.637  1.2151  0.9877  0.1356
  171DOPC  H14C20772   3.196   5.828   3.741 -1.0662  0.7834  0.4484
  171DOPC   C1520773   2.937   5.607   3.726 -0.7133  1.1814  0.1241
  171DOPC  H15A20774   2.996   5.551   3.655 -1.1191  0.5025  0.3245
  171DOPC  H15B20775   2.874   5.667   3.662  0.1946  0.4209 -1.5588
  171DOPC  H15C20776   2.885   5.543   3.795 -0.8223  1.0142 -0.1114
  171DOPC   C1120777   2.891   5.719   4.009  0.2874  0.0790 -0.7614
  171DOPC  H11A20778   2.962   5.663   4.073 -2.1939 -2.1707  0.1664
  171DOPC  H11B20779   2.863   5.800   4.080  0.6508 -2.1885  2.1829
  171DOPC     P20780   2.650   5.700   3.888 -0.2354 -0.2168 -0.1782
  171DOPC   O1320781   2.613   5.606   3.779 -0.3874 -0.8322 -0.0278
  171DOPC   O1420782   2.682   5.842   3.855 -0.3267 -0.7250 -0.4155
  171DOPC   O1220783   2.782   5.638   3.969 -0.0515  0.3089 -0.0789
  171DOPC   O1120784   2.547   5.692   4.003 -0.2155 -0.7290 -0.2959
  171DOPC    C120785   2.515   5.584   4.075 -0.9833 -0.6073 -0.3684
  171DOPC    HA20786   2.570   5.493   4.040  0.2099 -0.1605  0.2750
  171DOPC    HB20787   2.406   5.566   4.070 -1.0475  0.1587 -2.7536
  171DOPC    C220788   2.536   5.597   4.233  0.2381  0.2067 -0.9753
  171DOPC    HS20789   2.503   5.502   4.280 -0.1114  0.2509 -1.1307
  171DOPC   O2120790   2.459   5.707   4.279  0.0542 -0.1827  0.1113
  171DOPC   C2120791   2.424   5.708   4.404  0.2037  0.3591  0.4589
  171DOPC   O2220792   2.443   5.627   4.488 -0.4720  0.1134 -0.9386
  171DOPC   C2220793   2.350   5.842   4.420 -0.2083  0.5821 -0.9054
  171DOPC   H2R20794   2.268   5.830   4.346 -0.6731  3.4422 -0.9857
  171DOPC   H2S20795   2.415   5.923   4.379  0.4897 -1.1065 -3.3654
  171DOPC    C320796   2.690   5.607   4.275  0.0370 -0.2519 -0.1653
  171DOPC    HX20797   2.732   5.685   4.208  0.9389 -0.7995 -0.2535
  171DOPC    HY20798   2.736   5.508   4.254 -2.3596 -1.5745  0.5102
  171DOPC   O3120799   2.714   5.646   4.413  0.2160 -0.5833 -0.1161
  171DOPC   C3120800   2.731   5.547   4.492 -0.6063  0.2984  0.3724
  171DOPC   O3220801   2.737   5.429   4.461  0.3860 -0.2610  1.1206
  171DOPC   C3220802   2.734   5.604   4.635  0.3893  0.2414  0.2943
  171DOPC   H2X20803   2.824   5.670   4.644  0.2777  0.4188  0.1270
  171DOPC   H2Y20804   2.646   5.667   4.660  0.6464  0.7162  0.0181
  171DOPC   C2320805   2.280   5.838   4.564  0.0794 -0.2548 -0.1297
  171DOPC   H3R20806   2.220   5.748   4.588  0.3068  0.0551  1.8218
  171DOPC   H3S20807   2.202   5.917   4.567  1.3497  1.0332  0.1374
  171DOPC   C2420808   2.375   5.868   4.682  0.4915  0.1921  0.9170
  171DOPC   H4R20809   2.451   5.941   4.647 -1.0383  1.6377  0.4809
  171DOPC   H4S20810   2.436   5.777   4.705  1.0326  0.7620  1.7670
  171DOPC   C2520811   2.297   5.913   4.806 -0.0536  0.4308  0.6556
  171DOPC   H5R20812   2.200   5.859   4.797  0.5916 -0.5650 -0.5756
  171DOPC   H5S20813   2.270   6.019   4.785 -0.6577 -0.2069 -2.2927
  171DOPC   C2620814   2.349   5.865   4.945 -0.0845  0.3715  0.4364
  171DOPC   H6R20815   2.445   5.920   4.956 -1.2563  2.3089  1.4667
  171DOPC   H6S20816   2.363   5.755   4.944 -2.4149  0.0095  1.6037
  171DOPC   C2720817   2.271   5.913   5.069 -0.1177  0.3724 -0.6464
  171DOPC   H7R20818   2.168   5.871   5.063  0.1691 -0.9778  2.1352
  171DOPC   H7S20819   2.281   6.022   5.082  3.4564  0.2443 -1.4264
  171DOPC   C2820820   2.325   5.863   5.203  0.0340  0.5535  0.0674
  171DOPC   H8R20821   2.333   5.753   5.189 -1.8689  0.1169  1.8410
  171DOPC   H8S20822   2.251   5.876   5.285 -1.2891  2.3603 -1.3373
  171DOPC   C2920823   2.450   5.927   5.256 -0.1431  0.7150  0.8116
  171DOPC   H9R20824   2.512   5.974   5.178 -1.8130  0.3012 -0.8643
  171DOPC  C21020825   2.488   5.927   5.384  0.2096  1.2473  0.1286
  171DOPC  H10R20826   2.583   5.969   5.420  0.4099 -0.4926  1.7730
  171DOPC  C21120827   2.404   5.860   5.494  0.0366 -0.3520 -0.2696
  171DOPC  H11R20828   2.383   5.752   5.479  1.2745 -0.6777  0.3063
  171DOPC  H11S20829   2.303   5.905   5.506 -0.7678 -2.0712 -0.2413
  171DOPC  C21220830   2.488   5.867   5.629 -0.7601 -0.2184  0.4072
  171DOPC  H12R20831   2.514   5.975   5.636  1.6078 -0.7409  0.3864
  171DOPC  H12S20832   2.578   5.803   5.617 -1.1147 -0.3174 -2.2667
  171DOPC  C21320833   2.405   5.807   5.746 -0.5592 -0.5790 -0.7607
  171DOPC  H13R20834   2.411   5.696   5.739  0.6226 -0.4986 -1.2691
  171DOPC  H13S20835   2.299   5.839   5.747 -0.3923  0.0833 -1.8433
  171DOPC  C21420836   2.465   5.837   5.883 -0.6054 -0.5358  0.2475
  171DOPC  H14R20837   2.469   5.946   5.903  2.9906 -0.8065  1.7897
  171DOPC  H14S20838   2.574   5.822   5.895 -0.3299  2.0879  1.6021
  171DOPC  C21520839   2.401   5.743   5.990  0.3919  0.4270  0.0071
  171DOPC  H15R20840   2.406   5.638   5.956 -1.6116  0.8292 -1.7305
  171DOPC  H15S20841   2.293   5.768   5.996 -0.2387 -2.0990  0.1360
  171DOPC  C21620842   2.448   5.761   6.130  0.3051 -0.1207 -0.3275
  171DOPC  H16R20843   2.415   5.859   6.170 -0.0398  0.2047 -1.3668
  171DOPC  H16S20844   2.559   5.765   6.129  0.3502 -0.9922  0.1743
  171DOPC  C21720845   2.394   5.641   6.216  0.0818  0.0533  0.0433
  171DOPC  H17R20846   2.436   5.545   6.177  0.6844 -0.0737  0.9578
  171DOPC  H17S20847   2.285   5.642   6.197  0.0462  2.0956  0.1171
  171DOPC  C21820848   2.403   5.648   6.365  0.0481 -0.1203  0.1713
  171DOPC  H18R20849   2.390   5.548   6.411  0.3281 -0.4603 -0.4783
  171DOPC  H18S20850   2.323   5.719   6.395  1.7491  0.5307  3.6727
  171DOPC  H18T20851   2.499   5.690   6.401  0.9217 -0.4973 -1.6292
  171DOPC   C3320852   2.752   5.492   4.742 -0.2550  0.7692 -0.5014
  171DOPC   H3X20853   2.840   5.426   4.725  0.2035  1.6582 -1.7576
  171DOPC   H3Y20854   2.662   5.427   4.738 -0.0562  0.3543  1.0719
  171DOPC   C3420855   2.761   5.553   4.885  0.2863  0.0561 -0.2165
  171DOPC   H4X20856   2.661   5.597   4.903 -0.6354 -1.5026 -1.3099
  171DOPC   H4Y20857   2.837   5.634   4.881 -1.2796  1.6047  0.3746
  171DOPC   C3520858   2.783   5.458   5.001 -0.4823  0.2230  0.0918
  171DOPC   H5X20859   2.873   5.405   4.964 -1.1679 -1.7495  1.0994
  171DOPC   H5Y20860   2.700   5.385   4.999 -1.8924  1.7133 -3.1415
  171DOPC   C3620861   2.790   5.531   5.138 -0.7241 -0.0415  0.2013
  171DOPC   H6X20862   2.835   5.455   5.204 -0.8672 -1.5673 -1.3876
  171DOPC   H6Y20863   2.853   5.623   5.139 -1.0947  0.2175  1.8808
  171DOPC   C3720864   2.651   5.551   5.203 -0.1608 -0.3619  0.0613
  171DOPC   H7X20865   2.610   5.639   5.151 -1.0850  1.2262  3.2415
  171DOPC   H7Y20866   2.588   5.460   5.189  2.8382 -2.6528  0.2067
  171DOPC   C3820867   2.659   5.600   5.352  0.3572  0.9462 -0.9410
  171DOPC   H8X20868   2.555   5.633   5.370 -1.9749 -5.0010 -1.1884
  171DOPC   H8Y20869   2.729   5.683   5.375  0.1871  0.6654  0.7049
  171DOPC   C3920870   2.696   5.468   5.422 -0.4670  0.8458  0.2035
  171DOPC   H9X20871   2.714   5.380   5.359 -0.8378  0.4391  0.6615
  171DOPC  C31020872   2.725   5.452   5.552 -0.2027 -0.8695  0.2833
  171DOPC  H10X20873   2.761   5.355   5.590  1.1337 -0.5043  0.0091
  171DOPC  C31120874   2.724   5.569   5.652 -0.2537 -0.2962 -0.7851
  171DOPC  H11X20875   2.618   5.602   5.653 -1.2836 -3.2572 -1.9875
  171DOPC  H11Y20876   2.791   5.647   5.609  0.3262 -2.4811 -4.0992
  171DOPC  C31220877   2.786   5.525   5.790 -0.5622  0.5852 -0.4083
  171DOPC  H12X20878   2.821   5.611   5.850 -1.1594  1.7799 -1.7005
  171DOPC  H12Y20879   2.875   5.461   5.776 -1.3188 -0.7771  0.7561
  171DOPC  C31320880   2.683   5.454   5.878  0.0676 -0.3213  0.3364
  171DOPC  H13X20881   2.601   5.526   5.901  2.7070  2.8100  0.6685
  171DOPC  H13Y20882   2.646   5.366   5.821  0.5038  1.0175 -2.1761
  171DOPC  C31420883   2.746   5.399   6.013 -0.2657 -0.4180 -0.6222
  171DOPC  H14X20884   2.673   5.335   6.066 -1.5718  0.9077 -0.7582
  171DOPC  H14Y20885   2.839   5.342   5.989 -1.2979 -1.4102 -2.5268
  171DOPC  C31520886   2.791   5.512   6.111  0.4988 -0.3015 -0.2411
  171DOPC  H15X20887   2.698   5.564   6.142 -0.8267 -0.9943 -2.7472
  171DOPC  H15Y20888   2.863   5.586   6.071 -0.0119  2.7844  3.8859
  171DOPC  C31620889   2.851   5.461   6.243 -0.1038 -0.7676  0.8176
  171DOPC  H16X20890   2.839   5.540   6.320 -0.5470 -0.2142  0.1891
  171DOPC  H16Y20891   2.799   5.375   6.290  0.4371 -0.9529  1.0827
  171DOPC  C31720892   2.995   5.422   6.245 -0.2186 -0.1941  0.4792
  171DOPC  H17X20893   3.011   5.326   6.192 -2.1610  0.4298 -1.3783
  171DOPC  H17Y20894   3.053   5.495   6.184 -0.1318 -1.5160 -1.0641
  171DOPC  C31820895   3.047   5.388   6.386 -0.0717  0.6342 -0.1286
  171DOPC  H18X20896   3.156   5.367   6.393 -0.4042 -1.0518  0.5508
  171DOPC  H18Y20897   3.027   5.470   6.459  0.5073  0.2855  0.4354
  171DOPC  H18Z20898   2.990   5.305   6.433  0.0847  0.9316  0.5984
  172DOPC     N20899   2.407   6.077   3.472 -0.6432  0.2566 -0.0875
  172DOPC   C1220900   2.421   6.045   3.620  0.2977  0.0939 -0.4107
  172DOPC  H12A20901   2.426   6.144   3.665  0.1289  0.1783 -0.5748
  172DOPC  H12B20902   2.519   6.003   3.634  0.6355  0.7137 -0.8779
  172DOPC   C1320903   2.416   5.942   3.400  0.1141  0.2987 -0.4444
  172DOPC  H13A20904   2.344   5.871   3.438  2.0510 -1.0170  0.9848
  172DOPC  H13B20905   2.400   5.959   3.295 -1.0695 -0.5737 -0.4203
  172DOPC  H13C20906   2.516   5.905   3.420  0.0596  0.5152  0.2559
  172DOPC   C1420907   2.503   6.178   3.433 -0.5065 -0.0126 -0.3798
  172DOPC  H14A20908   2.470   6.226   3.343  1.1953  1.1321 -0.4345
  172DOPC  H14B20909   2.513   6.257   3.506 -1.3431 -1.3361  1.2635
  172DOPC  H14C20910   2.602   6.143   3.411  0.3897  1.7349  0.6792
  172DOPC   C1520911   2.273   6.133   3.452  0.0519 -0.0756  0.3926
  172DOPC  H15A20912   2.258   6.235   3.485 -1.0668  0.6224 -2.0184
  172DOPC  H15B20913   2.188   6.083   3.497 -1.9046  1.7834 -1.0036
  172DOPC  H15C20914   2.242   6.128   3.349 -2.3598 -1.0252  1.1008
  172DOPC   C1120915   2.308   5.970   3.683  0.0443  0.0062 -0.3374
  172DOPC  H11A20916   2.286   5.880   3.622 -2.2816  1.0374 -1.1420
  172DOPC  H11B20917   2.337   5.944   3.787  0.7113 -0.6678 -0.6800
  172DOPC     P20918   2.179   6.172   3.801  0.5128 -0.2599 -0.2496
  172DOPC   O1320919   2.042   6.177   3.847  0.5326 -0.6720  0.0002
  172DOPC   O1420920   2.234   6.289   3.734 -0.4009  0.0227 -0.3253
  172DOPC   O1220921   2.195   6.049   3.701  0.4421  0.6330 -0.6065
  172DOPC   O1120922   2.270   6.120   3.919 -0.3941  0.1505 -0.2485
  172DOPC    C120923   2.259   6.198   4.042  0.6950  0.7085 -0.3626
  172DOPC    HA20924   2.213   6.133   4.119  1.0756  1.2577  0.3381
  172DOPC    HB20925   2.192   6.286   4.040  2.4237  2.1286  0.5965
  172DOPC    C220926   2.396   6.248   4.091 -0.0390 -0.4778 -1.1407
  172DOPC    HS20927   2.432   6.302   4.001 -0.0576 -0.3765 -1.0877
  172DOPC   O2120928   2.478   6.132   4.128  0.2983 -0.2148 -0.0961
  172DOPC   C2120929   2.602   6.154   4.137 -0.1845 -0.7571 -0.5081
  172DOPC   O2220930   2.653   6.262   4.115 -0.3099  0.3841  0.7863
  172DOPC   C2220931   2.674   6.017   4.159 -0.1744  0.2565  0.3864
  172DOPC   H2R20932   2.723   6.003   4.060  1.9204  0.6345  1.3211
  172DOPC   H2S20933   2.605   5.933   4.183 -0.4991 -0.0785 -1.5324
  172DOPC    C320934   2.388   6.353   4.214  0.5008  0.0300  0.1755
  172DOPC    HX20935   2.310   6.429   4.192  0.2604 -0.6477 -1.4048
  172DOPC    HY20936   2.483   6.410   4.213  0.1301  0.6533  0.4300
  172DOPC   O3120937   2.369   6.280   4.341  0.0186 -0.5498  0.1142
  172DOPC   C3120938   2.406   6.342   4.449 -0.9588 -0.0927 -0.6427
  172DOPC   O3220939   2.452   6.454   4.450 -0.3394 -0.1198 -0.4103
  172DOPC   C3220940   2.409   6.257   4.573  0.2870  0.6281 -0.0260
  172DOPC   H2X20941   2.307   6.216   4.589  0.0010  1.0183 -0.7779
  172DOPC   H2Y20942   2.470   6.167   4.553  0.5916  0.5410  1.2564
  172DOPC   C2320943   2.785   6.036   4.265 -0.2791 -0.4016 -0.1137
  172DOPC   H3R20944   2.843   6.129   4.250 -1.4212  0.4390  0.4917
  172DOPC   H3S20945   2.844   5.942   4.268  1.3699  0.6212  2.0276
  172DOPC   C2420946   2.725   6.044   4.408  0.6444  0.3589 -0.5160
  172DOPC   H4R20947   2.641   5.972   4.418  1.9845 -1.2515 -0.5109
  172DOPC   H4S20948   2.681   6.144   4.428 -1.0899 -0.6596  1.1163
  172DOPC   C2520949   2.813   5.995   4.516  0.1949  0.1324 -0.2663
  172DOPC   H5R20950   2.907   6.054   4.511 -0.7869  1.6220 -2.8028
  172DOPC   H5S20951   2.838   5.888   4.499  1.9229  0.4270  0.2243
  172DOPC   C2620952   2.749   6.021   4.655 -0.1834  0.2793  0.5496
  172DOPC   H6R20953   2.647   5.978   4.645  0.4400 -0.8835 -1.4205
  172DOPC   H6S20954   2.746   6.131   4.672  1.7147  0.5888 -0.7863
  172DOPC   C2720955   2.821   5.940   4.763  0.1235 -0.1099 -0.1681
  172DOPC   H7R20956   2.920   5.990   4.772  0.7437 -1.2480 -0.5325
  172DOPC   H7S20957   2.842   5.837   4.729 -0.3510 -0.7473  1.3963
  172DOPC   C2820958   2.746   5.929   4.898  0.1457 -0.4479  0.1302
  172DOPC   H8R20959   2.777   5.844   4.962  1.5917 -1.2627 -1.5818
  172DOPC   H8S20960   2.645   5.893   4.867  0.2706  0.2480 -1.1485
  172DOPC   C2920961   2.743   6.062   4.970 -0.6364  0.0986  0.0578
  172DOPC   H9R20962   2.658   6.123   4.936  0.0734  0.1418 -1.7661
  172DOPC  C21020963   2.835   6.109   5.057  0.1740  0.3223  0.2507
  172DOPC  H10R20964   2.818   6.212   5.092 -1.3558  0.1173  0.1651
  172DOPC  C21120965   2.948   6.036   5.124 -0.2267  0.3433 -0.4631
  172DOPC  H11R20966   3.023   6.117   5.129 -0.4406  0.6815 -2.1823
  172DOPC  H11S20967   2.992   5.949   5.070 -1.4760 -0.2368 -0.5822
  172DOPC  C21220968   2.896   5.978   5.260  0.3867  0.3586 -0.1454
  172DOPC  H12R20969   2.962   5.893   5.289 -0.0628 -0.3616 -1.1691
  172DOPC  H12S20970   2.795   5.933   5.247  1.6824 -2.6005 -0.9422
  172DOPC  C21320971   2.905   6.079   5.372  0.1175  0.1082 -0.6910
  172DOPC  H13R20972   2.828   6.157   5.354  0.0663  0.5645  1.2218
  172DOPC  H13S20973   3.002   6.133   5.368  0.4240 -0.5337 -3.3337
  172DOPC  C21420974   2.879   6.026   5.518 -0.1556  1.1660  0.3743
  172DOPC  H14R20975   2.960   5.953   5.539  0.0650  1.4481  0.4978
  172DOPC  H14S20976   2.783   5.969   5.513 -0.4732  1.7693 -0.9956
  172DOPC  C21520977   2.877   6.135   5.620  0.3094 -0.1017 -0.3180
  172DOPC  H15R20978   2.802   6.212   5.591  1.5896  0.3630 -2.6623
  172DOPC  H15S20979   2.973   6.190   5.611 -0.3438  0.8449 -1.9518
  172DOPC  C21620980   2.844   6.088   5.764 -0.1636 -0.6061 -0.4644
  172DOPC  H16R20981   2.761   6.014   5.759 -1.7804  1.1414 -0.8723
  172DOPC  H16S20982   2.799   6.168   5.826  0.7137 -1.6055  1.5265
  172DOPC  C21720983   2.969   6.044   5.835 -0.6324  0.0498  0.0133
  172DOPC  H17R20984   3.024   6.130   5.879 -0.0118  0.6322 -1.8117
  172DOPC  H17S20985   3.041   6.000   5.762 -0.7719 -1.6537  0.8548
  172DOPC  C21820986   2.954   5.951   5.962  0.2248 -0.4707 -0.1996
  172DOPC  H18R20987   2.895   6.004   6.040  0.8505 -0.6999  0.4400
  172DOPC  H18S20988   3.047   5.920   6.013 -1.5141 -2.2992  2.1145
  172DOPC  H18T20989   2.899   5.862   5.925 -1.1319  0.3232 -0.1591
  172DOPC   C3320990   2.458   6.333   4.697  0.6981  0.2581  0.1976
  172DOPC   H3X20991   2.416   6.436   4.698  0.0036 -0.0141  0.9357
  172DOPC   H3Y20992   2.567   6.353   4.695  0.3344  2.4252 -0.7632
  172DOPC   C3420993   2.431   6.268   4.833 -0.2117  0.1262  0.6561
  172DOPC   H4X20994   2.469   6.164   4.829  0.2971  0.2565 -4.4868
  172DOPC   H4Y20995   2.320   6.258   4.838 -0.2750 -0.1082 -0.7808
  172DOPC   C3520996   2.487   6.346   4.958  0.4788 -0.2286  0.6052
  172DOPC   H5X20997   2.456   6.452   4.970  2.8023  0.4267  1.3336
  172DOPC   H5Y20998   2.595   6.351   4.933 -0.0184  1.7734 -1.5265
  172DOPC   C3620999   2.469   6.280   5.092  0.2308  0.4614 -0.6370
  172DOPC   H6X21000   2.366   6.257   5.126  0.2835  0.2679 -0.6078
  172DOPC   H6Y21001   2.521   6.183   5.104  0.5975  0.9601  2.4623
  172DOPC   C3721002   2.540   6.360   5.201  0.2253 -0.1614 -0.3252
  172DOPC   H7X21003   2.639   6.388   5.160 -0.0205  0.4142 -0.5426
  172DOPC   H7Y21004   2.479   6.452   5.219 -1.7655 -1.4866  0.0714
  172DOPC   C3821005   2.560   6.276   5.324 -0.3260  0.3578 -0.0537
  172DOPC   H8X21006   2.627   6.329   5.395 -1.0554  0.4450  0.5859
  172DOPC   H8Y21007   2.609   6.180   5.298 -2.3410 -0.5053 -0.8526
  172DOPC   C3921008   2.418   6.245   5.387  0.0769  0.6647  0.7209
  172DOPC   H9X21009   2.353   6.191   5.316  1.1637  1.3242 -0.8355
  172DOPC  C31021010   2.356   6.282   5.502 -0.5903 -0.3595 -0.2992
  172DOPC  H10X21011   2.251   6.251   5.516 -1.2195  1.8179  0.0686
  172DOPC  C31121012   2.431   6.355   5.623 -0.3446  0.4644  0.2230
  172DOPC  H11X21013   2.387   6.451   5.657  0.8556 -0.0526  3.7007
  172DOPC  H11Y21014   2.534   6.381   5.590 -0.4921  0.1902 -0.4533
  172DOPC  C31221015   2.446   6.265   5.755 -0.0442  0.2030  0.8229
  172DOPC  H12X21016   2.531   6.195   5.738  0.9750  1.4244  0.6602
  172DOPC  H12Y21017   2.356   6.202   5.767 -0.6097  1.1196  1.5824
  172DOPC  C31321018   2.469   6.353   5.876  0.2146  0.8467  0.2505
  172DOPC  H13X21019   2.568   6.401   5.857  0.7056 -0.0012  0.6276
  172DOPC  H13Y21020   2.388   6.429   5.878 -0.3379  0.2633  0.2952
  172DOPC  C31421021   2.487   6.266   6.004  0.3522  1.0358  0.0316
  172DOPC  H14X21022   2.387   6.230   6.034 -0.1932  2.5237  0.0924
  172DOPC  H14Y21023   2.534   6.173   5.965 -1.9366  0.1807 -0.8179
  172DOPC  C31521024   2.566   6.324   6.121  0.8982 -0.1173 -0.1802
  172DOPC  H15X21025   2.521   6.424   6.143  2.5766  0.8685 -1.0373
  172DOPC  H15Y21026   2.672   6.342   6.095  1.0209  0.2354  0.5406
  172DOPC  C31621027   2.553   6.234   6.247  0.2856 -0.0541 -0.4867
  172DOPC  H16X21028   2.589   6.284   6.339  1.2996  1.0774 -1.4698
  172DOPC  H16Y21029   2.447   6.209   6.268  0.7276 -0.4300  1.4712
  172DOPC  C31721030   2.638   6.100   6.231  0.3895  0.1999  0.1694
  172DOPC  H17X21031   2.595   6.037   6.150 -0.0959  0.3731  0.2880
  172DOPC  H17Y21032   2.743   6.127   6.205  1.5928 -1.8801  2.4413
  172DOPC  C31821033   2.650   6.007   6.356  0.0004  0.7786  0.5661
  172DOPC  H18X21034   2.701   6.064   6.437 -0.9882  2.1364  0.2701
  172DOPC  H18Y21035   2.548   5.992   6.396 -0.5458 -1.7377 -1.5145
  172DOPC  H18Z21036   2.696   5.908   6.338 -1.8604  0.2894 -1.9884
  173DOPC     N21037   0.215   6.198   4.053 -0.2626 -0.3642  0.3256
  173DOPC   C1221038   0.098   6.196   4.139 -0.1486  0.0209  0.1344
  173DOPC  H12A21039   0.060   6.095   4.148  0.5799 -0.3100 -0.4299
  173DOPC  H12B21040   0.019   6.256   4.096  0.1440  1.0264  0.9445
  173DOPC   C1321041   0.231   6.341   4.005  0.2195  0.4310  0.2892
  173DOPC  H13A21042   0.141   6.360   3.949 -1.2216 -1.4557  1.8353
  173DOPC  H13B21043   0.252   6.411   4.085 -1.2759  0.2604  0.8640
  173DOPC  H13C21044   0.319   6.357   3.944 -0.7415  1.9294 -0.7843
  173DOPC   C1421045   0.183   6.123   3.925 -0.4986 -0.4249  0.7578
  173DOPC  H14A21046   0.182   6.016   3.936 -1.5137 -0.5691 -0.4530
  173DOPC  H14B21047   0.080   6.136   3.893 -0.4557 -0.0262  0.7750
  173DOPC  H14C21048   0.247   6.154   3.843  0.5618  2.9139  2.6586
  173DOPC   C1521049   0.342   6.156   4.109 -0.0792 -0.8183 -0.3042
  173DOPC  H15A21050   0.361   6.210   4.201  0.3348 -0.5223 -0.5619
  173DOPC  H15B21051   0.427   6.171   4.044 -0.0887  2.1050  0.2328
  173DOPC  H15C21052   0.325   6.050   4.127  1.5226 -0.8400  1.4090
  173DOPC   C1121053   0.109   6.269   4.276  0.5538  0.5854  0.4261
  173DOPC  H11A21054   0.011   6.240   4.319 -1.5360  3.4105 -2.0187
  173DOPC  H11B21055   0.192   6.229   4.338 -0.5359 -0.7346  1.0789
  173DOPC     P21056  -0.002   6.505   4.238  0.2069  0.0791  0.0961
  173DOPC   O1321057  -0.117   6.482   4.331 -0.7302  0.3145  0.1718
  173DOPC   O1421058  -0.034   6.498   4.098 -0.0204 -0.1338  0.3557
  173DOPC   O1221059   0.121   6.414   4.258 -0.2020  0.5003 -0.1446
  173DOPC   O1121060   0.052   6.647   4.274  0.4045  0.2790 -0.4188
  173DOPC    C121061   0.187   6.694   4.274  1.0608 -0.4368 -0.0272
  173DOPC    HA21062   0.193   6.800   4.244  0.5327 -0.2848  0.3849
  173DOPC    HB21063   0.253   6.631   4.211 -1.0556 -0.6698 -2.1327
  173DOPC    C221064   0.250   6.702   4.414 -0.3703  0.8805 -0.7176
  173DOPC    HS21065   0.263   6.596   4.446  1.8595  0.3588 -2.9473
  173DOPC   O2121066   0.155   6.791   4.480 -0.1254 -0.1615 -0.0423
  173DOPC   C2121067   0.130   6.768   4.604  0.1311 -0.2069  0.0288
  173DOPC   O2221068   0.199   6.708   4.687  0.2275 -0.4776  0.6561
  173DOPC   C2221069   0.001   6.833   4.642 -0.2525 -0.2766  0.2054
  173DOPC   H2R21070  -0.080   6.757   4.643 -0.4089 -0.1734 -1.8336
  173DOPC   H2S21071  -0.025   6.903   4.560  0.1019 -1.0251 -0.5609
  173DOPC    C321072   0.387   6.773   4.408 -0.4371  0.1355  0.7500
  173DOPC    HX21073   0.361   6.866   4.353  1.0298  0.0464 -0.1488
  173DOPC    HY21074   0.461   6.717   4.346  0.5587  1.5250  0.6222
  173DOPC   O3121075   0.437   6.809   4.538  0.3941 -0.0212 -0.6518
  173DOPC   C3121076   0.562   6.802   4.575  0.0032 -0.5200 -0.7659
  173DOPC   O3221077   0.660   6.758   4.518  0.1147 -0.1994 -0.0918
  173DOPC   C3221078   0.551   6.858   4.727  0.0666 -0.6260  0.3027
  173DOPC   H2X21079   0.574   6.967   4.720  0.9895 -0.7878  0.6254
  173DOPC   H2Y21080   0.448   6.848   4.768 -0.1122  1.3229  0.4436
  173DOPC   C2321081  -0.000   6.920   4.771  1.0303 -0.6526  0.0282
  173DOPC   H3R21082   0.078   6.998   4.776 -0.5796  0.9829  0.9736
  173DOPC   H3S21083   0.018   6.852   4.857  2.4313  0.8077  0.9369
  173DOPC   C2421084  -0.127   7.006   4.791  0.6399  0.3468 -0.0683
  173DOPC   H4R21085  -0.208   6.938   4.825  1.1768  0.1834  0.9364
  173DOPC   H4S21086  -0.141   7.064   4.698  0.4215  0.5966  0.1220
  173DOPC   C2521087  -0.109   7.100   4.913  0.1001 -0.2914  0.3121
  173DOPC   H5R21088  -0.195   7.170   4.917 -0.7425 -1.2395 -0.5841
  173DOPC   H5S21089  -0.025   7.170   4.897 -1.2613  1.3096 -0.1600
  173DOPC   C2621090  -0.085   7.029   5.045  0.8482  0.1907  0.8415
  173DOPC   H6R21091   0.021   6.993   5.048  1.2538  1.3212  0.3865
  173DOPC   H6S21092  -0.145   6.935   5.043 -1.0157  1.3397  0.4161
  173DOPC   C2721093  -0.128   7.094   5.176 -0.7590 -0.3314 -0.1854
  173DOPC   H7R21094  -0.238   7.102   5.170 -0.7370 -0.7408 -1.2357
  173DOPC   H7S21095  -0.083   7.195   5.186  0.8221 -0.7511 -2.2758
  173DOPC   C2821096  -0.092   7.018   5.303 -0.1300  0.5395 -0.0998
  173DOPC   H8R21097  -0.078   7.084   5.391 -0.2707 -0.1812  0.4710
  173DOPC   H8S21098   0.007   6.974   5.279 -0.4162  1.3283 -3.0784
  173DOPC   C2921099  -0.172   6.897   5.341 -0.1046 -0.2487 -0.2593
  173DOPC   H9R21100  -0.178   6.811   5.273 -0.7476 -0.1326 -0.3559
  173DOPC  C21021101  -0.226   6.874   5.464  0.3152 -0.3217  0.2155
  173DOPC  H10R21102  -0.287   6.784   5.480  0.6545 -0.1303  3.1343
  173DOPC  C21121103  -0.205   6.972   5.581  0.2235  0.1381  0.6273
  173DOPC  H11R21104  -0.268   7.063   5.566  0.2347 -0.1833 -1.9168
  173DOPC  H11S21105  -0.107   7.022   5.578 -1.7437  4.4387 -1.7146
  173DOPC  C21221106  -0.239   6.936   5.725  0.1170  0.6375 -0.2483
  173DOPC  H12R21107  -0.202   6.833   5.746 -1.6967 -0.4100 -1.8669
  173DOPC  H12S21108  -0.347   6.945   5.747  0.3070 -0.0463  1.1062
  173DOPC  C21321109  -0.182   7.022   5.839 -0.4750  1.2120 -0.1223
  173DOPC  H13R21110  -0.217   7.128   5.835  0.7722  1.6048 -1.2432
  173DOPC  H13S21111  -0.073   7.026   5.818  0.2572 -1.2139  2.5839
  173DOPC  C21421112  -0.201   6.964   5.981  0.1467 -0.3515  0.2964
  173DOPC  H14R21113  -0.161   6.860   5.983  1.0733 -0.0051  1.8893
  173DOPC  H14S21114  -0.308   6.959   6.010  0.6143 -1.7661  1.9644
  173DOPC  C21521115  -0.126   7.050   6.085 -0.3032  0.6152  0.7240
  173DOPC  H15R21116  -0.186   7.144   6.091 -3.0533 -0.9247 -0.8075
  173DOPC  H15S21117  -0.021   7.072   6.057 -0.5321  1.3340  0.3955
  173DOPC  C21621118  -0.119   6.972   6.215  0.0083 -0.1742 -0.4454
  173DOPC  H16R21119  -0.053   6.887   6.189  1.7796  0.3744  1.9055
  173DOPC  H16S21120  -0.217   6.938   6.255  0.0956 -1.0637 -0.9777
  173DOPC  C21721121  -0.036   7.046   6.318 -0.7842 -0.0364  0.1065
  173DOPC  H17R21122   0.031   7.123   6.273  0.7120 -1.0191  0.5797
  173DOPC  H17S21123   0.015   6.967   6.378 -0.8591 -0.0153  0.1983
  173DOPC  C21821124  -0.125   7.122   6.419 -0.4204  0.2759 -0.2047
  173DOPC  H18R21125  -0.196   7.191   6.369 -1.5996 -0.1544  0.8309
  173DOPC  H18S21126  -0.062   7.181   6.490 -0.0483 -0.3619  0.0064
  173DOPC  H18T21127  -0.184   7.051   6.480  0.2234  0.3812  0.5692
  173DOPC   C3321128   0.656   6.797   4.820 -1.0517 -0.4238 -0.5868
  173DOPC   H3X21129   0.757   6.801   4.774 -0.9119  0.0415 -0.2465
  173DOPC   H3Y21130   0.635   6.688   4.825  0.7278 -0.8524 -1.4126
  173DOPC   C3421131   0.659   6.854   4.964 -0.4178 -0.2749  0.2889
  173DOPC   H4X21132   0.558   6.862   5.009 -0.0716  3.0956  0.7789
  173DOPC   H4Y21133   0.711   6.953   4.961 -0.4311 -0.2808 -0.1921
  173DOPC   C3521134   0.739   6.773   5.062 -0.5877 -0.5433  0.1033
  173DOPC   H5X21135   0.841   6.755   5.023  0.9517  2.2003  2.4656
  173DOPC   H5Y21136   0.683   6.677   5.074 -3.6938  1.1471  0.2468
  173DOPC   C3621137   0.751   6.850   5.193 -0.4631  0.6430  0.0702
  173DOPC   H6X21138   0.817   6.939   5.184 -0.3415  0.5852  0.3813
  173DOPC   H6Y21139   0.649   6.880   5.224 -0.6340  2.6179 -2.1554
  173DOPC   C3721140   0.814   6.773   5.309 -0.6251 -0.1185  0.1928
  173DOPC   H7X21141   0.915   6.730   5.292 -0.1062  0.3117  2.0091
  173DOPC   H7Y21142   0.837   6.845   5.390  0.5827  0.4223 -0.6060
  173DOPC   C3821143   0.720   6.665   5.357 -0.4104 -0.8124  0.3484
  173DOPC   H8X21144   0.724   6.582   5.284 -1.3076 -0.5484 -0.0156
  173DOPC   H8Y21145   0.615   6.699   5.357 -1.1044 -2.6899  2.3856
  173DOPC   C3921146   0.765   6.604   5.485 -0.0170 -0.2943 -0.2920
  173DOPC   H9X21147   0.841   6.525   5.484 -1.1956 -1.4840  0.6537
  173DOPC  C31021148   0.710   6.633   5.607  0.1607 -0.0122 -0.2865
  173DOPC  H10X21149   0.751   6.587   5.698  0.3505 -0.1645 -0.4466
  173DOPC  C31121150   0.614   6.747   5.643  0.4016  0.3372  0.4077
  173DOPC  H11X21151   0.523   6.699   5.685  1.6445 -2.1892  0.4536
  173DOPC  H11Y21152   0.590   6.808   5.553 -0.6888  0.3096  0.6660
  173DOPC  C31221153   0.669   6.854   5.737  0.3528  0.3794 -0.1566
  173DOPC  H12X21154   0.609   6.947   5.744  3.2260  2.3211  0.4035
  173DOPC  H12Y21155   0.760   6.899   5.692  0.5580  0.0751 -0.0498
  173DOPC  C31321156   0.717   6.814   5.877  0.6458  0.0064  0.3396
  173DOPC  H13X21157   0.681   6.709   5.884 -0.4281 -0.0666 -3.6160
  173DOPC  H13Y21158   0.828   6.814   5.863  0.8513  1.1974  1.8089
  173DOPC  C31421159   0.661   6.910   5.977  0.1891  0.7957  0.3638
  173DOPC  H14X21160   0.708   7.009   5.963 -1.2133  1.4608  0.1841
  173DOPC  H14Y21161   0.551   6.922   5.965  0.4224  1.9799 -0.9530
  173DOPC  C31521162   0.691   6.860   6.109 -0.4136 -0.4214 -0.3690
  173DOPC  H15X21163   0.800   6.855   6.129 -0.9832 -1.4673  3.0955
  173DOPC  H15Y21164   0.642   6.761   6.120 -1.1785 -0.0073 -0.0176
  173DOPC  C31621165   0.627   6.943   6.225 -0.5065 -0.1086 -0.0476
  173DOPC  H16X21166   0.649   6.894   6.323 -2.7495 -2.5267 -0.6261
  173DOPC  H16Y21167   0.678   7.041   6.213 -0.3789 -0.0137  1.1165
  173DOPC  C31721168   0.476   6.979   6.210 -0.2611  0.7883  0.3481
  173DOPC  H17X21169   0.456   7.021   6.109  0.7328 -0.4334 -0.3866
  173DOPC  H17Y21170   0.420   6.884   6.226  0.5436  0.5909  2.2843
  173DOPC  C31821171   0.431   7.074   6.322 -0.0750  0.4126 -0.0457
  173DOPC  H18X21172   0.442   7.018   6.418  1.6485 -4.0417 -2.5337
  173DOPC  H18Y21173   0.485   7.171   6.318  0.4830  0.2199  1.7842
  173DOPC  H18Z21174   0.325   7.099   6.300  0.2287 -0.0969 -2.2970
  174DOPC     N21175   3.670   5.783   3.527 -0.5586  0.4623 -0.0558
  174DOPC   C1221176   3.598   5.917   3.518 -0.2818  0.1523  0.3163
  174DOPC  H12A21177   3.618   5.945   3.416  3.2993  1.2092  1.1527
  174DOPC  H12B21178   3.647   5.989   3.582 -0.0256  0.0507  0.2351
  174DOPC   C1321179   3.649   5.712   3.660  0.1906  0.3947  0.1926
  174DOPC  H13A21180   3.696   5.615   3.659 -0.6073 -0.0582 -2.7564
  174DOPC  H13B21181   3.678   5.767   3.748 -3.1234  0.1890  1.5314
  174DOPC  H13C21182   3.546   5.694   3.684  0.0711 -2.4681 -1.9775
  174DOPC   C1421183   3.817   5.799   3.496  0.4320 -0.7296  0.1755
  174DOPC  H14A21184   3.859   5.703   3.471 -0.8357 -1.1450 -0.4674
  174DOPC  H14B21185   3.839   5.871   3.418  0.6993  0.5521  1.3898
  174DOPC  H14C21186   3.873   5.840   3.579  0.5472  1.5772 -0.9467
  174DOPC   C1521187   3.617   5.684   3.422  0.1312 -0.7026  0.1215
  174DOPC  H15A21188   3.654   5.584   3.441 -1.9109 -1.8991 -1.7206
  174DOPC  H15B21189   3.646   5.715   3.323  0.0977  1.2302  0.6810
  174DOPC  H15C21190   3.510   5.683   3.433 -0.0656 -1.1178 -1.6688
  174DOPC   C1121191   3.447   5.926   3.531  0.1768  0.2275 -0.0585
  174DOPC  H11A21192   3.407   6.022   3.491 -1.0585 -0.6858 -1.1089
  174DOPC  H11B21193   3.394   5.850   3.471  2.0125 -0.3236 -1.0632
  174DOPC     P21194   3.432   6.030   3.768  0.2973 -0.1610  0.2821
  174DOPC   O1321195   3.298   6.093   3.785  0.8829  0.3191  0.4564
  174DOPC   O1421196   3.546   6.118   3.728 -0.3013  0.0517  0.5064
  174DOPC   O1221197   3.417   5.902   3.668 -0.0049 -0.4387 -0.0546
  174DOPC   O1121198   3.473   5.961   3.900  0.4705  0.2705  0.4281
  174DOPC    C121199   3.385   5.855   3.950 -0.8735 -0.0216  0.2685
  174DOPC    HA21200   3.400   5.764   3.887  0.1285  0.7102 -0.5891
  174DOPC    HB21201   3.276   5.876   3.944 -0.9508 -0.6607 -0.9906
  174DOPC    C221202   3.414   5.822   4.102 -0.1882 -0.4047 -0.2520
  174DOPC    HS21203   3.379   5.717   4.119 -2.2157  0.4810  1.5579
  174DOPC   O2121204   3.339   5.917   4.189 -0.4168 -0.1366  0.5686
  174DOPC   C2121205   3.222   5.877   4.204 -0.1139  0.6455  0.6490
  174DOPC   O2221206   3.168   5.784   4.147  0.6220 -0.4298  0.3138
  174DOPC   C2221207   3.165   5.959   4.323 -0.1755  1.1097 -0.8030
  174DOPC   H2R21208   3.055   5.949   4.314 -0.2374  0.9312  0.1188
  174DOPC   H2S21209   3.184   6.066   4.302 -1.0388  1.1240 -1.5543
  174DOPC    C321210   3.564   5.842   4.133 -0.0585  0.5196  0.3246
  174DOPC    HX21211   3.578   5.952   4.124  0.9585  0.4100  0.4830
  174DOPC    HY21212   3.615   5.803   4.043 -1.6411 -0.6133 -0.1304
  174DOPC   O3121213   3.605   5.771   4.257 -0.5940  0.0676  0.1479
  174DOPC   C3121214   3.708   5.819   4.318  0.9722  0.0742 -0.2286
  174DOPC   O3221215   3.784   5.907   4.275 -0.3458  0.2978 -0.1976
  174DOPC   C3221216   3.737   5.748   4.451 -0.3363 -0.4118  0.3008
  174DOPC   H2X21217   3.663   5.667   4.468  0.5439 -1.4623 -0.6225
  174DOPC   H2Y21218   3.830   5.687   4.442  0.6536  0.9707  0.7854
  174DOPC   C2321219   3.207   5.903   4.461  0.5581 -0.1580  1.0098
  174DOPC   H3R21220   3.189   5.967   4.550  0.1232  0.0915  0.7438
  174DOPC   H3S21221   3.318   5.897   4.458  0.5365 -0.2656 -0.1436
  174DOPC   C2421222   3.161   5.758   4.495 -0.2939  0.4657  0.2268
  174DOPC   H4R21223   3.182   5.695   4.405 -0.2488  2.5264 -1.2678
  174DOPC   H4S21224   3.051   5.745   4.507 -0.4521 -0.7446 -1.8930
  174DOPC   C2521225   3.235   5.711   4.618  0.5571  0.0879  0.2997
  174DOPC   H5R21226   3.274   5.799   4.675  2.9575 -0.7567  0.0763
  174DOPC   H5S21227   3.308   5.632   4.592 -1.3089 -1.9799  0.9614
  174DOPC   C2621228   3.135   5.642   4.715  0.1802  0.1111 -0.2824
  174DOPC   H6R21229   3.062   5.569   4.675 -2.4036  2.2258  0.2916
  174DOPC   H6S21230   3.066   5.723   4.745  0.2467  0.3422 -0.7471
  174DOPC   C2721231   3.194   5.568   4.840  0.8085 -0.4362  0.1779
  174DOPC   H7R21232   3.260   5.485   4.808  0.6254 -0.3479 -0.4357
  174DOPC   H7S21233   3.098   5.539   4.889 -0.0138  0.6544 -0.7209
  174DOPC   C2821234   3.269   5.658   4.937  0.5144  0.3204  0.2071
  174DOPC   H8R21235   3.215   5.749   4.968 -0.7032 -0.3903  0.2189
  174DOPC   H8S21236   3.356   5.694   4.877  0.1571 -0.4563 -0.8124
  174DOPC   C2921237   3.312   5.573   5.053 -0.3918  0.2912  0.0791
  174DOPC   H9R21238   3.377   5.493   5.014 -2.2105 -0.7754 -0.8981
  174DOPC  C21021239   3.275   5.573   5.182 -0.0418  0.2854 -0.1113
  174DOPC  H10R21240   3.289   5.480   5.240 -2.6238 -0.4168 -0.5032
  174DOPC  C21121241   3.179   5.662   5.247 -0.0956 -0.0377  0.6266
  174DOPC  H11R21242   3.099   5.609   5.302 -0.9687  1.5686  0.9671
  174DOPC  H11S21243   3.120   5.713   5.167  0.3895  2.2211  1.6207
  174DOPC  C21221244   3.237   5.756   5.356 -0.1115  0.3332 -0.0760
  174DOPC  H12R21245   3.201   5.861   5.352  0.2895  0.5254  1.0219
  174DOPC  H12S21246   3.348   5.757   5.353 -0.1113 -0.6979 -2.3145
  174DOPC  C21321247   3.209   5.697   5.496  0.0516 -0.4083  0.1240
  174DOPC  H13R21248   3.264   5.601   5.501 -1.5822 -1.3096  2.6383
  174DOPC  H13S21249   3.103   5.664   5.505 -0.7131  1.9933  0.7753
  174DOPC  C21421250   3.241   5.798   5.607  0.2305 -0.3708 -0.7439
  174DOPC  H14R21251   3.184   5.892   5.589  0.0168 -0.4861 -0.6834
  174DOPC  H14S21252   3.349   5.821   5.615 -0.0360  1.5873 -2.1464
  174DOPC  C21521253   3.185   5.748   5.746 -0.2261 -0.4041  0.5833
  174DOPC  H15R21254   3.080   5.711   5.742 -0.4044  0.0836  0.6254
  174DOPC  H15S21255   3.189   5.838   5.812  2.6170 -0.3364  0.4438
  174DOPC  C21621256   3.267   5.630   5.808  0.2525  0.2014 -0.0604
  174DOPC  H16R21257   3.374   5.660   5.797 -0.0115  1.9964  1.6941
  174DOPC  H16S21258   3.244   5.536   5.754 -0.4888 -0.6556  1.6582
  174DOPC  C21721259   3.231   5.625   5.954 -0.0735  0.4919 -0.3955
  174DOPC  H17R21260   3.130   5.585   5.973 -0.2067  0.9222 -0.1755
  174DOPC  H17S21261   3.237   5.724   6.005 -2.1515  0.2356  0.4355
  174DOPC  C21821262   3.321   5.522   6.025 -0.6980  0.0882 -1.0106
  174DOPC  H18R21263   3.320   5.545   6.134 -0.3452 -1.2266 -0.7152
  174DOPC  H18S21264   3.424   5.522   5.985 -0.7590 -3.1869 -1.4057
  174DOPC  H18T21265   3.297   5.414   6.019 -0.1918 -0.1499  0.6490
  174DOPC   C3321266   3.756   5.847   4.568 -0.0226  0.0158 -0.2875
  174DOPC   H3X21267   3.670   5.914   4.590  1.0539  1.9396 -1.6111
  174DOPC   H3Y21268   3.838   5.918   4.543 -0.4477  0.2585 -1.0241
  174DOPC   C3421269   3.788   5.785   4.702  0.0611  0.1558 -0.4461
  174DOPC   H4X21270   3.896   5.761   4.705  0.4549  1.7585 -1.0010
  174DOPC   H4Y21271   3.732   5.688   4.700 -2.4501  1.4461  1.2930
  174DOPC   C3521272   3.746   5.859   4.826  0.4092 -0.0729 -0.1773
  174DOPC   H5X21273   3.638   5.883   4.819  0.7740  1.8120 -0.0014
  174DOPC   H5Y21274   3.790   5.961   4.818 -0.0998  0.2326  0.7821
  174DOPC   C3621275   3.762   5.786   4.956 -0.3301  0.2316  0.2744
  174DOPC   H6X21276   3.694   5.698   4.958 -1.1330  0.8263 -0.2442
  174DOPC   H6Y21277   3.863   5.745   4.977 -0.4334  0.8105  2.0141
  174DOPC   C3721278   3.710   5.855   5.074 -0.1469  0.3089 -0.5180
  174DOPC   H7X21279   3.769   5.948   5.089 -0.2157  0.2724  0.0038
  174DOPC   H7Y21280   3.602   5.876   5.056  0.0242 -0.0246 -2.0331
  174DOPC   C3821281   3.735   5.771   5.197  0.2376 -0.0479  0.8002
  174DOPC   H8X21282   3.844   5.783   5.216  0.3699 -2.1040  1.6698
  174DOPC   H8Y21283   3.720   5.663   5.176  1.7126 -1.1900  4.7651
  174DOPC   C3921284   3.636   5.798   5.301 -0.8686 -0.9814  0.2675
  174DOPC   H9X21285   3.537   5.781   5.258 -0.4526  2.5352 -2.5925
  174DOPC  C31021286   3.643   5.833   5.426  0.0471  0.7285  0.0305
  174DOPC  H10X21287   3.551   5.844   5.486 -0.3927 -0.0760 -0.4853
  174DOPC  C31121288   3.769   5.849   5.500  0.0976 -0.6500  0.0071
  174DOPC  H11X21289   3.777   5.956   5.530  1.6811 -0.4402 -1.0520
  174DOPC  H11Y21290   3.862   5.830   5.443  1.3439  0.4291  1.5858
  174DOPC  C31221291   3.764   5.769   5.629  0.1406 -0.0091 -0.1550
  174DOPC  H12X21292   3.860   5.782   5.684  0.6097 -2.4783 -0.2684
  174DOPC  H12Y21293   3.758   5.661   5.606  1.1437 -0.3010  0.8191
  174DOPC  C31321294   3.656   5.812   5.722 -0.3350  0.3516  0.0731
  174DOPC  H13X21295   3.634   5.918   5.697  1.4267  0.9787  1.0154
  174DOPC  H13Y21296   3.568   5.750   5.695 -0.2431  0.6194 -0.8544
  174DOPC  C31421297   3.691   5.803   5.872 -0.2118 -0.4127 -0.8254
  174DOPC  H14X21298   3.717   5.699   5.900  0.6482  0.4859  2.1980
  174DOPC  H14Y21299   3.778   5.871   5.887 -1.1171  0.4188  0.9917
  174DOPC  C31521300   3.575   5.846   5.965  0.8519 -0.1510  0.2241
  174DOPC  H15X21301   3.491   5.773   5.956  0.3357  0.4641 -0.0278
  174DOPC  H15Y21302   3.531   5.938   5.922  0.3304 -0.0823  0.8810
  174DOPC  C31621303   3.611   5.868   6.113  0.4218 -0.0145  0.2617
  174DOPC  H16X21304   3.587   5.782   6.179  2.5119 -0.7825  0.0936
  174DOPC  H16Y21305   3.719   5.883   6.131  0.3835 -0.7850  1.2236
  174DOPC  C31721306   3.528   5.991   6.152  0.7560 -0.1417 -0.0342
  174DOPC  H17X21307   3.558   6.036   6.249  0.3364  0.2528 -0.0838
  174DOPC  H17Y21308   3.549   6.078   6.086  0.7990  0.2812  0.5387
  174DOPC  C31821309   3.383   5.964   6.162 -0.2173  0.0338 -0.0380
  174DOPC  H18X21310   3.339   5.979   6.061 -0.9591  2.3131  0.5741
  174DOPC  H18Y21311   3.352   5.862   6.196  0.6023  0.2772  1.5473
  174DOPC  H18Z21312   3.335   6.036   6.232  0.9906 -1.1984  2.1849
  175DOPC     N21313   1.481   0.955   3.942  0.5340  0.0744 -0.1958
  175DOPC   C1221314   1.624   0.982   3.991  0.6129  0.1597 -0.0852
  175DOPC  H12A21315   1.611   0.985   4.099 -0.5841  1.1571 -0.2260
  175DOPC  H12B21316   1.643   1.082   3.955  1.3868 -0.2492 -0.8388
  175DOPC   C1321317   1.443   0.815   3.954 -0.2836 -0.3236 -0.0636
  175DOPC  H13A21318   1.345   0.801   3.912  0.8266 -0.8037 -2.7639
  175DOPC  H13B21319   1.502   0.744   3.897 -0.6520  0.7398 -1.8423
  175DOPC  H13C21320   1.444   0.784   4.057 -1.7626  2.4639  0.8815
  175DOPC   C1421321   1.464   0.991   3.798 -0.4041  0.2687 -0.4183
  175DOPC  H14A21322   1.359   1.001   3.776 -0.8460  2.0799  2.1145
  175DOPC  H14B21323   1.522   1.076   3.767 -0.5576  0.3505 -0.4841
  175DOPC  H14C21324   1.505   0.905   3.747  0.7463 -0.5635  1.7549
  175DOPC   C1521325   1.391   1.044   4.025  0.1465 -0.3404 -0.1971
  175DOPC  H15A21326   1.393   1.009   4.127  0.0686  1.0337  0.2958
  175DOPC  H15B21327   1.295   1.049   3.974  0.5002  2.6038 -0.7402
  175DOPC  H15C21328   1.426   1.146   4.016 -1.2887  0.0088 -3.0779
  175DOPC   C1121329   1.743   0.893   3.940 -0.2460  0.0446 -0.3053
  175DOPC  H11A21330   1.732   0.788   3.976 -1.7003  0.2542 -0.0547
  175DOPC  H11B21331   1.751   0.890   3.829  0.2105  0.5986 -0.2885
  175DOPC     P21332   2.001   0.883   3.992  0.1955  0.2762 -0.1804
  175DOPC   O1321333   2.097   0.969   3.920  0.0273 -0.1089  0.0017
  175DOPC   O1421334   1.985   0.750   3.928  0.2524  0.1866 -0.3143
  175DOPC   O1221335   1.858   0.959   3.993 -0.2135 -0.1373 -0.2523
  175DOPC   O1121336   2.036   0.871   4.150  0.3065 -0.2567  0.2732
  175DOPC    C121337   1.933   0.812   4.238  0.0018  0.3871  1.0068
  175DOPC    HA21338   1.934   0.703   4.259 -3.5507 -0.2824 -1.4402
  175DOPC    HB21339   1.835   0.841   4.194  0.3035 -0.6154 -0.3907
  175DOPC    C221340   1.935   0.890   4.374  0.6428  0.6471 -0.3217
  175DOPC    HS21341   1.844   0.861   4.431  2.3749 -0.2382  2.1649
  175DOPC   O2121342   1.944   1.031   4.354 -0.3301 -0.1315 -0.0901
  175DOPC   C2121343   1.839   1.089   4.305 -0.0222  0.2479 -0.2122
  175DOPC   O2221344   1.730   1.033   4.292  0.6569 -0.2351 -0.0775
  175DOPC   C2221345   1.870   1.239   4.285 -0.9184 -0.1883 -0.1183
  175DOPC   H2R21346   1.826   1.261   4.186 -0.9225  2.1847  0.3443
  175DOPC   H2S21347   1.978   1.263   4.277 -0.1364 -1.6682  3.5978
  175DOPC    C321348   2.048   0.840   4.464  0.3152 -0.2895 -1.1057
  175DOPC    HX21349   2.049   0.915   4.546 -1.9008  0.0863 -1.3438
  175DOPC    HY21350   2.140   0.850   4.403  1.2798 -0.3051  0.3062
  175DOPC   O3121351   2.027   0.701   4.515 -0.0981  0.3930  0.2476
  175DOPC   C3121352   2.131   0.665   4.588 -0.5476 -0.9000  0.0108
  175DOPC   O3221353   2.225   0.735   4.617  0.1362  0.0559 -0.2304
  175DOPC   C3221354   2.096   0.528   4.646  1.3746 -0.2275 -0.6585
  175DOPC   H2X21355   2.017   0.486   4.580 -0.2132  3.5380 -1.4109
  175DOPC   H2Y21356   2.186   0.463   4.635  1.4899 -0.2288  0.1620
  175DOPC   C2321357   1.799   1.336   4.386  0.3346 -0.6552 -0.0549
  175DOPC   H3R21358   1.697   1.295   4.403  0.1393 -1.0136 -1.8420
  175DOPC   H3S21359   1.784   1.437   4.340 -0.6225 -0.8123 -0.1179
  175DOPC   C2421360   1.867   1.347   4.525 -0.5752  0.2282  0.0460
  175DOPC   H4R21361   1.965   1.398   4.516  0.5888 -1.4797  2.0218
  175DOPC   H4S21362   1.888   1.250   4.575  1.3648  0.1909 -0.7530
  175DOPC   C2521363   1.778   1.422   4.622 -0.5599 -0.1610 -0.8667
  175DOPC   H5R21364   1.682   1.373   4.648 -2.1636  1.8231 -2.6898
  175DOPC   H5S21365   1.751   1.524   4.587 -1.0387  0.2693  0.6865
  175DOPC   C2621366   1.850   1.450   4.759 -0.4382 -0.0311 -0.0142
  175DOPC   H6R21367   1.935   1.522   4.757 -1.1919  0.8761 -0.2206
  175DOPC   H6S21368   1.884   1.349   4.789 -2.4507 -1.0416 -0.9954
  175DOPC   C2721369   1.768   1.501   4.879  0.5707 -0.0430  0.7480
  175DOPC   H7R21370   1.683   1.431   4.889 -1.4806  2.0297 -0.9362
  175DOPC   H7S21371   1.726   1.597   4.842 -0.5882 -0.2621  1.4420
  175DOPC   C2821372   1.848   1.516   5.012 -0.2719 -0.1732  0.7387
  175DOPC   H8R21373   1.783   1.569   5.085 -2.8670  0.0976 -1.5800
  175DOPC   H8S21374   1.920   1.592   4.977  0.5543 -1.3641 -0.2613
  175DOPC   C2921375   1.916   1.395   5.062  0.3928  0.2702  0.1384
  175DOPC   H9R21376   1.986   1.353   4.990 -0.2652 -2.4963  0.9778
  175DOPC  C21021377   1.940   1.349   5.188  0.6694 -0.2986 -0.2318
  175DOPC  H10R21378   2.007   1.262   5.204  0.3694 -0.8525 -1.7913
  175DOPC  C21121379   1.867   1.393   5.313 -0.0620  0.4086  0.4436
  175DOPC  H11R21380   1.792   1.323   5.356 -2.3416  2.8581  0.7764
  175DOPC  H11S21381   1.813   1.489   5.295  0.0591  0.6276  1.2260
  175DOPC  C21221382   1.967   1.412   5.429  0.8355 -0.2177  0.1058
  175DOPC  H12R21383   2.056   1.466   5.389  2.2058 -2.4756 -0.0661
  175DOPC  H12S21384   2.017   1.316   5.454  1.6130 -0.1973 -1.2595
  175DOPC  C21321385   1.922   1.486   5.556  0.1328  0.6277 -0.0953
  175DOPC  H13R21386   1.911   1.594   5.529  1.8427  0.0795 -3.6609
  175DOPC  H13S21387   1.999   1.479   5.636 -1.2140  2.7503  1.5111
  175DOPC  C21421388   1.781   1.434   5.604  0.3152 -0.1342  0.1476
  175DOPC  H14R21389   1.788   1.323   5.614  0.9495  0.0483  2.0929
  175DOPC  H14S21390   1.704   1.450   5.526  0.2677 -1.8519 -0.1950
  175DOPC  C21521391   1.747   1.498   5.739  0.0909  0.6182  0.1437
  175DOPC  H15R21392   1.746   1.607   5.718 -1.8365  1.1178  2.4214
  175DOPC  H15S21393   1.836   1.484   5.805 -0.4077 -0.0407  0.6896
  175DOPC  C21621394   1.622   1.436   5.793  0.0636 -0.1276  0.4355
  175DOPC  H16R21395   1.641   1.330   5.769  3.0813  0.6111 -0.8393
  175DOPC  H16S21396   1.537   1.480   5.735 -1.5059 -0.6323  2.2337
  175DOPC  C21721397   1.600   1.447   5.943 -0.7026 -0.2854 -1.3282
  175DOPC  H17R21398   1.517   1.381   5.978  0.1646 -0.6660  0.0745
  175DOPC  H17S21399   1.566   1.552   5.954 -1.0630 -0.5470  0.3186
  175DOPC  C21821400   1.726   1.421   6.025  0.2677 -0.4978 -0.5506
  175DOPC  H18R21401   1.705   1.423   6.134 -1.1727 -2.0130 -0.7501
  175DOPC  H18S21402   1.806   1.496   6.011 -0.5597  0.6149  0.3934
  175DOPC  H18T21403   1.771   1.320   6.018  1.0852 -0.2555  0.7766
  175DOPC   C3321404   2.046   0.536   4.795  0.1669  0.0656 -0.2480
  175DOPC   H3X21405   1.998   0.438   4.812 -0.4120  0.6930  2.1593
  175DOPC   H3Y21406   1.970   0.614   4.814 -0.4299 -1.0533  2.3881
  175DOPC   C3421407   2.156   0.546   4.905 -0.0041 -0.4325 -0.1297
  175DOPC   H4X21408   2.206   0.645   4.908 -0.1012 -0.3042 -1.7904
  175DOPC   H4Y21409   2.225   0.460   4.891 -0.2034 -0.7461  0.7451
  175DOPC   C3521410   2.107   0.528   5.050  0.3955  0.3999  0.7288
  175DOPC   H5X21411   2.080   0.420   5.051 -1.3580  0.7696 -0.7350
  175DOPC   H5Y21412   2.018   0.594   5.063 -0.7318 -1.0559  0.7190
  175DOPC   C3621413   2.204   0.576   5.158 -0.1636 -0.0493 -0.4006
  175DOPC   H6X21414   2.299   0.517   5.154  1.8256  2.8866  0.2675
  175DOPC   H6Y21415   2.225   0.683   5.142  1.1122 -0.1310  0.5866
  175DOPC   C3721416   2.146   0.570   5.301  0.3918  0.2656  0.5719
  175DOPC   H7X21417   2.205   0.599   5.391  1.1185  0.3028  0.0954
  175DOPC   H7Y21418   2.062   0.641   5.316  1.8909  2.2463 -0.0226
  175DOPC   C3821419   2.078   0.433   5.337  0.5148  0.1090  0.0690
  175DOPC   H8X21420   2.025   0.388   5.251  1.7915  0.3892 -0.8821
  175DOPC   H8Y21421   2.011   0.468   5.419  3.1530  2.7795  1.3223
  175DOPC   C3921422   2.178   0.326   5.383  1.3453  0.4985  0.0914
  175DOPC   H9X21423   2.205   0.254   5.304 -0.3940  0.6622 -0.7183
  175DOPC  C31021424   2.234   0.325   5.502  0.1962  0.1379  0.2164
  175DOPC  H10X21425   2.306   0.245   5.526 -1.5230 -1.8896 -1.1132
  175DOPC  C31121426   2.206   0.429   5.612 -0.3013  0.3669  0.1248
  175DOPC  H11X21427   2.127   0.504   5.592 -1.6016 -0.7387  0.8998
  175DOPC  H11Y21428   2.297   0.489   5.632  0.4510 -0.1020 -1.7529
  175DOPC  C31221429   2.149   0.367   5.741  0.2026  0.0826  0.2413
  175DOPC  H12X21430   2.229   0.301   5.779 -0.3398 -0.0688  1.1388
  175DOPC  H12Y21431   2.052   0.313   5.732 -1.8836  3.7533 -1.8129
  175DOPC  C31321432   2.139   0.472   5.849  0.4584 -0.1099 -0.1133
  175DOPC  H13X21433   2.232   0.531   5.866  0.9977 -1.2645  1.2306
  175DOPC  H13Y21434   2.072   0.551   5.808 -0.6526 -1.0739 -0.1940
  175DOPC  C31421435   2.090   0.417   5.983  0.3100  0.2001  0.4824
  175DOPC  H14X21436   2.007   0.343   5.974 -0.6842  0.6967  3.9692
  175DOPC  H14Y21437   2.175   0.357   6.021  1.8893 -0.9774 -4.2356
  175DOPC  C31521438   2.047   0.512   6.095  0.1880 -0.8614  0.2202
  175DOPC  H15X21439   2.126   0.578   6.138 -2.1248  0.1463  3.1716
  175DOPC  H15Y21440   2.001   0.450   6.174  2.7593 -0.4839  2.1673
  175DOPC  C31621441   1.947   0.613   6.048  0.5437 -0.3428 -0.4187
  175DOPC  H16X21442   2.008   0.687   5.991 -0.2637  0.2439 -0.5423
  175DOPC  H16Y21443   1.874   0.576   5.972  0.8952  1.4603 -1.7148
  175DOPC  C31721444   1.882   0.684   6.168  0.1076  0.6184  0.1254
  175DOPC  H17X21445   1.816   0.761   6.123  1.5112  0.7676 -1.7973
  175DOPC  H17Y21446   1.828   0.615   6.235 -0.6000  0.2507 -0.8004
  175DOPC  C31821447   1.971   0.758   6.266  0.6175  0.2296  0.7418
  175DOPC  H18X21448   1.924   0.816   6.348 -1.8157 -0.3205 -0.1824
  175DOPC  H18Y21449   2.039   0.686   6.317  1.2501  0.2862  0.0113
  175DOPC  H18Z21450   2.033   0.822   6.199 -1.3097 -0.4746 -1.8991
  176DOPC     N21451   3.394   4.084   3.357 -0.2482  0.3850 -0.2159
  176DOPC   C1221452   3.433   4.199   3.448  0.3712  0.0991 -0.2902
  176DOPC  H12A21453   3.358   4.211   3.524  0.9050  0.4886  0.1857
  176DOPC  H12B21454   3.434   4.294   3.397  0.9469  0.5776  0.5899
  176DOPC   C1321455   3.470   4.081   3.230 -0.4170 -0.0279 -0.0063
  176DOPC  H13A21456   3.440   4.157   3.160 -0.6681  2.0613  2.2526
  176DOPC  H13B21457   3.575   4.095   3.250 -0.4426  1.6598 -0.9183
  176DOPC  H13C21458   3.458   3.987   3.179 -0.5639  0.9203 -1.7995
  176DOPC   C1421459   3.250   4.088   3.320  0.0949  0.2308 -0.4508
  176DOPC  H14A21460   3.226   4.178   3.265 -0.4303  0.7122  0.5318
  176DOPC  H14B21461   3.223   3.992   3.278  1.2060 -0.1720 -0.2640
  176DOPC  H14C21462   3.187   4.093   3.408  2.6544  2.6314  1.4137
  176DOPC   C1521463   3.414   3.948   3.420 -0.1557 -0.2577  0.3023
  176DOPC  H15A21464   3.513   3.934   3.461  0.2783 -0.7701 -0.8910
  176DOPC  H15B21465   3.391   3.863   3.358  1.0076 -0.9086  0.7266
  176DOPC  H15C21466   3.348   3.940   3.506  0.1699 -1.0807  0.4877
  176DOPC   C1121467   3.566   4.196   3.523  0.6715  0.0196  0.4317
  176DOPC  H11A21468   3.582   4.283   3.590 -0.8689  1.4037 -0.9389
  176DOPC  H11B21469   3.548   4.111   3.593 -1.1199 -0.7842 -0.9250
  176DOPC     P21470   3.786   4.278   3.416  0.0003 -0.4311  0.1576
  176DOPC   O1321471   3.719   4.397   3.366 -0.4128 -0.4298  0.2407
  176DOPC   O1421472   3.892   4.220   3.339  0.1445  0.2840 -0.5127
  176DOPC   O1221473   3.677   4.166   3.438  0.5068 -0.1370  0.0790
  176DOPC   O1121474   3.848   4.310   3.558  0.2996 -0.1216 -0.1114
  176DOPC    C121475   3.896   4.201   3.636 -0.1429 -0.5560 -0.4533
  176DOPC    HA21476   3.990   4.162   3.590  0.7957  1.5560 -0.4337
  176DOPC    HB21477   3.823   4.118   3.647 -0.9230 -0.0452 -1.6380
  176DOPC    C221478   3.951   4.266   3.769  1.1365 -0.3846 -0.5110
  176DOPC    HS21479   3.981   4.190   3.844 -1.4690 -0.5914  0.4518
  176DOPC   O2121480   3.844   4.345   3.829  0.1047 -0.3044 -0.5734
  176DOPC   C2121481   3.748   4.280   3.888 -0.1069  0.0876  0.2240
  176DOPC   O2221482   3.749   4.157   3.909 -0.4410 -0.7064 -0.0326
  176DOPC   C2221483   3.637   4.386   3.928 -0.1324  0.6960 -1.0358
  176DOPC   H2R21484   3.577   4.400   3.835 -1.6900 -1.0655 -0.3677
  176DOPC   H2S21485   3.690   4.478   3.959 -0.5357  0.7764 -0.5840
  176DOPC    C321486   4.083   4.344   3.751  0.0824 -0.3852 -0.3275
  176DOPC    HX21487   4.089   4.423   3.673  0.1433 -0.9718 -0.9276
  176DOPC    HY21488   4.144   4.259   3.712 -0.1251  0.3376 -2.3187
  176DOPC   O3121489   4.145   4.374   3.877  0.3614 -0.1771 -0.2964
  176DOPC   C3121490   4.115   4.501   3.922  0.2348 -0.8720 -1.3531
  176DOPC   O3221491   4.058   4.591   3.860  0.0398  0.2462 -0.2750
  176DOPC   C3221492   4.191   4.527   4.052  0.0581 -0.0819  0.1795
  176DOPC   H2X21493   4.265   4.447   4.074  1.3846  0.8460 -0.7505
  176DOPC   H2Y21494   4.252   4.619   4.040 -0.3877  0.2418  0.3952
  176DOPC   C2321495   3.524   4.349   4.027  0.1939 -0.2469  0.0536
  176DOPC   H3R21496   3.491   4.244   4.007  0.0765 -0.2222  0.1155
  176DOPC   H3S21497   3.440   4.420   4.014  0.1799 -0.3979 -0.7392
  176DOPC   C2421498   3.578   4.350   4.170  0.0041  0.1181  0.4361
  176DOPC   H4R21499   3.620   4.452   4.181 -0.0163  0.0221  1.4702
  176DOPC   H4S21500   3.646   4.262   4.168 -0.9063 -0.5980 -1.1978
  176DOPC   C2521501   3.466   4.323   4.268  0.1702 -0.2371  0.0778
  176DOPC   H5R21502   3.483   4.218   4.300 -0.4241 -0.7126 -1.1121
  176DOPC   H5S21503   3.366   4.318   4.220  0.0750  0.1176  0.2386
  176DOPC   C2621504   3.476   4.403   4.399 -0.5002 -0.8325  0.3612
  176DOPC   H6R21505   3.487   4.510   4.371  0.5881 -1.2356 -0.8364
  176DOPC   H6S21506   3.572   4.376   4.447 -0.0287  3.0671  2.0013
  176DOPC   C2721507   3.358   4.379   4.495 -0.4040 -0.4108 -0.3240
  176DOPC   H7R21508   3.346   4.269   4.489 -1.7138 -0.2212 -1.6469
  176DOPC   H7S21509   3.279   4.429   4.434 -0.6964  1.1977  1.2709
  176DOPC   C2821510   3.369   4.448   4.631 -0.8911  0.4192 -0.1762
  176DOPC   H8R21511   3.270   4.455   4.680 -0.6306  0.2147  0.3953
  176DOPC   H8S21512   3.406   4.547   4.595 -0.0032 -0.5202 -2.0083
  176DOPC   C2921513   3.465   4.385   4.731 -0.5554  0.0249  0.3704
  176DOPC   H9R21514   3.570   4.401   4.703 -0.6957  1.3971  0.5508
  176DOPC  C21021515   3.440   4.336   4.854  0.0694 -0.0850 -0.7966
  176DOPC  H10R21516   3.526   4.301   4.912 -0.1693 -1.8177 -1.4087
  176DOPC  C21121517   3.301   4.318   4.912 -1.4791  0.4105  0.3068
  176DOPC  H11R21518   3.242   4.251   4.845 -0.9765 -0.9913  1.2264
  176DOPC  H11S21519   3.248   4.416   4.915  0.6521  1.5987  2.4673
  176DOPC  C21221520   3.297   4.266   5.057  0.5418  0.4979 -0.1250
  176DOPC  H12R21521   3.380   4.194   5.074  0.2876  0.2058 -0.0952
  176DOPC  H12S21522   3.198   4.218   5.075  1.0674 -0.7615 -0.4745
  176DOPC  C21321523   3.305   4.383   5.162 -0.2817 -0.1901 -0.5632
  176DOPC  H13R21524   3.216   4.450   5.161 -1.7308 -2.0365 -0.6862
  176DOPC  H13S21525   3.399   4.443   5.164 -0.1006 -0.4037 -1.9925
  176DOPC  C21421526   3.304   4.311   5.296  0.1654  0.4829 -0.2104
  176DOPC  H14R21527   3.370   4.223   5.313  0.1245  0.3488 -0.7393
  176DOPC  H14S21528   3.210   4.252   5.297  1.1957 -1.2431  1.1348
  176DOPC  C21521529   3.317   4.405   5.415  0.3439 -0.6387  0.5794
  176DOPC  H15R21530   3.213   4.444   5.421  0.2835 -0.7766  0.4283
  176DOPC  H15S21531   3.384   4.492   5.400 -0.1107 -0.0365  1.9284
  176DOPC  C21621532   3.353   4.320   5.544 -0.0496 -0.6445  0.6104
  176DOPC  H16R21533   3.458   4.283   5.540 -0.5427 -2.0104 -0.6342
  176DOPC  H16S21534   3.278   4.239   5.558 -2.7732  1.8550  1.4712
  176DOPC  C21721535   3.330   4.407   5.673 -0.1827 -0.0766  0.5009
  176DOPC  H17R21536   3.225   4.440   5.687 -0.5363 -1.2780  0.8004
  176DOPC  H17S21537   3.398   4.494   5.661 -1.8355  1.0052 -1.5063
  176DOPC  C21821538   3.368   4.331   5.796  0.1276  0.2147  0.1900
  176DOPC  H18R21539   3.334   4.381   5.890 -1.2417 -0.8747  0.3085
  176DOPC  H18S21540   3.478   4.327   5.811  0.2122 -0.3571 -0.5656
  176DOPC  H18T21541   3.312   4.235   5.800 -2.2377  1.4218 -1.7930
  176DOPC   C3321542   4.093   4.534   4.173 -0.2027 -0.5475 -0.2090
  176DOPC   H3X21543   4.037   4.629   4.159  1.2563  0.2117 -1.0759
  176DOPC   H3Y21544   4.139   4.534   4.274 -2.1270 -0.1690  0.7145
  176DOPC   C3421545   3.994   4.414   4.186 -0.2247  0.1962 -0.1674
  176DOPC   H4X21546   4.051   4.319   4.196 -0.8691 -0.1140  0.6514
  176DOPC   H4Y21547   3.941   4.397   4.089  1.4379  1.6528 -1.3941
  176DOPC   C3521548   3.887   4.426   4.295 -0.3827 -0.0479  0.1336
  176DOPC   H5X21549   3.837   4.327   4.303  0.2223 -0.2889  1.2882
  176DOPC   H5Y21550   3.814   4.503   4.264 -0.7256  0.1682  1.4234
  176DOPC   C3621551   3.934   4.464   4.436 -0.2725 -0.4443  0.4030
  176DOPC   H6X21552   3.994   4.378   4.474 -0.1188  0.8272  3.2773
  176DOPC   H6Y21553   3.989   4.559   4.422  0.9080 -1.2942 -0.9269
  176DOPC   C3721554   3.826   4.491   4.548 -0.2166  0.2324  0.0168
  176DOPC   H7X21555   3.739   4.543   4.503 -0.1192  0.4017  0.0234
  176DOPC   H7Y21556   3.790   4.394   4.588  1.1191 -0.7534 -1.0959
  176DOPC   C3821557   3.891   4.564   4.662 -0.6010  0.1555  0.0912
  176DOPC   H8X21558   3.818   4.623   4.721  1.6153  3.4721 -0.2064
  176DOPC   H8Y21559   3.943   4.649   4.612  0.7296 -0.2378  0.7429
  176DOPC   C3921560   3.991   4.478   4.737  0.1122 -0.5860 -1.0609
  176DOPC   H9X21561   4.087   4.455   4.688  0.4792  1.4378 -1.3760
  176DOPC  C31021562   3.978   4.457   4.872  0.6532 -0.5749  0.0352
  176DOPC  H10X21563   4.058   4.402   4.923  0.5249 -0.4808  0.3448
  176DOPC  C31121564   3.853   4.493   4.958 -0.7224 -0.1748 -0.6371
  176DOPC  H11X21565   3.761   4.464   4.903 -1.2714 -1.0203  0.6801
  176DOPC  H11Y21566   3.859   4.603   4.976  2.0975 -0.4692  0.7263
  176DOPC  C31221567   3.840   4.422   5.098 -0.0704 -0.1328  0.0228
  176DOPC  H12X21568   3.908   4.462   5.176  1.2429 -0.2742 -1.0183
  176DOPC  H12Y21569   3.865   4.316   5.075  0.5946  0.2906 -1.3100
  176DOPC  C31321570   3.696   4.437   5.151  0.4651 -0.0536  0.0246
  176DOPC  H13X21571   3.671   4.544   5.164  1.5353  0.1253  0.7822
  176DOPC  H13Y21572   3.628   4.410   5.067 -2.7902  1.4590  1.9903
  176DOPC  C31421573   3.664   4.339   5.266  0.0159  0.0746 -0.5478
  176DOPC  H14X21574   3.558   4.356   5.293  0.2047  1.0024 -0.3460
  176DOPC  H14Y21575   3.685   4.236   5.231  3.1490 -0.6599  2.7782
  176DOPC  C31521576   3.748   4.354   5.396  0.0923  0.4230  0.8894
  176DOPC  H15X21577   3.855   4.361   5.366 -1.0874  0.3473 -4.1000
  176DOPC  H15Y21578   3.719   4.270   5.463  0.0827  0.1582  0.5520
  176DOPC  C31621579   3.711   4.482   5.468  0.5758 -0.0147 -0.4385
  176DOPC  H16X21580   3.722   4.569   5.400 -3.4395  0.4633 -0.7676
  176DOPC  H16Y21581   3.602   4.481   5.490  0.3410  0.8351 -1.4786
  176DOPC  C31721582   3.783   4.510   5.607 -0.3560 -0.5702  0.5585
  176DOPC  H17X21583   3.770   4.421   5.672 -0.4470 -1.1792 -0.2830
  176DOPC  H17Y21584   3.893   4.508   5.589 -0.2240  1.5101  0.8758
  176DOPC  C31821585   3.743   4.631   5.697 -0.3347  0.2160 -0.0437
  176DOPC  H18X21586   3.809   4.646   5.785  0.3303 -2.5345  0.0157
  176DOPC  H18Y21587   3.732   4.728   5.644  3.2713  0.7918 -0.0264
  176DOPC  H18Z21588   3.648   4.594   5.741  0.9624 -1.4573  1.5212
  177DOPC     N21589   4.178   2.208   3.941 -0.1635 -0.2858  0.2493
  177DOPC   C1221590   4.077   2.315   3.927  0.2389  0.3390 -0.3467
  177DOPC  H12A21591   3.980   2.268   3.936 -0.1171  1.3841  2.1803
  177DOPC  H12B21592   4.073   2.369   3.834 -0.2994  4.0499  1.6328
  177DOPC   C1321593   4.145   2.103   3.841  0.2691  0.5730  0.6547
  177DOPC  H13A21594   4.213   2.021   3.856  1.3563  1.3787  0.2467
  177DOPC  H13B21595   4.046   2.064   3.860 -0.2032  1.7526  0.6960
  177DOPC  H13C21596   4.146   2.145   3.741 -1.7662  0.2147  0.4275
  177DOPC   C1421597   4.184   2.148   4.076 -0.4525 -0.4324  0.0783
  177DOPC  H14A21598   4.093   2.100   4.108 -0.3553  0.2915  1.5161
  177DOPC  H14B21599   4.259   2.071   4.067  0.0612  0.1034 -0.3111
  177DOPC  H14C21600   4.217   2.227   4.142 -2.7365  0.1390  0.6312
  177DOPC   C1521601   4.318   2.261   3.909  0.2852  0.0961 -0.2896
  177DOPC  H15A21602   4.388   2.180   3.909 -0.3419 -0.4806  1.1598
  177DOPC  H15B21603   4.351   2.334   3.981  1.4991  0.0665 -0.7896
  177DOPC  H15C21604   4.315   2.314   3.815 -1.5917  1.0699  0.2626
  177DOPC   C1121605   4.079   2.427   4.038  0.1113 -0.8941  0.3419
  177DOPC  H11A21606   3.994   2.497   4.026 -0.1564 -1.3341 -0.4382
  177DOPC  H11B21607   4.066   2.386   4.140 -0.8487  1.7971  1.3813
  177DOPC     P21608   4.261   2.587   4.131  0.3546 -0.0763 -0.6805
  177DOPC   O1321609   4.248   2.727   4.080 -0.3480 -0.1658 -0.5002
  177DOPC   O1421610   4.402   2.546   4.161  0.2606  0.2239  0.6436
  177DOPC   O1221611   4.204   2.497   4.028 -0.4999  0.6149 -0.3426
  177DOPC   O1121612   4.176   2.567   4.271 -0.1352 -0.0133  0.0511
  177DOPC    C121613   4.047   2.635   4.286 -0.5751 -0.3039  0.1300
  177DOPC    HA21614   3.972   2.566   4.331 -1.1123  0.9261  1.1908
  177DOPC    HB21615   3.990   2.658   4.194 -1.8354  0.9266  1.1846
  177DOPC    C221616   4.065   2.761   4.371 -0.3583 -0.2285  0.7179
  177DOPC    HS21617   4.159   2.814   4.347 -1.2058  1.3502  0.7583
  177DOPC   O2121618   4.069   2.718   4.511 -0.1967  0.2463 -0.0919
  177DOPC   C2121619   4.160   2.783   4.584  0.6579  0.0856 -0.1907
  177DOPC   O2221620   4.232   2.871   4.542  0.4285 -0.2261 -0.1075
  177DOPC   C2221621   4.142   2.740   4.723 -0.2983 -0.0335 -0.1818
  177DOPC   H2R21622   4.159   2.630   4.725  0.5960  0.0836 -0.6458
  177DOPC   H2S21623   4.040   2.767   4.755  0.6338  1.5618  1.6538
  177DOPC    C321624   3.944   2.859   4.351 -0.4048  0.6117 -0.3304
  177DOPC    HX21625   3.853   2.796   4.362 -0.6527  0.6187 -2.1595
  177DOPC    HY21626   3.945   2.908   4.252  1.2230 -0.2930 -0.7933
  177DOPC   O3121627   3.958   2.966   4.454  0.2831  0.0228 -0.4266
  177DOPC   C3121628   3.854   3.050   4.449 -0.5413  0.6207 -0.9141
  177DOPC   O3221629   3.761   3.037   4.373  0.1195  0.0931 -0.7593
  177DOPC   C3221630   3.879   3.168   4.544 -0.3739  0.5836  0.1037
  177DOPC   H2X21631   3.978   3.160   4.593 -0.0868 -0.6060 -0.6219
  177DOPC   H2Y21632   3.876   3.257   4.478  0.8228  0.4015 -0.2109
  177DOPC   C2321633   4.243   2.798   4.823 -0.0250 -0.1292 -0.0558
  177DOPC   H3R21634   4.278   2.891   4.772  2.4965 -0.5397  0.7665
  177DOPC   H3S21635   4.332   2.731   4.830 -1.0827 -1.4959  0.6485
  177DOPC   C2421636   4.176   2.818   4.961  0.0780 -0.2859  0.5978
  177DOPC   H4R21637   4.253   2.857   5.031  0.5426 -0.5881  0.2550
  177DOPC   H4S21638   4.133   2.720   4.990  2.3425 -0.8344  2.3748
  177DOPC   C2521639   4.072   2.929   4.962  0.3778  0.5830  0.1327
  177DOPC   H5R21640   3.988   2.902   4.894  1.2087 -1.3815 -0.1863
  177DOPC   H5S21641   4.109   3.030   4.935 -1.8190  1.3034 -0.4058
  177DOPC   C2621642   4.006   2.932   5.110 -0.0211  0.5915 -0.2317
  177DOPC   H6R21643   4.082   2.915   5.189  0.5395  1.7709 -0.4937
  177DOPC   H6S21644   3.934   2.849   5.125 -2.4298  2.5272 -0.4861
  177DOPC   C2721645   3.939   3.065   5.121 -0.0481  0.2580  0.8002
  177DOPC   H7R21646   3.865   3.079   5.039  0.0760  0.0967  0.6585
  177DOPC   H7S21647   4.017   3.142   5.103  0.4520 -0.4605 -0.1979
  177DOPC   C2821648   3.877   3.097   5.261 -0.2221  0.1569  0.4223
  177DOPC   H8R21649   3.804   3.020   5.294 -0.3935  1.5727  3.7675
  177DOPC   H8S21650   3.822   3.193   5.251 -1.4811 -0.4240  1.5097
  177DOPC   C2921651   3.982   3.102   5.367  0.6836 -0.5116 -0.5983
  177DOPC   H9R21652   4.063   3.171   5.339 -0.4608  0.4409 -1.6104
  177DOPC  C21021653   4.005   3.020   5.475 -0.1739 -0.6326  0.2106
  177DOPC  H10R21654   4.086   3.044   5.545  1.9647  1.4293 -2.7223
  177DOPC  C21121655   3.901   2.919   5.521  0.0726  0.3615 -0.0503
  177DOPC  H11R21656   3.959   2.824   5.517  0.7641  0.8127 -1.7516
  177DOPC  H11S21657   3.813   2.904   5.455  0.9127 -0.5288 -1.0061
  177DOPC  C21221658   3.854   2.943   5.664 -0.8824  0.0528 -0.0048
  177DOPC  H12R21659   3.930   2.925   5.743 -0.7786 -1.8803 -0.4790
  177DOPC  H12S21660   3.782   2.859   5.678 -0.5572  0.0275  1.7028
  177DOPC  C21321661   3.790   3.081   5.693  0.0530  0.2782  0.7915
  177DOPC  H13R21662   3.751   3.124   5.598 -0.2952  0.9461  1.2265
  177DOPC  H13S21663   3.874   3.144   5.730  0.3010  0.4146 -0.0027
  177DOPC  C21421664   3.684   3.095   5.801  0.4172  0.9022 -0.3156
  177DOPC  H14R21665   3.643   3.198   5.792 -2.3616  0.2174  2.5992
  177DOPC  H14S21666   3.748   3.100   5.891 -0.3551  0.9765  0.2391
  177DOPC  C21521667   3.566   3.000   5.794 -0.3655  0.0649 -1.1240
  177DOPC  H15R21668   3.613   2.904   5.821 -1.9296 -0.1969  0.8888
  177DOPC  H15S21669   3.537   2.991   5.687 -1.8699  0.0392 -0.7330
  177DOPC  C21621670   3.469   3.015   5.913  0.0388 -0.0165  0.3437
  177DOPC  H16R21671   3.514   3.082   5.990  1.2298 -1.2086  0.7104
  177DOPC  H16S21672   3.452   2.918   5.964 -0.9723 -0.6218 -1.0744
  177DOPC  C21721673   3.336   3.092   5.884  0.5107  0.3954 -0.3842
  177DOPC  H17R21674   3.361   3.195   5.851 -0.3976  0.7033 -0.1357
  177DOPC  H17S21675   3.282   3.104   5.981 -2.0417  0.1084 -1.6922
  177DOPC  C21821676   3.244   3.024   5.789  0.2747  0.1369  0.6703
  177DOPC  H18R21677   3.209   2.921   5.811 -3.3649  0.9949 -0.4429
  177DOPC  H18S21678   3.293   3.031   5.689  0.8579 -1.1073  0.8558
  177DOPC  H18T21679   3.150   3.082   5.779 -1.2296 -2.0168  1.7553
  177DOPC   C3321680   3.771   3.185   4.656  0.7222 -0.3225 -0.5224
  177DOPC   H3X21681   3.767   3.098   4.724  0.7099 -1.0058 -1.3848
  177DOPC   H3Y21682   3.669   3.184   4.613  1.1524  1.1514 -1.6771
  177DOPC   C3421683   3.786   3.323   4.732  0.4407 -0.1719 -0.0612
  177DOPC   H4X21684   3.696   3.328   4.796 -0.2867 -1.6817 -0.8975
  177DOPC   H4Y21685   3.770   3.402   4.656 -1.8773 -0.0762  0.4512
  177DOPC   C3521686   3.919   3.341   4.808 -0.3152 -0.3632 -0.0779
  177DOPC   H5X21687   4.000   3.338   4.731  0.1237  1.0516  0.2839
  177DOPC   H5Y21688   3.940   3.254   4.873  0.5376 -0.5411 -0.5787
  177DOPC   C3621689   3.932   3.474   4.879 -0.4367  0.7167 -0.3761
  177DOPC   H6X21690   3.927   3.567   4.817 -0.5692  1.7320  1.0906
  177DOPC   H6Y21691   3.843   3.476   4.944 -0.4627  2.9568 -0.3956
  177DOPC   C3721692   4.067   3.466   4.955 -0.4702  0.2233 -0.2828
  177DOPC   H7X21693   4.070   3.368   5.008  0.1325  1.0548  1.2757
  177DOPC   H7Y21694   4.148   3.481   4.880  0.1520 -0.9546  0.1266
  177DOPC   C3821695   4.076   3.566   5.074  0.7192  0.9021 -0.3152
  177DOPC   H8X21696   3.970   3.579   5.104  0.8042 -2.0737  1.7071
  177DOPC   H8Y21697   4.105   3.662   5.026  1.9798  1.7068  1.8771
  177DOPC   C3921698   4.188   3.531   5.168 -0.1528  0.7660  0.2321
  177DOPC   H9X21699   4.282   3.512   5.115 -0.9236 -1.2501 -0.5179
  177DOPC  C31021700   4.170   3.497   5.299 -0.4362  0.3947  0.2215
  177DOPC  H10X21701   4.260   3.460   5.350 -1.3353 -3.0195 -0.3878
  177DOPC  C31121702   4.042   3.489   5.374  0.2359 -0.5483 -0.2683
  177DOPC  H11X21703   3.992   3.393   5.350  0.6011 -0.5914 -0.8730
  177DOPC  H11Y21704   3.977   3.570   5.335 -0.7223 -1.1692  0.0080
  177DOPC  C31221705   4.053   3.515   5.528 -0.6269  1.0580  0.2128
  177DOPC  H12X21706   3.950   3.509   5.567 -1.2539  0.8516 -1.3953
  177DOPC  H12Y21707   4.098   3.615   5.549 -1.4457  1.1968  1.3528
  177DOPC  C31321708   4.148   3.407   5.597  0.1580  0.3970  0.2586
  177DOPC  H13X21709   4.134   3.315   5.536 -0.9395  1.9034 -1.8835
  177DOPC  H13Y21710   4.254   3.442   5.589 -0.0328  0.6115 -1.7071
  177DOPC  C31421711   4.116   3.366   5.734  0.2948 -0.1784 -0.5070
  177DOPC  H14X21712   4.016   3.318   5.741 -1.5431  3.4705  0.6415
  177DOPC  H14Y21713   4.185   3.285   5.766  0.4443 -1.2008 -3.1521
  177DOPC  C31521714   4.119   3.485   5.836 -0.1664  0.0023  1.1694
  177DOPC  H15X21715   4.044   3.560   5.804  1.5039  1.0813 -0.4628
  177DOPC  H15Y21716   4.223   3.523   5.826 -0.3864  0.3298 -0.0173
  177DOPC  C31621717   4.097   3.434   5.981  0.2661  0.0934 -0.0181
  177DOPC  H16X21718   4.050   3.519   6.036  0.4762  0.4382 -0.3634
  177DOPC  H16Y21719   4.024   3.351   5.972  0.5185 -0.1035 -0.2374
  177DOPC  C31721720   4.218   3.405   6.069  0.1724  0.1516  0.3691
  177DOPC  H17X21721   4.296   3.370   5.997 -0.4627  0.7232 -0.6181
  177DOPC  H17Y21722   4.254   3.499   6.114  2.0946  0.8412 -2.3556
  177DOPC  C31821723   4.182   3.301   6.174  0.7913 -0.0017  0.4981
  177DOPC  H18X21724   4.156   3.206   6.122  0.0844  0.9576 -0.9642
  177DOPC  H18Y21725   4.265   3.280   6.245 -1.1327 -2.1048  2.2878
  177DOPC  H18Z21726   4.092   3.329   6.232 -0.0382  0.8095 -1.1249
  178DOPC     N21727   2.134   2.782   3.428  0.9115 -0.8672  0.4446
  178DOPC   C1221728   2.087   2.875   3.546  0.0213 -0.2684  0.1937
  178DOPC  H12A21729   2.073   2.810   3.630  1.9047 -1.8302 -0.6219
  178DOPC  H12B21730   1.991   2.921   3.526 -0.3529 -1.5940 -1.2112
  178DOPC   C1321731   2.259   2.709   3.463 -0.6078 -0.4939 -1.3557
  178DOPC  H13A21732   2.298   2.661   3.374  1.3235  0.8678 -1.3062
  178DOPC  H13B21733   2.332   2.779   3.499 -2.5361  2.0899 -2.1515
  178DOPC  H13C21734   2.237   2.635   3.538 -3.0151  1.8533  0.4700
  178DOPC   C1421735   2.162   2.863   3.299 -0.4766  0.0819 -0.1463
  178DOPC  H14A21736   2.068   2.910   3.274  0.3310  1.6335 -0.3906
  178DOPC  H14B21737   2.240   2.934   3.321  0.3013 -0.2969 -1.5514
  178DOPC  H14C21738   2.203   2.789   3.231  2.3120 -0.1313  1.5903
  178DOPC   C1521739   2.018   2.679   3.411 -0.3409 -0.5582  0.1605
  178DOPC  H15A21740   2.048   2.604   3.340 -0.1544 -0.3851  0.0563
  178DOPC  H15B21741   1.933   2.724   3.362 -0.3229  1.0652  1.5288
  178DOPC  H15C21742   1.993   2.622   3.500  0.1689 -0.8656  0.1077
  178DOPC   C1121743   2.192   2.984   3.592  0.3472 -0.3772 -0.2829
  178DOPC  H11A21744   2.158   3.025   3.689 -1.3344  0.0733 -1.0162
  178DOPC  H11B21745   2.287   2.931   3.610  0.0926 -0.3014  1.3775
  178DOPC     P21746   2.117   3.213   3.491  0.0762 -0.2357 -0.0224
  178DOPC   O1321747   1.988   3.169   3.539  0.5561  0.1247 -0.0313
  178DOPC   O1421748   2.140   3.261   3.354 -0.1604 -0.1789  0.0020
  178DOPC   O1221749   2.213   3.086   3.501  0.2067 -0.0592  0.5646
  178DOPC   O1121750   2.173   3.318   3.609 -0.2580  0.6886 -0.0264
  178DOPC    C121751   2.298   3.295   3.682  0.3312  0.2932  0.4296
  178DOPC    HA21752   2.360   3.386   3.671 -1.2508  1.4820  0.8577
  178DOPC    HB21753   2.351   3.207   3.640 -0.6110  0.3451 -0.9567
  178DOPC    C221754   2.262   3.274   3.833  0.1851 -0.1139 -0.4101
  178DOPC    HS21755   2.211   3.176   3.830  1.3970 -0.9085  2.1180
  178DOPC   O2121756   2.174   3.378   3.883 -0.3070  0.2483 -0.3481
  178DOPC   C2121757   2.070   3.323   3.949  0.7040  0.8432  0.3072
  178DOPC   O2221758   2.060   3.208   3.990  0.4422  0.0963  0.2747
  178DOPC   C2221759   1.978   3.440   3.986 -0.2939  0.8041 -0.6183
  178DOPC   H2R21760   1.890   3.385   4.027  0.0915  0.0145 -0.8288
  178DOPC   H2S21761   1.944   3.497   3.896 -1.9624  1.3511  0.3121
  178DOPC    C321762   2.387   3.259   3.929 -0.2121  0.2344 -0.3229
  178DOPC    HX21763   2.455   3.338   3.890  1.0016  0.2118  1.6247
  178DOPC    HY21764   2.442   3.164   3.916 -0.4705 -0.1947  1.5240
  178DOPC   O3121765   2.372   3.291   4.074 -0.1933 -0.5263 -0.0656
  178DOPC   C3121766   2.475   3.235   4.150  0.3034  0.2437  0.1167
  178DOPC   O3221767   2.560   3.153   4.107  0.4808 -0.3786 -0.0354
  178DOPC   C3221768   2.453   3.285   4.287  0.7526 -0.5599  0.3305
  178DOPC   H2X21769   2.485   3.391   4.286 -0.8852 -0.0295  0.6127
  178DOPC   H2Y21770   2.346   3.267   4.313  0.2581 -0.6677 -1.6014
  178DOPC   C2321771   2.056   3.527   4.090  0.2864 -0.0790  0.3897
  178DOPC   H3R21772   1.994   3.616   4.116  1.1497  1.2731 -1.8826
  178DOPC   H3S21773   2.150   3.572   4.053  0.3664 -0.0102  0.6764
  178DOPC   C2421774   2.080   3.454   4.223  0.7345  0.0283 -0.0102
  178DOPC   H4R21775   2.177   3.401   4.221  0.2663 -1.0777  2.7469
  178DOPC   H4S21776   1.997   3.393   4.264  0.8299  0.5596  0.9819
  178DOPC   C2521777   2.115   3.550   4.336 -0.2248 -0.4980  0.0201
  178DOPC   H5R21778   2.021   3.607   4.353 -0.1898 -0.4040 -0.0983
  178DOPC   H5S21779   2.199   3.614   4.303 -0.2660  0.4322  1.6137
  178DOPC   C2621780   2.170   3.488   4.466  0.4021  0.0525  0.4008
  178DOPC   H6R21781   2.269   3.441   4.450  0.7250  0.1239  2.1006
  178DOPC   H6S21782   2.102   3.401   4.483  0.3792 -0.3393 -1.4516
  178DOPC   C2721783   2.165   3.585   4.583 -0.2696 -0.4923  0.0797
  178DOPC   H7R21784   2.062   3.619   4.606  0.3383  1.5381 -0.0363
  178DOPC   H7S21785   2.235   3.668   4.561 -0.0218 -0.2943  1.5394
  178DOPC   C2821786   2.227   3.518   4.709  0.1841  0.3420  0.3371
  178DOPC   H8R21787   2.328   3.476   4.692 -0.4946 -0.5628 -1.8491
  178DOPC   H8S21788   2.157   3.436   4.735  0.9319  0.1845  1.9312
  178DOPC   C2921789   2.242   3.628   4.815 -0.2505  0.1283 -1.0166
  178DOPC   H9R21790   2.182   3.718   4.794  1.7251  1.4610 -1.3202
  178DOPC  C21021791   2.315   3.628   4.929 -0.3081 -0.1421 -0.1727
  178DOPC  H10R21792   2.292   3.701   5.007  0.2486  0.2112 -0.3297
  178DOPC  C21121793   2.391   3.515   4.979  0.3915  0.9020  0.2142
  178DOPC  H11R21794   2.501   3.528   4.987  0.5883 -0.5691  0.0952
  178DOPC  H11S21795   2.386   3.431   4.907 -1.0521  0.4326  0.8123
  178DOPC  C21221796   2.340   3.457   5.115  0.8542  0.1532 -0.0950
  178DOPC  H12R21797   2.399   3.365   5.135 -1.2118 -1.0998  0.6362
  178DOPC  H12S21798   2.236   3.422   5.097  0.5529  0.6571  0.6485
  178DOPC  C21321799   2.333   3.557   5.234 -0.2770  0.0087  0.2660
  178DOPC  H13R21800   2.266   3.642   5.208 -1.8863 -1.6094 -1.1249
  178DOPC  H13S21801   2.441   3.585   5.242 -0.1941 -0.5274  1.0854
  178DOPC  C21421802   2.293   3.487   5.363 -0.3559  0.2226 -0.1876
  178DOPC  H14R21803   2.358   3.398   5.374  0.1094  0.4077 -1.3424
  178DOPC  H14S21804   2.183   3.473   5.353 -0.5026  1.5379 -0.6504
  178DOPC  C21521805   2.330   3.579   5.482 -0.4482  0.0372  0.8313
  178DOPC  H15R21806   2.265   3.669   5.493 -0.3069 -0.0029  2.1610
  178DOPC  H15S21807   2.418   3.643   5.462 -1.1853  1.1682  1.1109
  178DOPC  C21621808   2.343   3.500   5.612 -0.2654  0.2471 -0.4949
  178DOPC  H16R21809   2.412   3.414   5.601  1.6632  1.8637 -1.7053
  178DOPC  H16S21810   2.242   3.458   5.632 -1.9924  3.9928 -0.5394
  178DOPC  C21721811   2.376   3.592   5.736  0.6038 -0.1964  0.4942
  178DOPC  H17R21812   2.357   3.530   5.826 -3.2262 -0.1539 -0.1306
  178DOPC  H17S21813   2.305   3.677   5.743 -0.8531 -1.3878  0.5265
  178DOPC  C21821814   2.521   3.636   5.732 -0.1998 -0.0330  0.5418
  178DOPC  H18R21815   2.595   3.554   5.725  1.1891  1.2542 -0.8093
  178DOPC  H18S21816   2.551   3.700   5.818 -1.2605 -0.1235  0.9978
  178DOPC  H18T21817   2.537   3.711   5.651 -1.3318  1.8194  1.9539
  178DOPC   C3321818   2.542   3.213   4.389  0.1451  0.1857 -0.2644
  178DOPC   H3X21819   2.653   3.222   4.384  0.6620 -3.7843  0.7351
  178DOPC   H3Y21820   2.518   3.105   4.390  0.2898 -0.0097 -3.7414
  178DOPC   C3421821   2.514   3.273   4.529  0.0884  0.1073  0.5722
  178DOPC   H4X21822   2.403   3.277   4.535  0.1920  2.3549  2.1797
  178DOPC   H4Y21823   2.546   3.379   4.528 -0.6722  0.3408 -0.5296
  178DOPC   C3521824   2.584   3.182   4.632  0.0797 -0.4324  0.5188
  178DOPC   H5X21825   2.687   3.163   4.594 -0.6388 -2.6975 -0.5359
  178DOPC   H5Y21826   2.526   3.087   4.643 -0.8652 -0.3246 -2.5569
  178DOPC   C3621827   2.590   3.254   4.762 -0.3014  0.2473  0.6392
  178DOPC   H6X21828   2.632   3.356   4.754 -2.4719  1.1447 -0.0994
  178DOPC   H6Y21829   2.489   3.281   4.800 -0.0072  1.9908  0.2642
  178DOPC   C3721830   2.670   3.180   4.869  0.0232 -0.0984 -0.1190
  178DOPC   H7X21831   2.633   3.075   4.858 -2.1057  0.5286  0.6492
  178DOPC   H7Y21832   2.778   3.196   4.849 -0.0869 -0.6117 -1.1711
  178DOPC   C3821833   2.642   3.228   5.008  0.3319 -0.1280  0.3773
  178DOPC   H8X21834   2.534   3.217   5.030  0.2843 -2.1802 -0.6757
  178DOPC   H8Y21835   2.658   3.338   5.015  1.0547 -0.2328  0.4592
  178DOPC   C3921836   2.736   3.159   5.108  0.3309 -0.2881 -0.2067
  178DOPC   H9X21837   2.834   3.132   5.065 -1.0126 -3.6690 -1.4041
  178DOPC  C31021838   2.704   3.116   5.228  0.4043  0.3226  0.2565
  178DOPC  H10X21839   2.777   3.074   5.299  1.0492 -0.2528 -0.7192
  178DOPC  C31121840   2.577   3.137   5.294 -0.2063  0.2863 -0.2933
  178DOPC  H11X21841   2.549   3.039   5.337  1.4955 -0.7478 -1.4467
  178DOPC  H11Y21842   2.490   3.163   5.229 -1.6804  1.1729  1.9338
  178DOPC  C31221843   2.587   3.237   5.412 -0.1388 -0.1264 -0.3264
  178DOPC  H12X21844   2.486   3.246   5.459 -1.3178  3.0934 -3.1230
  178DOPC  H12Y21845   2.615   3.339   5.381  0.4387 -0.3072 -0.4015
  178DOPC  C31321846   2.682   3.204   5.529  0.1710  0.6693 -0.3378
  178DOPC  H13X21847   2.786   3.205   5.488 -0.4909  2.8064 -2.1471
  178DOPC  H13Y21848   2.675   3.286   5.603 -0.5252  0.1498  0.1836
  178DOPC  C31421849   2.661   3.070   5.605  0.6821 -0.7896  0.4293
  178DOPC  H14X21850   2.692   2.988   5.536 -0.1990  0.1085 -1.0858
  178DOPC  H14Y21851   2.722   3.073   5.698  2.4370 -1.1291 -0.6517
  178DOPC  C31521852   2.513   3.034   5.643 -0.9787 -0.2517  0.1105
  178DOPC  H15X21853   2.465   3.022   5.544 -1.7857 -0.6870  0.5487
  178DOPC  H15Y21854   2.486   3.136   5.680  0.0377 -0.6019  1.9241
  178DOPC  C31621855   2.498   2.926   5.751  0.8168 -0.2938 -0.2495
  178DOPC  H16X21856   2.578   2.921   5.828 -0.3556 -2.0153  0.9302
  178DOPC  H16Y21857   2.404   2.933   5.809  0.9520  0.6818 -0.1415
  178DOPC  C31721858   2.489   2.788   5.676  0.2146 -0.1653  0.3313
  178DOPC  H17X21859   2.587   2.785   5.623 -0.6583  0.6570 -1.4033
  178DOPC  H17Y21860   2.477   2.705   5.750 -0.1866  0.1742  0.6524
  178DOPC  C31821861   2.383   2.772   5.562 -0.4297 -0.2297 -0.2744
  178DOPC  H18X21862   2.403   2.674   5.513 -0.7425 -0.5738  0.2727
  178DOPC  H18Y21863   2.281   2.772   5.606 -0.7609 -1.3026 -0.9905
  178DOPC  H18Z21864   2.400   2.850   5.485  2.5401  1.1399  1.5954
  179DOPC     N21865   0.178   2.683   3.977  0.0307 -0.4316 -0.2577
  179DOPC   C1221866   0.181   2.784   4.090  0.3163  0.8162 -0.3444
  179DOPC  H12A21867   0.203   2.880   4.045 -1.6531  1.5828  0.2149
  179DOPC  H12B21868   0.261   2.756   4.156  1.5741 -1.4285 -2.6284
  179DOPC   C1321869   0.070   2.705   3.869  0.3595 -0.0367 -0.3972
  179DOPC  H13A21870   0.082   2.632   3.790 -1.1283  1.2264 -1.8330
  179DOPC  H13B21871  -0.028   2.708   3.914  0.2048  2.4782 -0.7528
  179DOPC  H13C21872   0.081   2.797   3.814  0.3975 -0.1955 -0.6604
  179DOPC   C1421873   0.127   2.555   4.035  0.1259  0.0670  0.1767
  179DOPC  H14A21874   0.046   2.574   4.103 -0.4922  2.1175 -1.0285
  179DOPC  H14B21875   0.089   2.497   3.952 -1.4975  1.7178 -0.2803
  179DOPC  H14C21876   0.207   2.501   4.083  1.1160 -1.9722 -3.3428
  179DOPC   C1521877   0.313   2.674   3.917 -0.1368 -0.0265  0.4726
  179DOPC  H15A21878   0.385   2.674   3.998 -0.4379 -0.8516  0.7441
  179DOPC  H15B21879   0.341   2.769   3.873 -0.4874  0.2848  0.9126
  179DOPC  H15C21880   0.337   2.596   3.847  2.2495  1.4749 -0.5191
  179DOPC   C1121881   0.059   2.801   4.181  0.0793 -1.1456 -0.0754
  179DOPC  H11A21882   0.041   2.705   4.234 -2.6116 -0.8985 -0.4022
  179DOPC  H11B21883   0.080   2.886   4.250 -1.4723 -0.4586 -0.4212
  179DOPC     P21884  -0.110   2.978   4.091 -0.3493  0.3633 -0.0381
  179DOPC   O1321885  -0.234   2.976   4.013  0.0399 -0.4903  0.0876
  179DOPC   O1421886  -0.002   3.064   4.040  0.2082 -0.1889 -0.0804
  179DOPC   O1221887  -0.055   2.826   4.104 -0.4525 -0.4487 -0.0660
  179DOPC   O1121888  -0.149   3.023   4.236  0.1905 -0.3447 -0.4691
  179DOPC    C121889  -0.242   2.947   4.313 -0.3626 -0.1305 -0.6254
  179DOPC    HA21890  -0.253   2.840   4.285 -2.1003 -0.0667 -0.2458
  179DOPC    HB21891  -0.345   2.984   4.298 -0.6528 -1.1600 -1.3026
  179DOPC    C221892  -0.213   2.949   4.465  0.2320  0.0181  0.1651
  179DOPC    HS21893  -0.245   3.052   4.493  0.3471 -0.2307  1.2311
  179DOPC   O2121894  -0.071   2.930   4.481  0.4695 -0.3114  0.0505
  179DOPC   C2121895  -0.016   2.979   4.597 -0.2453  0.0681 -0.0724
  179DOPC   O2221896  -0.070   3.046   4.680  0.0937  0.3491  0.1033
  179DOPC   C2221897   0.134   2.947   4.588  0.1635  0.6008  0.7396
  179DOPC   H2R21898   0.187   3.007   4.511 -1.1152 -0.3230 -0.9318
  179DOPC   H2S21899   0.140   2.850   4.535  1.0950  1.4175 -0.7238
  179DOPC    C321900  -0.310   2.846   4.537 -0.4977  0.1693 -0.0207
  179DOPC    HX21901  -0.280   2.743   4.508  1.5759  1.5104 -3.0245
  179DOPC    HY21902  -0.404   2.869   4.483  0.8677  2.4263 -1.5792
  179DOPC   O3121903  -0.307   2.862   4.686 -0.2941  0.6042  0.4155
  179DOPC   C3121904  -0.386   2.962   4.733  0.6921 -0.1253  0.5356
  179DOPC   O3221905  -0.458   3.025   4.661 -0.3842 -0.0699 -0.0283
  179DOPC   C3221906  -0.392   2.972   4.889  0.9355  0.5061  0.5320
  179DOPC   H2X21907  -0.496   2.959   4.924  1.3815 -0.2604  1.6247
  179DOPC   H2Y21908  -0.337   2.882   4.926  3.2693  1.0887 -1.2374
  179DOPC   C2321909   0.205   2.963   4.727  0.7159  0.3511 -0.0391
  179DOPC   H3R21910   0.155   2.904   4.807  0.5197  0.2115 -0.2645
  179DOPC   H3S21911   0.199   3.070   4.754 -1.6937  0.5788 -1.2217
  179DOPC   C2421912   0.352   2.928   4.713 -0.2267  0.0441 -0.2124
  179DOPC   H4R21913   0.385   3.022   4.663  0.1037  0.7621  1.2948
  179DOPC   H4S21914   0.370   2.846   4.640 -0.1664  0.6932 -0.9411
  179DOPC   C2521915   0.423   2.905   4.844 -0.0850 -0.8934 -0.6776
  179DOPC   H5R21916   0.531   2.917   4.818  0.0347 -1.1785 -0.3297
  179DOPC   H5S21917   0.425   2.798   4.872  1.7191 -0.7709 -0.1990
  179DOPC   C2621918   0.393   3.004   4.952  0.5993  0.0252 -0.1393
  179DOPC   H6R21919   0.290   2.976   4.982 -0.8094  1.5127 -3.1594
  179DOPC   H6S21920   0.377   3.106   4.910  2.5557  1.5461  2.5159
  179DOPC   C2721921   0.486   2.988   5.072  0.1696 -0.5900  0.0003
  179DOPC   H7R21922   0.593   3.003   5.045  0.0795 -2.4079 -1.4846
  179DOPC   H7S21923   0.478   2.885   5.111 -0.3210 -0.6959 -0.3786
  179DOPC   C2821924   0.449   3.088   5.184 -0.3493  0.2999  0.0990
  179DOPC   H8R21925   0.482   3.181   5.133  0.6884 -1.3179 -2.4052
  179DOPC   H8S21926   0.514   3.070   5.273 -0.7073 -0.0765  0.2867
  179DOPC   C2921927   0.302   3.088   5.225 -0.7106 -0.2328 -0.7058
  179DOPC   H9R21928   0.235   3.154   5.168  0.6295  2.3207  0.4461
  179DOPC  C21021929   0.254   3.038   5.337 -0.4354  0.2798 -0.4964
  179DOPC  H10R21930   0.146   3.042   5.354 -0.1103  2.1062  1.5838
  179DOPC  C21121931   0.324   2.963   5.446 -0.0009 -0.2487 -0.6484
  179DOPC  H11R21932   0.434   2.982   5.441 -0.0274 -0.2253 -1.2012
  179DOPC  H11S21933   0.309   2.854   5.441  2.3146 -0.8025  1.8584
  179DOPC  C21221934   0.286   3.000   5.587 -0.0955  0.1259  0.0077
  179DOPC  H12R21935   0.333   2.926   5.654  2.2332 -2.9117 -4.4945
  179DOPC  H12S21936   0.176   2.984   5.595  0.4117 -3.5935  2.1263
  179DOPC  C21321937   0.330   3.139   5.627 -0.7683 -0.0555 -0.2636
  179DOPC  H13R21938   0.346   3.209   5.542  2.9414 -0.9285 -0.4391
  179DOPC  H13S21939   0.433   3.115   5.658 -1.1751  0.9450  2.0592
  179DOPC  C21421940   0.248   3.199   5.735  0.7119  0.2301  0.1294
  179DOPC  H14R21941   0.142   3.213   5.704  0.7193 -1.3420 -0.6698
  179DOPC  H14S21942   0.286   3.301   5.760  1.8401  0.4324 -2.1940
  179DOPC  C21521943   0.254   3.120   5.868 -0.2357 -0.5170  0.0712
  179DOPC  H15R21944   0.362   3.099   5.881 -0.2598 -1.4980 -1.0638
  179DOPC  H15S21945   0.212   3.018   5.857  1.6573 -1.3121 -0.2519
  179DOPC  C21621946   0.200   3.200   5.982 -0.2231  0.5434 -0.4535
  179DOPC  H16R21947   0.097   3.229   5.950 -0.2118  0.4796 -0.5469
  179DOPC  H16S21948   0.256   3.295   5.999 -1.0072  0.7580  1.1987
  179DOPC  C21721949   0.182   3.119   6.107 -0.2841 -0.0231 -0.2881
  179DOPC  H17R21950   0.275   3.078   6.151 -1.4324  0.0461  2.4043
  179DOPC  H17S21951   0.116   3.032   6.090  1.4215 -1.4535  0.1637
  179DOPC  C21821952   0.091   3.189   6.209  0.1277  0.0014 -1.1085
  179DOPC  H18R21953  -0.009   3.214   6.169 -0.6611  1.7111  1.7176
  179DOPC  H18S21954   0.137   3.287   6.232  2.2133 -1.2716  0.4921
  179DOPC  H18T21955   0.081   3.127   6.301  0.2732 -1.3870 -1.9909
  179DOPC   C3321956  -0.334   3.102   4.944  0.1492 -0.3173  0.0786
  179DOPC   H3X21957  -0.392   3.191   4.912  0.2387 -0.6237 -0.9663
  179DOPC   H3Y21958  -0.229   3.110   4.907  0.3516  0.3041  0.7448
  179DOPC   C3421959  -0.309   3.097   5.100 -0.9791 -0.5166 -0.0875
  179DOPC   H4X21960  -0.409   3.102   5.148 -0.7043  0.6492  0.4025
  179DOPC   H4Y21961  -0.265   3.193   5.135 -1.5391 -0.5105  0.6274
  179DOPC   C3521962  -0.221   2.983   5.151  0.1067  0.3634  0.2468
  179DOPC   H5X21963  -0.126   2.974   5.094  1.3648 -2.1193  2.4938
  179DOPC   H5Y21964  -0.273   2.885   5.146 -2.0877  1.4194  0.9878
  179DOPC   C3621965  -0.196   3.011   5.299  0.4412  0.4382 -0.0282
  179DOPC   H6X21966  -0.127   2.929   5.325 -0.0121 -0.5593 -1.8183
  179DOPC   H6Y21967  -0.150   3.112   5.307  0.7210  0.2485  0.8080
  179DOPC   C3721968  -0.319   3.011   5.380  0.9884  0.1626  0.4318
  179DOPC   H7X21969  -0.388   3.098   5.371 -0.2722 -0.9215 -1.0270
  179DOPC   H7Y21970  -0.378   2.925   5.342  3.0021 -1.1700  0.1942
  179DOPC   C3821971  -0.293   2.982   5.537 -0.1708  0.2431 -0.0736
  179DOPC   H8X21972  -0.219   2.904   5.566  0.2272  1.0493  1.1862
  179DOPC   H8Y21973  -0.387   2.944   5.583  0.1860 -0.9361 -0.2833
  179DOPC   C3921974  -0.239   3.103   5.613  0.2517 -0.1448  0.2526
  179DOPC   H9X21975  -0.173   3.168   5.553 -1.5805  1.5847  0.0108
  179DOPC  C31021976  -0.244   3.132   5.749 -1.0030  0.0927  1.2689
  179DOPC  H10X21977  -0.206   3.231   5.780 -0.2877 -0.5445  2.4917
  179DOPC  C31121978  -0.320   3.055   5.855  0.3277 -0.1697 -0.7718
  179DOPC  H11X21979  -0.363   2.960   5.816  0.3686 -0.4537 -0.1373
  179DOPC  H11Y21980  -0.401   3.113   5.904  0.6357 -0.9056  0.6571
  179DOPC  C31221981  -0.215   3.011   5.958 -0.9872  0.2615  0.4003
  179DOPC  H12X21982  -0.133   3.085   5.977 -0.5238  0.0954 -0.8640
  179DOPC  H12Y21983  -0.166   2.921   5.916 -0.0271  0.2406  1.5211
  179DOPC  C31321984  -0.278   2.954   6.093  0.3286 -0.1386  0.0930
  179DOPC  H13X21985  -0.325   3.031   6.158  1.0701 -1.3853  2.2426
  179DOPC  H13Y21986  -0.353   2.882   6.055 -2.0834  0.9322  2.4676
  179DOPC  C31421987  -0.160   2.902   6.185 -0.5787 -0.5123  0.2104
  179DOPC  H14X21988  -0.084   2.883   6.107  1.7251  1.2720  1.8729
  179DOPC  H14Y21989  -0.129   2.983   6.256  1.4040  0.2167 -1.3822
  179DOPC  C31521990  -0.192   2.775   6.264  0.6997 -0.0577  0.2919
  179DOPC  H15X21991  -0.206   2.688   6.196 -1.6518 -0.3390  1.0346
  179DOPC  H15Y21992  -0.291   2.795   6.309 -0.2352  0.6267 -1.9415
  179DOPC  C31621993  -0.098   2.757   6.384 -0.1010 -0.2642  0.7049
  179DOPC  H16X21994  -0.091   2.855   6.438 -1.4398 -0.1492  0.7062
  179DOPC  H16Y21995  -0.148   2.683   6.450  0.4313 -0.7179  0.6002
  179DOPC  C31721996   0.037   2.702   6.348 -0.1668 -0.4289 -0.2579
  179DOPC  H17X21997   0.031   2.593   6.327 -1.0282 -0.1341 -1.6976
  179DOPC  H17Y21998   0.070   2.748   6.253  0.4317  1.0064  0.6039
  179DOPC  C31821999   0.141   2.725   6.458 -0.2104  0.1017 -0.4987
  179DOPC  H18X22000   0.119   2.661   6.546 -1.6735 -0.9928 -1.6272
  179DOPC  H18Y22001   0.240   2.704   6.411 -0.0099 -0.6939  0.2668
  179DOPC  H18Z22002   0.130   2.829   6.497  0.4341  0.3821 -1.0441
  180DOPC     N22003   5.264   0.477   4.181  0.0150 -0.3287 -0.2320
  180DOPC   C1222004   5.229   0.588   4.280 -0.2798 -0.1603  0.2127
  180DOPC  H12A22005   5.315   0.637   4.324  0.2601  0.2251 -1.1968
  180DOPC  H12B22006   5.192   0.541   4.369 -0.2583  1.3250  1.0448
  180DOPC   C1322007   5.381   0.397   4.229 -0.2547 -0.2233 -0.5027
  180DOPC  H13A22008   5.405   0.309   4.172  0.7972  0.2678 -0.8385
  180DOPC  H13B22009   5.471   0.456   4.235 -1.2926  1.3729 -0.1847
  180DOPC  H13C22010   5.370   0.360   4.330 -0.1814 -0.6571 -0.6501
  180DOPC   C1422011   5.293   0.532   4.047  0.4090  0.3229 -0.3985
  180DOPC  H14A22012   5.374   0.604   4.046  0.5346  0.1751 -0.6678
  180DOPC  H14B22013   5.307   0.456   3.973  1.6507  0.5377 -0.4128
  180DOPC  H14C22014   5.206   0.582   4.008 -1.3987 -0.9899  1.7209
  180DOPC   C1522015   5.145   0.385   4.159  0.0168 -0.4609  0.4474
  180DOPC  H15A22016   5.109   0.326   4.243 -0.2388 -3.3032 -1.5085
  180DOPC  H15B22017   5.167   0.308   4.087 -2.0537 -1.7634  1.1176
  180DOPC  H15C22018   5.054   0.433   4.128  0.1266 -0.6175 -0.1238
  180DOPC   C1122019   5.131   0.697   4.241  0.0289 -0.3520 -0.3124
  180DOPC  H11A22020   5.147   0.787   4.304 -0.0662 -0.8418  0.4349
  180DOPC  H11B22021   5.154   0.726   4.136 -2.3847  2.3302 -0.2221
  180DOPC     P22022   4.920   0.616   4.368  0.4816  0.3598  0.1092
  180DOPC   O1322023   4.855   0.489   4.339 -0.8520 -0.2504  0.1843
  180DOPC   O1422024   4.835   0.723   4.410  0.1354 -0.7459  0.0720
  180DOPC   O1222025   4.995   0.658   4.246  0.0944  0.3711  0.4068
  180DOPC   O1122026   5.024   0.585   4.484 -0.1164  0.6330  0.0594
  180DOPC    C122027   4.969   0.577   4.619 -0.0352  0.5876 -0.3122
  180DOPC    HA22028   5.017   0.485   4.658  1.0877  1.0005 -0.6688
  180DOPC    HB22029   4.863   0.544   4.622  0.1677 -0.0823 -0.4297
  180DOPC    C222030   5.007   0.697   4.711  0.0925  0.4230  0.0280
  180DOPC    HS22031   4.984   0.791   4.655  2.0728  0.4605 -0.7865
  180DOPC   O2122032   5.149   0.692   4.739  0.3509  0.1534  0.2658
  180DOPC   C2122033   5.231   0.757   4.656  0.1082 -0.1451 -0.5986
  180DOPC   O2222034   5.195   0.827   4.563 -0.2401 -0.6768 -0.7896
  180DOPC   C2222035   5.376   0.725   4.698 -0.2386 -0.6735 -0.0141
  180DOPC   H2R22036   5.433   0.820   4.687 -3.0600  1.0624 -0.6798
  180DOPC   H2S22037   5.403   0.648   4.622 -0.3477 -1.0795  0.3588
  180DOPC    C322038   4.934   0.710   4.849 -0.1346 -0.4747  0.4176
  180DOPC    HX22039   4.825   0.714   4.832 -0.1215  3.0314  0.4519
  180DOPC    HY22040   4.969   0.809   4.886  0.9314 -1.1343  1.2684
  180DOPC   O3122041   4.954   0.603   4.940 -0.0877  0.1372  0.2925
  180DOPC   C3122042   5.054   0.613   5.012  0.3853  0.5432  0.3392
  180DOPC   O3222043   5.115   0.711   5.046 -0.7400 -0.0624  0.1077
  180DOPC   C3222044   5.078   0.474   5.074  0.7405 -0.6044 -0.0862
  180DOPC   H2X22045   4.975   0.441   5.099  0.3562  0.1755 -0.6123
  180DOPC   H2Y22046   5.119   0.413   4.991  2.6857 -0.2558  0.5625
  180DOPC   C2322047   5.400   0.655   4.833 -0.7924  0.0558  0.1435
  180DOPC   H3R22048   5.388   0.545   4.829 -2.0093  0.2203 -1.6959
  180DOPC   H3S22049   5.311   0.688   4.890 -2.0876 -1.1487 -1.1160
  180DOPC   C2422050   5.522   0.693   4.912 -0.0079  0.1134  0.0720
  180DOPC   H4R22051   5.524   0.805   4.910  0.7289  0.1162  0.6424
  180DOPC   H4S22052   5.613   0.660   4.857  1.0264  2.4124  0.2757
  180DOPC   C2522053   5.537   0.642   5.053  0.1256  0.0833  0.5854
  180DOPC   H5R22054   5.525   0.533   5.040  2.3846 -0.1433  0.0391
  180DOPC   H5S22055   5.455   0.683   5.116  0.5294 -0.8111  1.7240
  180DOPC   C2622056   5.673   0.668   5.125  0.2346  0.6740 -0.9332
  180DOPC   H6R22057   5.673   0.769   5.173  2.2885  0.2743  0.0025
  180DOPC   H6S22058   5.752   0.652   5.049 -0.7540 -1.5423 -1.5790
  180DOPC   C2722059   5.680   0.552   5.231  0.4347 -0.2245  0.7573
  180DOPC   H7R22060   5.781   0.550   5.277  0.0805 -0.8545  1.5332
  180DOPC   H7S22061   5.680   0.452   5.182  3.3458 -0.2526  0.6366
  180DOPC   C2822062   5.581   0.551   5.352  0.7289 -0.1044  0.7283
  180DOPC   H8R22063   5.597   0.463   5.418  0.7484 -1.0373 -0.4846
  180DOPC   H8S22064   5.480   0.547   5.307  0.9845 -2.5561  0.2707
  180DOPC   C2922065   5.591   0.679   5.433 -0.3398 -0.2281 -0.7476
  180DOPC   H9R22066   5.606   0.765   5.366  2.6797 -0.1794 -0.1521
  180DOPC  C21022067   5.607   0.695   5.564 -0.8695 -0.8799 -0.3486
  180DOPC  H10R22068   5.641   0.793   5.602  0.1124 -1.0943 -0.6495
  180DOPC  C21122069   5.625   0.575   5.662 -0.0297 -0.4151 -0.3092
  180DOPC  H11R22070   5.731   0.540   5.661 -0.1099 -0.7162  0.8227
  180DOPC  H11S22071   5.555   0.490   5.647  0.0586 -0.7140  0.9108
  180DOPC  C21222072   5.582   0.615   5.810  1.6368 -0.1168 -0.4682
  180DOPC  H12R22073   5.588   0.524   5.874 -1.0164  0.8910  1.3971
  180DOPC  H12S22074   5.474   0.642   5.807  1.2992 -1.1956  0.8753
  180DOPC  C21322075   5.666   0.723   5.877 -0.4731  0.0210  0.2541
  180DOPC  H13R22076   5.675   0.807   5.804  2.3317  0.0337  0.5173
  180DOPC  H13S22077   5.767   0.679   5.891  0.0437  1.0743 -0.0785
  180DOPC  C21422078   5.618   0.781   6.012 -0.3810 -0.3193 -0.4908
  180DOPC  H14R22079   5.539   0.858   6.005 -1.5848 -1.5298 -0.7833
  180DOPC  H14S22080   5.699   0.839   6.060 -0.8517 -0.5573  0.6293
  180DOPC  C21522081   5.579   0.668   6.103  0.0988 -0.1758 -0.1306
  180DOPC  H15R22082   5.639   0.576   6.090 -0.2006 -0.5625  1.0505
  180DOPC  H15S22083   5.475   0.630   6.090 -0.6090  1.5049  0.2360
  180DOPC  C21622084   5.581   0.708   6.254  0.4719  0.0568 -0.1911
  180DOPC  H16R22085   5.688   0.732   6.274  1.5534 -3.8887 -0.4925
  180DOPC  H16S22086   5.553   0.614   6.305 -2.8684  1.5007  0.8517
  180DOPC  C21722087   5.476   0.818   6.277 -0.6015  1.2296 -0.0674
  180DOPC  H17R22088   5.383   0.790   6.223  0.0538 -0.9211 -0.1860
  180DOPC  H17S22089   5.514   0.909   6.226  0.4732  3.1758  3.7749
  180DOPC  C21822090   5.447   0.848   6.418  0.1724  0.1683 -0.4249
  180DOPC  H18R22091   5.386   0.935   6.449 -1.5559 -2.0497  3.1186
  180DOPC  H18S22092   5.540   0.869   6.476 -0.2125  0.0206  0.2597
  180DOPC  H18T22093   5.405   0.755   6.461 -0.0289  0.8799  0.9959
  180DOPC   C3322094   5.177   0.480   5.200  0.4046  0.9585  0.0913
  180DOPC   H3X22095   5.262   0.549   5.181  0.1703  0.4554 -3.4515
  180DOPC   H3Y22096   5.204   0.375   5.225  0.7152  0.9070 -0.4619
  180DOPC   C3422097   5.100   0.526   5.329  0.1604  0.1965  0.3709
  180DOPC   H4X22098   5.035   0.441   5.360 -1.7277  1.1704 -0.6988
  180DOPC   H4Y22099   5.034   0.615   5.320  3.0753  2.5314  0.6827
  180DOPC   C3522100   5.197   0.556   5.439 -0.1071 -0.7103 -0.2517
  180DOPC   H5X22101   5.257   0.647   5.421 -0.5302  0.0251  1.7757
  180DOPC   H5Y22102   5.267   0.474   5.465  1.1193 -0.5132 -2.7352
  180DOPC   C3622103   5.126   0.597   5.569 -0.0091  0.1408  0.2858
  180DOPC   H6X22104   5.082   0.696   5.544 -2.3282 -1.1884 -1.2526
  180DOPC   H6Y22105   5.044   0.525   5.587 -0.5127  0.5606 -0.2936
  180DOPC   C3722106   5.227   0.596   5.681 -0.0346 -0.3106 -0.2777
  180DOPC   H7X22107   5.275   0.496   5.694  0.3338  0.0839  1.7535
  180DOPC   H7Y22108   5.302   0.675   5.659 -0.7517  0.3060 -0.5572
  180DOPC   C3822109   5.152   0.640   5.811 -0.0472  0.7177 -0.0493
  180DOPC   H8X22110   5.082   0.723   5.788 -1.9144 -0.3033  1.6252
  180DOPC   H8Y22111   5.225   0.686   5.881 -0.4162  0.8193  0.2736
  180DOPC   C3922112   5.068   0.539   5.880  0.0688 -0.7147 -0.3551
  180DOPC   H9X22113   4.996   0.479   5.823  0.2220 -1.0698 -0.1813
  180DOPC  C31022114   5.084   0.487   5.999  0.1542 -0.4173  0.1289
  180DOPC  H10X22115   4.998   0.429   6.034 -0.9491  1.7601  1.2079
  180DOPC  C31122116   5.189   0.507   6.104  0.2641  0.1701  0.0626
  180DOPC  H11X22117   5.278   0.562   6.066  1.3068  0.0255  2.1625
  180DOPC  H11Y22118   5.231   0.405   6.118 -0.8588 -0.3741 -0.3760
  180DOPC  C31222119   5.142   0.559   6.240  0.2291 -0.5617 -0.0951
  180DOPC  H12X22120   5.105   0.663   6.224  1.4740  0.2361  1.8744
  180DOPC  H12Y22121   5.227   0.571   6.310  2.8888 -0.0703 -3.1499
  180DOPC  C31322122   5.026   0.486   6.300  0.0404  0.2025  0.2493
  180DOPC  H13X22123   4.987   0.538   6.391 -1.0861 -1.1793  0.5905
  180DOPC  H13Y22124   4.940   0.480   6.230  0.2039  1.1810 -0.0407
  180DOPC  C31422125   5.061   0.345   6.335  0.0238  0.3275 -0.2792
  180DOPC  H14X22126   5.077   0.293   6.239  1.2343  1.2569 -0.6018
  180DOPC  H14Y22127   5.160   0.331   6.384 -0.4501 -3.4172 -0.0592
  180DOPC  C31522128   4.962   0.270   6.421  0.8458 -0.2797 -0.3505
  180DOPC  H15X22129   4.883   0.244   6.347  0.9952  3.7635 -2.1947
  180DOPC  H15Y22130   4.926   0.331   6.506  0.8779 -1.5860  0.6425
  180DOPC  C31622131   5.000   0.132   6.480  0.1794 -0.2955  0.1027
  180DOPC  H16X22132   5.053   0.085   6.394  0.3255  1.4546 -0.8278
  180DOPC  H16Y22133   5.078   0.127   6.559  1.0140  0.6935 -0.6326
  180DOPC  C31722134   4.890   0.051   6.538 -0.1172  0.3250 -0.3787
  180DOPC  H17X22135   4.832   0.110   6.613  0.2462  1.2079 -0.7690
  180DOPC  H17Y22136   4.815   0.020   6.462 -1.4646 -1.2944  1.4935
  180DOPC  C31822137   4.951  -0.077   6.610  0.1337 -0.0532  0.3527
  180DOPC  H18X22138   4.998  -0.144   6.535  0.7647  0.5049  0.2442
  180DOPC  H18Y22139   5.035  -0.046   6.675  1.2114 -2.2393  0.0719
  180DOPC  H18Z22140   4.872  -0.136   6.662  0.8282  0.0666  1.5552
  181DOPC     N22141   0.043   5.468   4.585 -0.4456 -0.5292 -0.0130
  181DOPC   C1222142  -0.057   5.579   4.571  0.0175 -0.7184  0.6491
  181DOPC  H12A22143  -0.081   5.600   4.468 -0.6805 -0.5965  0.8339
  181DOPC  H12B22144  -0.012   5.673   4.599  0.8696 -0.8470 -0.2251
  181DOPC   C1322145   0.164   5.505   4.501 -0.0702  0.8165  0.8223
  181DOPC  H13A22146   0.249   5.438   4.503 -0.3823  0.3737  0.0065
  181DOPC  H13B22147   0.138   5.512   4.396  0.6106 -2.5972  0.3063
  181DOPC  H13C22148   0.211   5.598   4.529  0.2689  0.9420 -0.1442
  181DOPC   C1422149  -0.012   5.343   4.534  0.1561  0.2972 -0.1386
  181DOPC  H14A22150  -0.086   5.315   4.607  0.1703 -0.2487 -0.3237
  181DOPC  H14B22151  -0.043   5.350   4.431  1.1359 -1.3546 -0.5889
  181DOPC  H14C22152   0.056   5.258   4.530 -0.8699 -0.5113 -0.8169
  181DOPC   C1522153   0.089   5.452   4.734  0.0988  0.2430 -0.0389
  181DOPC  H15A22154   0.152   5.531   4.771  1.1486 -0.5271 -0.1285
  181DOPC  H15B22155   0.149   5.362   4.742  1.0210  0.8634  0.2333
  181DOPC  H15C22156  -0.000   5.453   4.794  0.3410 -0.5731  0.3560
  181DOPC   C1122157  -0.185   5.576   4.661  0.2804 -0.4390  0.3485
  181DOPC  H11A22158  -0.151   5.575   4.766  0.8659  0.2828  0.1700
  181DOPC  H11B22159  -0.230   5.676   4.646  0.2150 -0.7088 -1.4795
  181DOPC     P22160  -0.368   5.482   4.495 -0.1797 -0.1691  0.3461
  181DOPC   O1322161  -0.376   5.348   4.433 -0.4726  0.2832  0.1272
  181DOPC   O1422162  -0.324   5.590   4.401  0.6438  0.1826 -0.1372
  181DOPC   O1222163  -0.279   5.475   4.625  0.4097  0.3147  0.4515
  181DOPC   O1122164  -0.512   5.517   4.544  0.1619  1.2322 -0.1397
  181DOPC    C122165  -0.561   5.618   4.628  0.8336  0.5093  0.0740
  181DOPC    HA22166  -0.667   5.645   4.607  0.1930 -1.1240  1.0076
  181DOPC    HB22167  -0.498   5.708   4.611 -1.6351  2.0053 -1.8666
  181DOPC    C222168  -0.552   5.577   4.775  0.4912  0.0139 -0.2807
  181DOPC    HS22169  -0.441   5.573   4.780  0.5539 -0.5346 -1.6311
  181DOPC   O2122170  -0.607   5.446   4.805 -0.3256  0.2400 -0.0870
  181DOPC   C2122171  -0.545   5.379   4.908 -0.0626  0.0521  0.2434
  181DOPC   O2222172  -0.447   5.416   4.969 -0.3667 -0.3397 -0.1401
  181DOPC   C2222173  -0.618   5.250   4.941  0.2212 -0.1922  0.4658
  181DOPC   H2R22174  -0.608   5.184   4.852  1.8944 -1.5571  1.5964
  181DOPC   H2S22175  -0.726   5.261   4.964 -0.0066 -0.7656 -0.2885
  181DOPC    C322176  -0.606   5.691   4.861  0.8882 -0.1839  0.1827
  181DOPC    HX22177  -0.715   5.695   4.839 -0.2141 -2.3728  4.1116
  181DOPC    HY22178  -0.556   5.786   4.835  0.3200  0.2293  0.5866
  181DOPC   O3122179  -0.605   5.661   5.003  0.0264  0.3259  0.5060
  181DOPC   C3122180  -0.491   5.692   5.067 -0.6511  0.0219  0.7227
  181DOPC   O3222181  -0.392   5.740   5.012 -0.2940 -0.7156  0.0131
  181DOPC   C3222182  -0.490   5.665   5.214 -0.4364  0.2993  0.3054
  181DOPC   H2X22183  -0.467   5.558   5.233  0.2936  0.3456 -0.2473
  181DOPC   H2Y22184  -0.396   5.717   5.241  0.6502 -1.7287  0.6045
  181DOPC   C2322185  -0.558   5.177   5.062 -0.7560  0.0152  0.1861
  181DOPC   H3R22186  -0.447   5.173   5.070 -0.6946 -2.1503 -0.9949
  181DOPC   H3S22187  -0.587   5.070   5.065 -1.2611  0.1707  1.3604
  181DOPC   C2422188  -0.596   5.247   5.194  0.4820 -0.3223  0.8793
  181DOPC   H4R22189  -0.707   5.246   5.198  0.5188 -0.8781  2.3532
  181DOPC   H4S22190  -0.550   5.348   5.198  0.5073 -0.2650 -0.5580
  181DOPC   C2522191  -0.533   5.170   5.310 -0.1703 -0.7250 -0.0192
  181DOPC   H5R22192  -0.427   5.155   5.282 -0.4647 -0.1745 -1.4937
  181DOPC   H5S22193  -0.584   5.071   5.315 -1.1357 -0.1908  1.5622
  181DOPC   C2622194  -0.544   5.245   5.443  0.1422  1.0041 -0.5188
  181DOPC   H6R22195  -0.654   5.255   5.457  0.1211 -0.4148  0.5467
  181DOPC   H6S22196  -0.497   5.345   5.435 -2.2562  2.4257  1.5149
  181DOPC   C2722197  -0.480   5.163   5.556  0.6807  0.3015 -0.2954
  181DOPC   H7R22198  -0.375   5.136   5.531  0.6928  1.9612 -2.2599
  181DOPC   H7S22199  -0.536   5.067   5.557  1.8624 -0.4187  1.0125
  181DOPC   C2822200  -0.511   5.237   5.690  0.2191  0.3123 -0.7601
  181DOPC   H8R22201  -0.620   5.251   5.704  0.6501  0.9897  2.9906
  181DOPC   H8S22202  -0.459   5.335   5.700  0.0133  0.1943  2.4588
  181DOPC   C2922203  -0.457   5.148   5.798  1.1456  1.2049 -0.1883
  181DOPC   H9R22204  -0.359   5.099   5.784 -0.7739 -3.1188 -0.1099
  181DOPC  C21022205  -0.522   5.115   5.910  0.5746 -0.0064  0.3184
  181DOPC  H10R22206  -0.475   5.035   5.969 -1.7254 -1.3843  0.4058
  181DOPC  C21122207  -0.655   5.165   5.960  0.1602 -0.1844  0.2951
  181DOPC  H11R22208  -0.713   5.085   6.010  0.2683  0.6740  1.8354
  181DOPC  H11S22209  -0.721   5.177   5.871  1.5483 -0.0029 -0.7456
  181DOPC  C21222210  -0.626   5.292   6.037 -0.5378 -0.2993  0.6298
  181DOPC  H12R22211  -0.722   5.346   6.049 -0.0568  1.1859 -1.6248
  181DOPC  H12S22212  -0.560   5.365   5.985 -2.3631 -0.0350 -1.4539
  181DOPC  C21322213  -0.563   5.265   6.176 -0.1164  0.0799  0.0508
  181DOPC  H13R22214  -0.488   5.183   6.178 -0.8555 -0.6015  1.2684
  181DOPC  H13S22215  -0.648   5.221   6.234  1.4420 -0.9643  1.6462
  181DOPC  C21422216  -0.518   5.390   6.247  0.4989  0.5589  0.1291
  181DOPC  H14R22217  -0.610   5.451   6.244 -0.4248 -0.6284  2.0461
  181DOPC  H14S22218  -0.445   5.448   6.187  0.4538 -1.3235 -1.8911
  181DOPC  C21522219  -0.480   5.370   6.396  0.9396 -0.4448 -0.0614
  181DOPC  H15R22220  -0.373   5.341   6.388  1.2832  0.9979 -1.2394
  181DOPC  H15S22221  -0.539   5.282   6.428 -0.9226  1.1254  1.0650
  181DOPC  C21622222  -0.527   5.483   6.473 -0.3178  0.0058 -0.2477
  181DOPC  H16R22223  -0.636   5.495   6.455 -0.1760  0.8918 -0.6224
  181DOPC  H16S22224  -0.480   5.567   6.416  1.0602 -1.4927 -1.4011
  181DOPC  C21722225  -0.476   5.497   6.628 -0.4243 -0.2518  0.4552
  181DOPC  H17R22226  -0.495   5.604   6.651 -2.2836  0.2443 -2.8251
  181DOPC  H17S22227  -0.367   5.474   6.635 -0.2032 -0.2074 -1.9490
  181DOPC  C21822228  -0.548   5.407   6.736  0.1747  0.4909 -0.0046
  181DOPC  H18R22229  -0.527   5.299   6.724  0.4792  0.3542  1.4710
  181DOPC  H18S22230  -0.652   5.436   6.711  0.8010  0.3376 -3.1253
  181DOPC  H18T22231  -0.527   5.441   6.840  1.0254  0.6599 -0.2222
  181DOPC   C3322232  -0.614   5.709   5.303  0.3805  0.0514  0.4056
  181DOPC   H3X22233  -0.704   5.650   5.276  0.2243 -0.2609  1.5464
  181DOPC   H3Y22234  -0.649   5.814   5.293 -0.0414 -0.1503 -0.2424
  181DOPC   C3422235  -0.590   5.686   5.454 -0.1534 -0.1228 -0.3908
  181DOPC   H4X22236  -0.490   5.731   5.475 -0.7165  0.4649  1.1519
  181DOPC   H4Y22237  -0.595   5.577   5.476  4.2939 -1.3148 -3.6460
  181DOPC   C3522238  -0.687   5.761   5.542  0.1877  0.4162  0.0690
  181DOPC   H5X22239  -0.787   5.726   5.510  1.2294 -2.0525 -0.7240
  181DOPC   H5Y22240  -0.680   5.872   5.534  0.7040  0.2616 -2.1820
  181DOPC   C3622241  -0.689   5.717   5.691 -0.2299  0.3315 -0.6533
  181DOPC   H6X22242  -0.786   5.737   5.740 -1.4855 -3.2943 -1.3459
  181DOPC   H6Y22243  -0.667   5.608   5.697 -1.2858  0.0607 -1.4519
  181DOPC   C3722244  -0.581   5.786   5.767  0.4632 -0.0188  0.0619
  181DOPC   H7X22245  -0.496   5.793   5.696 -0.2923  2.4704 -0.7176
  181DOPC   H7Y22246  -0.588   5.895   5.785  1.3443  0.2116 -0.9212
  181DOPC   C3822247  -0.536   5.723   5.898 -0.3073 -0.3461 -0.2194
  181DOPC   H8X22248  -0.435   5.764   5.919 -1.1355  1.6436  0.0826
  181DOPC   H8Y22249  -0.524   5.614   5.881 -0.0485 -0.2563 -0.6052
  181DOPC   C3922250  -0.634   5.741   6.005 -0.4527 -0.1295  0.5575
  181DOPC   H9X22251  -0.707   5.658   6.011 -0.5328 -0.0609  0.5453
  181DOPC  C31022252  -0.637   5.831   6.102 -0.2670  0.5659  0.6682
  181DOPC  H10X22253  -0.711   5.817   6.182 -0.0049 -3.5031  0.3898
  181DOPC  C31122254  -0.539   5.943   6.126 -0.2962  0.4468 -0.2043
  181DOPC  H11X22255  -0.585   6.037   6.088 -2.3627 -1.3926 -2.6457
  181DOPC  H11Y22256  -0.440   5.935   6.077  0.2003 -0.6269  0.9222
  181DOPC  C31222257  -0.520   5.949   6.277  0.1123 -0.0868  0.3958
  181DOPC  H12X22258  -0.484   5.850   6.313  2.6626 -0.0656 -1.7899
  181DOPC  H12Y22259  -0.620   5.973   6.318 -0.3431  0.5114 -1.0013
  181DOPC  C31322260  -0.449   6.079   6.313 -0.4263 -0.4396 -0.5619
  181DOPC  H13X22261  -0.359   6.093   6.250 -0.1054 -0.3688 -0.0984
  181DOPC  H13Y22262  -0.517   6.165   6.297 -1.4138 -0.6427  2.0396
  181DOPC  C31422263  -0.419   6.111   6.466 -0.0651  0.4404 -0.1619
  181DOPC  H14X22264  -0.359   6.204   6.470  0.2189  0.2147  1.7917
  181DOPC  H14Y22265  -0.509   6.116   6.530 -1.3130  0.5344 -1.8611
  181DOPC  C31522266  -0.339   5.996   6.529  0.1056 -0.3543 -0.3185
  181DOPC  H15X22267  -0.242   5.985   6.476  0.3538 -0.8692  0.2292
  181DOPC  H15Y22268  -0.388   5.896   6.524  0.2763 -0.5401  1.2038
  181DOPC  C31622269  -0.303   6.032   6.676 -0.5085  0.9620  0.4930
  181DOPC  H16X22270  -0.240   6.123   6.669  0.1556  0.8640  3.6049
  181DOPC  H16Y22271  -0.398   6.061   6.726 -0.6876 -0.0081  0.7444
  181DOPC  C31722272  -0.231   5.922   6.767  0.3461 -0.7062  0.0248
  181DOPC  H17X22273  -0.297   5.833   6.773  1.6453 -1.6915  0.3289
  181DOPC  H17Y22274  -0.136   5.885   6.722  0.3338 -0.9738  0.2141
  181DOPC  C31822275  -0.194   5.970   6.906  0.2611  0.0621 -0.1108
  181DOPC  H18X22276  -0.104   6.033   6.897 -1.1969  2.4942  1.1855
  181DOPC  H18Y22277  -0.277   6.024   6.957  0.4468  0.9852 -0.7728
  181DOPC  H18Z22278  -0.184   5.884   6.976 -0.2483  1.1520  1.3617
  182DOPC     N22279   1.437   4.993   3.687 -0.5857  0.5888 -0.2176
  182DOPC   C1222280   1.375   4.885   3.780 -0.5884 -0.4166  0.4868
  182DOPC  H12A22281   1.456   4.832   3.828  0.8610  1.2247 -0.0406
  182DOPC  H12B22282   1.328   4.812   3.715  0.9185  0.7251 -2.0173
  182DOPC   C1322283   1.523   5.082   3.761  0.5412 -1.0513 -0.5501
  182DOPC  H13A22284   1.561   5.155   3.692 -1.6779 -1.0400 -1.8253
  182DOPC  H13B22285   1.466   5.139   3.833  0.5615  0.9048 -2.0152
  182DOPC  H13C22286   1.601   5.029   3.815 -0.1572 -1.6756 -0.1347
  182DOPC   C1422287   1.333   5.082   3.628  0.0657 -0.4377 -0.4723
  182DOPC  H14A22288   1.248   5.034   3.583 -2.9398  2.5903  1.5062
  182DOPC  H14B22289   1.305   5.148   3.708 -2.2844  0.4538 -1.9489
  182DOPC  H14C22290   1.383   5.157   3.568  1.5877 -0.2361  0.9755
  182DOPC   C1522291   1.518   4.932   3.575 -0.5956  0.2916 -0.2107
  182DOPC  H15A22292   1.571   5.010   3.522  0.0473 -0.3303 -0.5021
  182DOPC  H15B22293   1.441   4.890   3.512  0.2010 -1.9304  0.1942
  182DOPC  H15C22294   1.600   4.867   3.603  0.9263  1.6365 -1.3487
  182DOPC   C1122295   1.287   4.927   3.895 -0.2065  0.3148  0.3495
  182DOPC  H11A22296   1.196   4.979   3.857  0.5067  0.9538 -0.5018
  182DOPC  H11B22297   1.242   4.837   3.942 -1.0122  0.7472  0.4411
  182DOPC     P22298   1.462   4.927   4.086  0.6799 -0.5965 -0.1204
  182DOPC   O1322299   1.515   5.026   4.184 -0.0064  0.1928  0.2457
  182DOPC   O1422300   1.568   4.864   4.000  0.0218 -0.2748 -0.3992
  182DOPC   O1222301   1.362   5.002   3.993 -0.0521  0.4358  0.5329
  182DOPC   O1122302   1.363   4.826   4.156 -0.3147 -0.1126  0.3830
  182DOPC    C122303   1.387   4.685   4.171 -0.3993 -0.3142  0.5052
  182DOPC    HA22304   1.489   4.650   4.146 -1.2021 -3.1984  0.9419
  182DOPC    HB22305   1.325   4.626   4.100 -0.9417 -1.0226  1.5383
  182DOPC    C222306   1.356   4.631   4.314  0.5859  0.0065 -0.2896
  182DOPC    HS22307   1.249   4.640   4.342  0.8404 -2.6928  2.0236
  182DOPC   O2122308   1.434   4.693   4.415 -0.4493 -0.1675  0.2396
  182DOPC   C2122309   1.375   4.783   4.495 -0.5628 -0.3758  0.2229
  182DOPC   O2222310   1.255   4.814   4.500  0.6035 -0.2908 -0.4104
  182DOPC   C2222311   1.478   4.842   4.585 -0.8415  0.0417  0.2450
  182DOPC   H2R22312   1.431   4.925   4.642 -0.5421  0.3728  0.0118
  182DOPC   H2S22313   1.559   4.881   4.521 -1.1563  0.6617  0.2218
  182DOPC    C322314   1.393   4.486   4.328  0.0030 -0.0960  0.4099
  182DOPC    HX22315   1.503   4.477   4.320 -0.0717 -0.5115 -0.2615
  182DOPC    HY22316   1.346   4.434   4.241 -0.0191  2.0702 -0.9527
  182DOPC   O3122317   1.340   4.430   4.454  0.6298 -0.5264 -0.9626
  182DOPC   C3122318   1.394   4.320   4.496  0.3924 -0.4255  0.3695
  182DOPC   O3222319   1.467   4.248   4.425 -0.3700 -0.2827 -0.5265
  182DOPC   C3222320   1.345   4.286   4.636 -0.0557  0.8146  0.5925
  182DOPC   H2X22321   1.278   4.363   4.680 -1.5677  0.2892 -0.6664
  182DOPC   H2Y22322   1.288   4.191   4.639  0.9307  0.1121 -1.1913
  182DOPC   C2322323   1.550   4.747   4.685 -0.0080  0.6790 -0.1398
  182DOPC   H3R22324   1.638   4.803   4.721  0.1665  0.3963 -0.1289
  182DOPC   H3S22325   1.591   4.653   4.642  1.0667 -0.1041  2.4157
  182DOPC   C2422326   1.452   4.687   4.789  0.1427  0.3675 -0.2211
  182DOPC   H4R22327   1.387   4.615   4.736 -0.6376  1.7166 -1.1700
  182DOPC   H4S22328   1.390   4.768   4.832  2.1268  1.7149  0.2576
  182DOPC   C2522329   1.527   4.621   4.905  1.3242  0.0161  0.1426
  182DOPC   H5R22330   1.572   4.524   4.875 -1.7045 -1.3824 -0.2194
  182DOPC   H5S22331   1.463   4.589   4.990 -0.7645 -2.0078 -2.0366
  182DOPC   C2622332   1.638   4.707   4.968  0.7121  0.1375  0.3302
  182DOPC   H6R22333   1.609   4.813   4.986 -0.5028 -0.1977  0.4507
  182DOPC   H6S22334   1.728   4.713   4.904  0.9469 -0.9735  0.5369
  182DOPC   C2722335   1.693   4.647   5.097 -0.1230 -0.2921  0.0692
  182DOPC   H7R22336   1.793   4.687   5.126  0.0817 -0.6812 -0.0921
  182DOPC   H7S22337   1.696   4.537   5.082 -0.1405 -0.2896  0.0464
  182DOPC   C2822338   1.606   4.678   5.220 -0.3944  0.5030 -0.1598
  182DOPC   H8R22339   1.613   4.589   5.285 -1.9526 -0.9702 -1.8852
  182DOPC   H8S22340   1.497   4.679   5.197 -0.3100 -0.2671 -0.6348
  182DOPC   C2922341   1.627   4.807   5.295 -0.4352  0.0520 -0.3414
  182DOPC   H9R22342   1.571   4.895   5.261 -1.7761 -1.0585 -1.0757
  182DOPC  C21022343   1.718   4.822   5.391  0.5154 -0.1170  0.9300
  182DOPC  H10R22344   1.730   4.918   5.443  1.3304  1.4674 -1.9287
  182DOPC  C21122345   1.816   4.720   5.448  0.9387  0.0032  0.1745
  182DOPC  H11R22346   1.914   4.763   5.479  0.0593  2.1154  0.1449
  182DOPC  H11S22347   1.848   4.653   5.365  1.2761  1.4268 -0.8763
  182DOPC  C21222348   1.755   4.651   5.569 -0.7258 -0.3776 -0.5431
  182DOPC  H12R22349   1.821   4.576   5.618 -1.9188 -0.8049  0.4729
  182DOPC  H12S22350   1.676   4.588   5.523  0.1109  0.4699 -3.3459
  182DOPC  C21322351   1.727   4.744   5.688 -0.3873  0.5593 -0.2114
  182DOPC  H13R22352   1.686   4.839   5.646 -0.8500  0.1065 -0.7863
  182DOPC  H13S22353   1.820   4.770   5.744 -0.8000 -0.5914  1.0301
  182DOPC  C21422354   1.616   4.689   5.781 -0.6050  0.5483 -0.4954
  182DOPC  H14R22355   1.546   4.624   5.724 -0.8600  0.8271 -0.5033
  182DOPC  H14S22356   1.569   4.779   5.826 -1.5272  0.4051 -1.1331
  182DOPC  C21522357   1.674   4.596   5.887 -0.4920 -0.2061 -0.2072
  182DOPC  H15R22358   1.760   4.646   5.935 -0.9155  1.9133 -1.5297
  182DOPC  H15S22359   1.691   4.497   5.840 -0.6265 -0.3515  0.0462
  182DOPC  C21622360   1.579   4.554   6.009 -0.1884 -0.2408 -0.4914
  182DOPC  H16R22361   1.483   4.528   5.958 -0.6395  0.4221 -0.0061
  182DOPC  H16S22362   1.570   4.646   6.071  0.7045 -0.3809 -0.1480
  182DOPC  C21722363   1.632   4.430   6.085  0.0801  0.6675 -0.0489
  182DOPC  H17R22364   1.639   4.341   6.020 -0.0295  0.1935  0.5771
  182DOPC  H17S22365   1.552   4.403   6.158  0.2425  0.7405  0.1585
  182DOPC  C21822366   1.762   4.464   6.163 -0.2241 -0.8945  0.4689
  182DOPC  H18R22367   1.844   4.521   6.113 -1.2067  1.3887  1.3146
  182DOPC  H18S22368   1.817   4.375   6.201 -0.0852 -0.7244  0.6687
  182DOPC  H18T22369   1.740   4.521   6.256 -1.7576  0.5226 -0.7084
  182DOPC   C3322370   1.461   4.275   4.730  0.1062 -0.3151  0.2513
  182DOPC   H3X22371   1.529   4.361   4.708 -1.3515  0.3463 -2.1140
  182DOPC   H3Y22372   1.529   4.191   4.706  1.0137 -0.1270  1.9890
  182DOPC   C3422373   1.414   4.276   4.875  0.3192 -0.3648 -0.5923
  182DOPC   H4X22374   1.320   4.217   4.884  0.3558 -0.6738 -1.9797
  182DOPC   H4Y22375   1.381   4.379   4.897  0.9312 -0.6798  2.0864
  182DOPC   C3522376   1.525   4.225   4.963  0.4054 -0.0951  0.0483
  182DOPC   H5X22377   1.611   4.294   4.957 -0.7825  1.3420 -3.0689
  182DOPC   H5Y22378   1.557   4.130   4.915 -0.6381 -0.7515  0.6057
  182DOPC   C3622379   1.477   4.210   5.111  0.0350 -0.0878 -0.1946
  182DOPC   H6X22380   1.440   4.311   5.140 -1.1540 -0.1985 -1.2271
  182DOPC   H6Y22381   1.391   4.139   5.110  0.3793 -0.7191  3.0541
  182DOPC   C3722382   1.583   4.159   5.212  0.1484 -0.4918  0.6402
  182DOPC   H7X22383   1.636   4.070   5.172  0.2178 -0.1933  0.0670
  182DOPC   H7Y22384   1.660   4.237   5.228 -0.4775 -0.2802  3.0911
  182DOPC   C3822385   1.516   4.134   5.343  0.4169  0.2723  0.3960
  182DOPC   H8X22386   1.575   4.056   5.396 -1.6829 -2.9320 -1.5881
  182DOPC   H8Y22387   1.420   4.081   5.326  1.2657 -1.9296  2.0231
  182DOPC   C3922388   1.500   4.252   5.426 -0.2495 -0.0897  0.5874
  182DOPC   H9X22389   1.481   4.343   5.366  1.6251  0.3066  0.5197
  182DOPC  C31022390   1.532   4.259   5.560  0.0253 -0.2978  1.1878
  182DOPC  H10X22391   1.513   4.358   5.605  0.4707  0.7530 -0.8068
  182DOPC  C31122392   1.580   4.156   5.665 -0.3209 -0.1143  1.0163
  182DOPC  H11X22393   1.684   4.191   5.683 -0.9675  3.6173 -1.4675
  182DOPC  H11Y22394   1.593   4.053   5.625  1.1624  0.2940  0.3443
  182DOPC  C31222395   1.512   4.159   5.802 -0.2006  0.0624  0.0156
  182DOPC  H12X22396   1.406   4.127   5.786 -0.4329  0.6961  0.2388
  182DOPC  H12Y22397   1.511   4.262   5.842 -0.6603 -0.8377  2.5663
  182DOPC  C31322398   1.584   4.070   5.906 -0.4282  0.1673  0.2046
  182DOPC  H13X22399   1.614   3.979   5.849 -2.8517 -0.0998 -0.8061
  182DOPC  H13Y22400   1.673   4.115   5.953 -1.0669  0.5975  1.0303
  182DOPC  C31422401   1.493   4.027   6.024 -0.0304 -0.1576 -0.2997
  182DOPC  H14X22402   1.417   4.107   6.032  0.4160  0.5540 -2.4020
  182DOPC  H14Y22403   1.431   3.945   5.981  0.9558 -1.2569  0.3329
  182DOPC  C31522404   1.561   3.980   6.153 -0.1460  0.5022  0.1774
  182DOPC  H15X22405   1.640   3.906   6.130  0.3301  1.3101 -0.8603
  182DOPC  H15Y22406   1.486   3.934   6.221  0.0202  0.6311  0.4485
  182DOPC  C31622407   1.635   4.082   6.240  0.0632  0.1785  0.3264
  182DOPC  H16X22408   1.711   4.116   6.167  0.1898 -1.6053 -0.4112
  182DOPC  H16Y22409   1.560   4.159   6.268 -1.7116 -1.4370  0.1949
  182DOPC  C31722410   1.707   4.025   6.365 -0.2231  0.3134 -0.0297
  182DOPC  H17X22411   1.627   4.007   6.440 -0.9945 -0.7581 -1.0638
  182DOPC  H17Y22412   1.764   3.941   6.321  2.5550  2.2084 -0.2659
  182DOPC  C31822413   1.796   4.134   6.419 -0.8402  0.3173 -0.1013
  182DOPC  H18X22414   1.878   4.151   6.345 -2.1372  0.3674 -1.5679
  182DOPC  H18Y22415   1.734   4.226   6.417 -4.1693 -1.7291 -3.5422
  182DOPC  H18Z22416   1.835   4.107   6.520 -1.4405  0.3630  0.1428
  183DOPC     N22417   0.836   2.007   3.547 -0.8317  0.3115 -0.0939
  183DOPC   C1222418   0.816   2.048   3.695  0.1730  0.1775  0.1587
  183DOPC  H12A22419   0.863   2.142   3.720  1.1782 -0.0381 -0.8456
  183DOPC  H12B22420   0.864   1.976   3.759 -3.4791 -2.6927  0.0455
  183DOPC   C1322421   0.979   1.959   3.523  0.1554 -0.3574 -0.3991
  183DOPC  H13A22422   1.051   2.037   3.545 -0.2829 -0.2152  0.5464
  183DOPC  H13B22423   1.008   1.875   3.584 -0.8321 -1.1078 -0.9245
  183DOPC  H13C22424   0.975   1.919   3.422 -3.1481 -2.9939  0.6190
  183DOPC   C1422425   0.802   2.124   3.456 -0.5508  0.2382  0.0742
  183DOPC  H14A22426   0.715   2.174   3.495  0.1769  1.4242  0.2331
  183DOPC  H14B22427   0.884   2.195   3.456  0.1347 -0.5393  1.1233
  183DOPC  H14C22428   0.788   2.094   3.353  0.6210 -0.3366  0.0650
  183DOPC   C1522429   0.746   1.893   3.510 -0.3063  0.2564  0.5768
  183DOPC  H15A22430   0.745   1.888   3.402  1.6896 -2.7803  0.5501
  183DOPC  H15B22431   0.647   1.917   3.546 -0.5533  0.5815 -0.3020
  183DOPC  H15C22432   0.773   1.796   3.550  0.7219  0.0586 -0.5393
  183DOPC   C1122433   0.668   2.058   3.739 -0.0625 -0.0365 -0.0145
  183DOPC  H11A22434   0.614   1.961   3.745 -0.0852  0.0382  1.2815
  183DOPC  H11B22435   0.679   2.088   3.846  1.6833  0.2455 -0.2418
  183DOPC     P22436   0.604   2.313   3.729 -0.0034 -0.2097 -0.3283
  183DOPC   O1322437   0.503   2.391   3.666 -0.4482 -0.6411  0.4841
  183DOPC   O1422438   0.745   2.352   3.714 -0.0514  0.2921  0.1943
  183DOPC   O1222439   0.586   2.161   3.672 -0.8556 -0.1320 -0.1549
  183DOPC   O1122440   0.571   2.292   3.883  0.5076  0.1336 -0.1587
  183DOPC    C122441   0.432   2.257   3.919 -0.0608  0.0521  0.2519
  183DOPC    HA22442   0.390   2.185   3.845 -0.2430  0.5746 -0.1612
  183DOPC    HB22443   0.364   2.345   3.919  0.4712  0.6587 -3.9084
  183DOPC    C222444   0.423   2.175   4.061  0.3161  0.1592 -0.4211
  183DOPC    HS22445   0.322   2.173   4.109  0.5495 -0.6175  0.0508
  183DOPC   O2122446   0.509   2.243   4.160 -0.3947  0.1446  0.5051
  183DOPC   C2122447   0.469   2.349   4.223  0.4551  0.5154 -0.3457
  183DOPC   O2222448   0.360   2.402   4.197  0.1151  0.3182  0.0765
  183DOPC   C2222449   0.566   2.405   4.329 -0.0687  0.0709 -0.0081
  183DOPC   H2R22450   0.508   2.476   4.392  0.4494 -0.1253  0.7057
  183DOPC   H2S22451   0.641   2.457   4.266  1.4976 -0.6672  1.1856
  183DOPC    C322452   0.447   2.020   4.043 -0.1660 -0.0935 -0.2074
  183DOPC    HX22453   0.556   2.021   4.018  0.3029 -0.0310  1.6809
  183DOPC    HY22454   0.392   1.987   3.952  2.8453 -0.4756 -2.0271
  183DOPC   O3122455   0.415   1.949   4.160  0.2416  0.4750 -0.5942
  183DOPC   C3122456   0.475   1.827   4.179 -0.0984 -0.1113 -0.5770
  183DOPC   O3222457   0.568   1.781   4.112  0.1634 -0.0011  0.0021
  183DOPC   C3222458   0.430   1.758   4.311 -0.7734 -1.4971 -0.2750
  183DOPC   H2X22459   0.450   1.828   4.395 -1.6501 -0.3192 -1.0265
  183DOPC   H2Y22460   0.320   1.746   4.305 -0.8764 -1.0443  0.5778
  183DOPC   C2322461   0.646   2.303   4.412 -0.6833  0.0306 -0.5000
  183DOPC   H3R22462   0.690   2.370   4.488 -2.1773  0.9452 -0.3959
  183DOPC   H3S22463   0.722   2.248   4.352 -1.0890 -0.0196 -0.9730
  183DOPC   C2422464   0.552   2.210   4.494  0.0976  1.0179  0.0916
  183DOPC   H4R22465   0.503   2.141   4.421  3.7723 -1.7690 -0.0416
  183DOPC   H4S22466   0.477   2.263   4.557 -0.9175  1.5725 -1.5247
  183DOPC   C2522467   0.640   2.124   4.588 -0.1649 -0.3526 -0.1151
  183DOPC   H5R22468   0.701   2.199   4.643 -1.5647  1.6436 -1.1497
  183DOPC   H5S22469   0.718   2.073   4.528  1.1182  1.3705 -0.0110
  183DOPC   C2622470   0.566   2.032   4.691  0.6410  0.5066 -0.0810
  183DOPC   H6R22471   0.630   1.966   4.753  3.0464  2.6888 -0.0804
  183DOPC   H6S22472   0.485   1.967   4.650  1.1071 -0.0598 -0.1179
  183DOPC   C2722473   0.498   2.114   4.809 -0.6464 -0.3052 -0.2109
  183DOPC   H7R22474   0.422   2.057   4.867 -1.0977  0.8288  0.3482
  183DOPC   H7S22475   0.447   2.198   4.759  0.6055 -0.8167 -2.4934
  183DOPC   C2822476   0.590   2.182   4.917 -0.4553  0.0054 -0.2890
  183DOPC   H8R22477   0.519   2.225   4.991 -0.4696 -0.5500  0.0254
  183DOPC   H8S22478   0.640   2.271   4.873 -0.4571 -0.0234 -0.3490
  183DOPC   C2922479   0.685   2.084   4.983 -0.6913  0.0696  0.1003
  183DOPC   H9R22480   0.770   2.061   4.917 -0.8895  0.2358 -0.2158
  183DOPC  C21022481   0.677   2.023   5.099  0.4725 -0.3141  0.2414
  183DOPC  H10R22482   0.750   1.947   5.128 -0.8648 -1.0090  1.9242
  183DOPC  C21122483   0.575   2.055   5.206 -0.2651 -0.4658  0.3341
  183DOPC  H11R22484   0.530   1.953   5.216 -0.9851 -0.3981 -1.7106
  183DOPC  H11S22485   0.492   2.121   5.174 -0.2476 -0.9128 -0.6743
  183DOPC  C21222486   0.638   2.121   5.336  0.2848 -0.2479  0.4427
  183DOPC  H12R22487   0.543   2.157   5.382 -1.9746 -1.3777 -2.9575
  183DOPC  H12S22488   0.702   2.202   5.296 -1.3390  0.8834  0.0176
  183DOPC  C21322489   0.717   2.025   5.425 -0.0703 -0.9245  0.6082
  183DOPC  H13R22490   0.816   1.995   5.385  0.4449  0.3752  0.8556
  183DOPC  H13S22491   0.659   1.932   5.444 -0.7896 -0.7452 -0.6108
  183DOPC  C21422492   0.733   2.089   5.561 -0.4961 -0.0966 -0.2958
  183DOPC  H14R22493   0.631   2.106   5.601 -1.4328 -0.2666 -2.5068
  183DOPC  H14S22494   0.792   2.183   5.551 -0.6820  0.1406  0.6823
  183DOPC  C21522495   0.802   1.994   5.660 -0.8677 -0.0356 -0.7538
  183DOPC  H15R22496   0.897   1.950   5.621  0.6486  1.3532  1.1240
  183DOPC  H15S22497   0.739   1.907   5.690  2.0876 -1.7928  0.8535
  183DOPC  C21622498   0.846   2.071   5.787 -0.5379 -0.0652  0.0423
  183DOPC  H16R22499   0.758   2.123   5.831  0.3674  1.6033 -0.0355
  183DOPC  H16S22500   0.902   2.160   5.750 -1.7237  0.0516 -1.5503
  183DOPC  C21722501   0.933   1.972   5.872  0.0471 -0.2285 -0.2483
  183DOPC  H17R22502   1.031   1.971   5.819  1.0572  2.5738  1.3370
  183DOPC  H17S22503   0.883   1.873   5.866 -3.4143  1.4176 -1.2095
  183DOPC  C21822504   0.954   2.011   6.024  0.3119  0.9799  0.3137
  183DOPC  H18R22505   0.859   1.983   6.076 -0.0189 -3.1322 -2.0340
  183DOPC  H18S22506   0.973   2.120   6.032  1.1747  1.0124 -1.6560
  183DOPC  H18T22507   1.032   1.948   6.072 -1.7373 -0.2004  2.3474
  183DOPC   C3322508   0.485   1.615   4.332  0.1622 -0.3449  0.2566
  183DOPC   H3X22509   0.596   1.616   4.327  0.1817 -0.4187  0.6413
  183DOPC   H3Y22510   0.448   1.554   4.247  3.4125 -2.2226  0.0166
  183DOPC   C3422511   0.450   1.544   4.469 -0.2012  0.1653  0.4244
  183DOPC   H4X22512   0.508   1.449   4.461 -0.3527  0.2176 -2.8453
  183DOPC   H4Y22513   0.346   1.510   4.453  0.0483 -0.1042 -0.7374
  183DOPC   C3522514   0.473   1.634   4.591 -0.1238  0.0030  0.2084
  183DOPC   H5X22515   0.410   1.726   4.588 -0.2251 -0.0774 -2.3408
  183DOPC   H5Y22516   0.582   1.655   4.586  0.2409 -1.9631 -2.0739
  183DOPC   C3622517   0.452   1.576   4.732 -0.0603  0.2115  1.6925
  183DOPC   H6X22518   0.345   1.549   4.743 -0.0222 -0.5700  0.3995
  183DOPC   H6Y22519   0.511   1.483   4.750  0.8435  0.5400  0.5972
  183DOPC   C3722520   0.481   1.678   4.836 -0.1761  0.0808 -0.1006
  183DOPC   H7X22521   0.580   1.727   4.832 -0.0021 -0.0523  1.8045
  183DOPC   H7Y22522   0.412   1.763   4.814 -0.6290  0.5322  2.6409
  183DOPC   C3822523   0.453   1.623   4.975  0.9395 -0.0302  1.3852
  183DOPC   H8X22524   0.351   1.578   4.970  0.2524  1.5529  0.4156
  183DOPC   H8Y22525   0.443   1.716   5.035 -1.0413  0.9201 -0.2824
  183DOPC   C3922526   0.551   1.518   5.029 -0.3999 -0.3673  0.3486
  183DOPC   H9X22527   0.567   1.423   4.978 -0.2546 -2.5627  4.1253
  183DOPC  C31022528   0.612   1.529   5.154  0.0517 -0.1063  0.3964
  183DOPC  H10X22529   0.679   1.448   5.186 -0.5410 -1.1454 -0.8449
  183DOPC  C31122530   0.596   1.636   5.256  0.6031  0.3413 -0.3459
  183DOPC  H11X22531   0.489   1.667   5.253  0.6940  0.8418  1.0013
  183DOPC  H11Y22532   0.647   1.733   5.239 -1.0285  0.9424 -2.1857
  183DOPC  C31222533   0.623   1.595   5.405  0.1770  0.1976  0.5126
  183DOPC  H12X22534   0.608   1.686   5.466  0.3981  0.6636 -0.1101
  183DOPC  H12Y22535   0.731   1.566   5.401 -0.4120 -2.0959 -2.3957
  183DOPC  C31322536   0.548   1.481   5.461  0.5307  0.3638 -0.1649
  183DOPC  H13X22537   0.439   1.505   5.465  0.5179  0.1978  0.5883
  183DOPC  H13Y22538   0.575   1.395   5.395  2.1046  0.3640  0.4345
  183DOPC  C31422539   0.583   1.436   5.602  0.0136 -0.2055 -0.2103
  183DOPC  H14X22540   0.564   1.328   5.620  0.1180 -0.2517 -0.3767
  183DOPC  H14Y22541   0.692   1.449   5.613 -0.3829  1.5193  2.6069
  183DOPC  C31522542   0.511   1.519   5.710 -0.1541  0.0172  0.1840
  183DOPC  H15X22543   0.403   1.525   5.685 -0.1513 -0.3995  0.0621
  183DOPC  H15Y22544   0.552   1.622   5.700  2.1175 -0.8558 -0.2949
  183DOPC  C31622545   0.550   1.467   5.846  1.0269 -0.4950  0.0390
  183DOPC  H16X22546   0.505   1.521   5.932 -1.0771 -0.3143 -1.1130
  183DOPC  H16Y22547   0.503   1.368   5.866  0.4953  0.1864  2.6057
  183DOPC  C31722548   0.700   1.459   5.870 -0.3286 -0.2030  0.0150
  183DOPC  H17X22549   0.734   1.381   5.798 -0.9302 -0.8437  0.4126
  183DOPC  H17Y22550   0.743   1.555   5.836 -1.1405  0.5689  1.1003
  183DOPC  C31822551   0.758   1.442   6.012  0.3882  0.0076 -0.7391
  183DOPC  H18X22552   0.860   1.400   6.006  0.0853 -0.7859 -0.5568
  183DOPC  H18Y22553   0.763   1.536   6.072 -0.7136 -0.9730  0.9883
  183DOPC  H18Z22554   0.708   1.378   6.088  1.7174  0.8913  0.9468
  184DOPC     N22555   3.349   3.312   3.044 -0.3413 -0.1074 -0.3138
  184DOPC   C1222556   3.242   3.372   3.136  0.4328  0.1002 -0.6513
  184DOPC  H12A22557   3.194   3.282   3.172 -0.5912  0.9635  0.2068
  184DOPC  H12B22558   3.165   3.426   3.083  0.3825  0.5589 -0.1289
  184DOPC   C1322559   3.441   3.219   3.122 -0.2670 -0.5449  0.3563
  184DOPC  H13A22560   3.374   3.141   3.157  1.0546 -1.8100  0.1281
  184DOPC  H13B22561   3.521   3.173   3.067 -2.0709 -0.2703 -2.6993
  184DOPC  H13C22562   3.484   3.269   3.208  0.6024 -0.8420  0.0971
  184DOPC   C1422563   3.426   3.419   2.990  0.2893 -0.9112  0.7982
  184DOPC  H14A22564   3.456   3.483   3.072 -0.6263 -2.6514  2.5935
  184DOPC  H14B22565   3.513   3.391   2.932  1.3519 -1.5702  2.5859
  184DOPC  H14C22566   3.363   3.478   2.926  0.5816 -0.5848  0.8111
  184DOPC   C1522567   3.282   3.232   2.940 -0.7694  0.2388  0.0056
  184DOPC  H15A22568   3.226   3.149   2.980  0.2358 -0.1560  0.6270
  184DOPC  H15B22569   3.356   3.195   2.871  0.1568  1.9521  0.0030
  184DOPC  H15C22570   3.213   3.293   2.883  1.1589  0.0424 -2.7379
  184DOPC   C1122571   3.283   3.450   3.265  0.0825 -0.1974  0.2802
  184DOPC  H11A22572   3.348   3.531   3.225 -0.3340 -0.1231 -0.2694
  184DOPC  H11B22573   3.197   3.507   3.306  0.2001  0.7081 -0.6948
  184DOPC     P22574   3.293   3.288   3.467  0.4496 -0.2221 -0.5241
  184DOPC   O1322575   3.389   3.194   3.523  0.2465  0.5287  0.2402
  184DOPC   O1422576   3.172   3.232   3.403 -0.3522  0.6680 -0.3383
  184DOPC   O1222577   3.362   3.367   3.355 -0.2665  0.3685  0.1088
  184DOPC   O1122578   3.246   3.396   3.573 -0.0314  0.0799  0.0439
  184DOPC    C122579   3.324   3.505   3.614  0.5159  0.7837 -0.4269
  184DOPC    HA22580   3.249   3.579   3.648 -0.1732 -0.4971  0.9976
  184DOPC    HB22581   3.389   3.548   3.536 -0.5390  1.9798 -0.6778
  184DOPC    C222582   3.404   3.458   3.742 -0.2811 -0.3638  0.5655
  184DOPC    HS22583   3.479   3.386   3.702  1.3802  2.2051 -1.2626
  184DOPC   O2122584   3.319   3.394   3.839 -0.5905 -0.1051  0.7876
  184DOPC   C2122585   3.357   3.309   3.932  0.0800  0.2178 -0.2151
  184DOPC   O2222586   3.466   3.257   3.940 -0.1720 -0.2805  0.2345
  184DOPC   C2222587   3.233   3.272   4.010 -0.0198 -0.0177 -0.3515
  184DOPC   H2R22588   3.187   3.194   3.946 -0.8724  0.5162 -0.4043
  184DOPC   H2S22589   3.177   3.367   4.021  1.4941  0.6591  2.4527
  184DOPC    C322590   3.496   3.572   3.791 -0.0225 -0.4690  0.0375
  184DOPC    HX22591   3.567   3.598   3.709  1.0029 -1.0397  0.7260
  184DOPC    HY22592   3.565   3.535   3.870  0.4900  0.6543  0.1328
  184DOPC   O3122593   3.427   3.686   3.840 -0.0522 -0.3794 -0.1860
  184DOPC   C3122594   3.387   3.687   3.966 -0.1091 -0.1193 -0.2099
  184DOPC   O3222595   3.416   3.599   4.044  0.5187 -0.0866  0.1164
  184DOPC   C3222596   3.303   3.801   4.004  0.6247  0.2349 -0.2507
  184DOPC   H2X22597   3.305   3.882   3.928 -1.6820 -0.4022 -1.0779
  184DOPC   H2Y22598   3.198   3.764   3.997  1.5069 -2.2386 -2.4159
  184DOPC   C2322599   3.250   3.205   4.145 -0.2293 -1.0015 -0.3530
  184DOPC   H3R22600   3.292   3.102   4.136 -0.1980 -0.9203 -1.1733
  184DOPC   H3S22601   3.152   3.189   4.196 -0.0991  0.3830  0.3633
  184DOPC   C2422602   3.344   3.288   4.237  0.1392  0.0179  0.1300
  184DOPC   H4R22603   3.308   3.393   4.233  0.6407  0.1570 -0.7990
  184DOPC   H4S22604   3.445   3.281   4.193  0.2393 -1.2229  0.5133
  184DOPC   C2522605   3.326   3.246   4.385 -0.0436  0.6524 -0.0742
  184DOPC   H5R22606   3.221   3.210   4.398 -0.7837  2.0207 -1.8999
  184DOPC   H5S22607   3.363   3.323   4.456  3.6032 -0.5721 -0.4442
  184DOPC   C2622608   3.412   3.123   4.416 -0.2525  0.0012 -0.0439
  184DOPC   H6R22609   3.520   3.146   4.412 -0.8316  3.2387  0.3085
  184DOPC   H6S22610   3.393   3.048   4.337  1.2450 -0.3776 -0.0770
  184DOPC   C2722611   3.383   3.057   4.555 -0.4842  0.5215 -0.4381
  184DOPC   H7R22612   3.275   3.034   4.544 -0.8002  2.3455 -1.7050
  184DOPC   H7S22613   3.401   3.137   4.630  1.7845  2.1105 -2.5145
  184DOPC   C2822614   3.470   2.932   4.585  0.0820  0.0292  0.2110
  184DOPC   H8R22615   3.576   2.959   4.601  0.6527 -2.8844  2.0859
  184DOPC   H8S22616   3.468   2.856   4.504 -0.8841  0.9515 -0.6612
  184DOPC   C2922617   3.423   2.849   4.701  0.9130  0.8849  0.2949
  184DOPC   H9R22618   3.332   2.795   4.671  2.8375 -0.9319 -2.8496
  184DOPC  C21022619   3.470   2.845   4.828 -1.0337  0.2225  1.1795
  184DOPC  H10R22620   3.420   2.785   4.906 -2.3232  2.4316  2.1180
  184DOPC  C21122621   3.586   2.922   4.882  0.0828 -0.5161 -0.1216
  184DOPC  H11R22622   3.632   2.983   4.801 -1.9666 -0.8395 -1.5984
  184DOPC  H11S22623   3.659   2.843   4.911 -0.4850 -2.7898 -4.1489
  184DOPC  C21222624   3.549   3.006   5.006 -0.0621 -0.1114  0.5645
  184DOPC  H12R22625   3.460   3.065   4.974  0.5622  0.5969  0.0884
  184DOPC  H12S22626   3.625   3.086   5.020 -2.4229  2.1417  1.4095
  184DOPC  C21322627   3.526   2.931   5.138  0.5817  0.3696 -1.0527
  184DOPC  H13R22628   3.617   2.870   5.152  0.2358  0.0417 -0.1970
  184DOPC  H13S22629   3.443   2.861   5.114 -0.2675  0.9827  0.0046
  184DOPC  C21422630   3.484   3.009   5.265 -0.1323 -0.2130  0.0680
  184DOPC  H14R22631   3.422   3.095   5.234 -1.0448 -0.3545  1.4544
  184DOPC  H14S22632   3.573   3.045   5.321  0.4916 -1.1836 -0.2658
  184DOPC  C21522633   3.396   2.923   5.359 -0.6114  0.6171  0.8373
  184DOPC  H15R22634   3.304   2.898   5.301  0.2995  0.3476 -0.5335
  184DOPC  H15S22635   3.360   2.990   5.440 -0.3510  2.1437 -0.2571
  184DOPC  C21622636   3.469   2.810   5.434  0.3638  0.2780  0.2665
  184DOPC  H16R22637   3.543   2.859   5.499 -1.4177  2.2392  0.9276
  184DOPC  H16S22638   3.523   2.749   5.358  1.8457  2.7189 -0.7681
  184DOPC  C21722639   3.377   2.736   5.523  0.6325  1.1435  0.0122
  184DOPC  H17R22640   3.339   2.654   5.458 -0.2386  0.7598  0.9848
  184DOPC  H17S22641   3.280   2.785   5.543 -0.2733  0.2471 -1.9037
  184DOPC  C21822642   3.436   2.687   5.658 -0.2455  1.1983  0.1532
  184DOPC  H18R22643   3.514   2.612   5.635 -1.2416  0.5682 -1.3224
  184DOPC  H18S22644   3.355   2.640   5.718 -0.7447 -0.0903 -1.4572
  184DOPC  H18T22645   3.475   2.778   5.709 -1.5145  1.7018  0.2749
  184DOPC   C3322646   3.332   3.879   4.136 -0.1200  0.0568  0.9045
  184DOPC   H3X22647   3.287   3.977   4.113  1.5889  0.1790 -2.6681
  184DOPC   H3Y22648   3.439   3.903   4.154  0.4383 -2.0299  0.6607
  184DOPC   C3422649   3.276   3.814   4.265  0.1993  0.0550 -0.2502
  184DOPC   H4X22650   3.334   3.719   4.273 -0.3939 -0.2154  0.9644
  184DOPC   H4Y22651   3.167   3.799   4.250  0.0994  0.0489  0.4595
  184DOPC   C3522652   3.309   3.899   4.384  0.0815 -0.0097 -0.5302
  184DOPC   H5X22653   3.267   4.000   4.365 -0.6314  0.0665  1.2626
  184DOPC   H5Y22654   3.420   3.900   4.389  0.1425  1.2372 -1.5223
  184DOPC   C3622655   3.233   3.853   4.512 -0.4278  0.3506  0.5086
  184DOPC   H6X22656   3.125   3.862   4.489 -0.1807  0.2853 -0.7080
  184DOPC   H6Y22657   3.253   3.746   4.532 -1.4975  0.1640  0.6246
  184DOPC   C3722658   3.255   3.942   4.638 -0.0687  0.2916 -0.4385
  184DOPC   H7X22659   3.357   3.945   4.682  0.2906  0.6074 -1.2698
  184DOPC   H7Y22660   3.248   4.043   4.593 -0.4517  0.2512 -0.4731
  184DOPC   C3822661   3.130   3.930   4.734 -0.1609  0.0271  0.6124
  184DOPC   H8X22662   3.033   3.930   4.680  0.9876 -1.8074 -1.6519
  184DOPC   H8Y22663   3.128   4.018   4.802 -0.7322  0.2476  0.3152
  184DOPC   C3922664   3.139   3.804   4.819  0.0581 -0.3628  0.0009
  184DOPC   H9X22665   3.134   3.709   4.763  2.2075 -1.8927  2.1833
  184DOPC  C31022666   3.159   3.795   4.951 -1.3139 -0.1148  0.1822
  184DOPC  H10X22667   3.160   3.696   4.999  1.7229  0.2534  1.0643
  184DOPC  C31122668   3.176   3.904   5.058 -0.0247  0.6403  0.2363
  184DOPC  H11X22669   3.084   3.965   5.067 -1.3402 -1.3291  0.6704
  184DOPC  H11Y22670   3.255   3.980   5.040  0.5300  0.0962  0.3296
  184DOPC  C31222671   3.208   3.832   5.185  0.1325 -0.0732  0.3155
  184DOPC  H12X22672   3.307   3.782   5.173 -0.2519 -0.5818 -0.9040
  184DOPC  H12Y22673   3.127   3.761   5.210  0.4074 -0.4472  0.1556
  184DOPC  C31322674   3.211   3.927   5.300  0.4889 -0.6226  0.2967
  184DOPC  H13X22675   3.292   4.000   5.278  0.5682 -0.0797  2.2042
  184DOPC  H13Y22676   3.115   3.983   5.292  1.0336  0.2611 -0.3079
  184DOPC  C31422677   3.227   3.854   5.439 -0.2780 -0.3800  0.7692
  184DOPC  H14X22678   3.132   3.799   5.455  0.3340 -1.2129  1.6020
  184DOPC  H14Y22679   3.316   3.790   5.424  0.7851  0.8724  1.5409
  184DOPC  C31522680   3.234   3.956   5.556 -0.0609 -0.4937 -0.5583
  184DOPC  H15X22681   3.150   4.029   5.561 -0.8575 -1.4058 -0.1522
  184DOPC  H15Y22682   3.324   4.019   5.549 -1.5071  1.6568 -0.6154
  184DOPC  C31622683   3.223   3.881   5.693  0.6088  0.4445  0.5833
  184DOPC  H16X22684   3.118   3.850   5.714  0.3443  1.1810  0.3905
  184DOPC  H16Y22685   3.295   3.797   5.696  0.6185  0.3828 -0.7180
  184DOPC  C31722686   3.269   3.961   5.817  0.0235 -0.5644 -0.7101
  184DOPC  H17X22687   3.353   4.032   5.798 -0.3847 -0.0588 -0.6207
  184DOPC  H17Y22688   3.177   4.020   5.836  0.3723 -0.1923 -0.1586
  184DOPC  C31822689   3.314   3.878   5.939  0.2861  0.4610 -0.1150
  184DOPC  H18X22690   3.237   3.809   5.981  0.7524 -1.8424 -2.7283
  184DOPC  H18Y22691   3.407   3.826   5.906 -0.4962  0.3608 -2.3515
  184DOPC  H18Z22692   3.363   3.941   6.016  1.6254 -0.1479 -0.4287
  185DOPC     N22693   5.354   1.552   4.113  0.5297  0.3927  0.1724
  185DOPC   C1222694   5.351   1.689   4.163  1.2883  0.1356 -0.1408
  185DOPC  H12A22695   5.267   1.682   4.230  1.8560  0.6363  0.6354
  185DOPC  H12B22696   5.323   1.756   4.083 -0.1154  0.0770  0.2904
  185DOPC   C1322697   5.471   1.541   4.020  0.6616 -0.3620 -0.6285
  185DOPC  H13A22698   5.490   1.441   3.984  0.2774  0.0192 -1.9507
  185DOPC  H13B22699   5.446   1.602   3.934 -0.1238  1.0819  0.5816
  185DOPC  H13C22700   5.561   1.576   4.067 -0.4627  1.4786  0.2995
  185DOPC   C1422701   5.224   1.535   4.053 -0.4991 -0.0137  0.4292
  185DOPC  H14A22702   5.140   1.515   4.119  0.4927  0.0057  1.7290
  185DOPC  H14B22703   5.198   1.621   3.992  3.0552  0.8224 -0.1009
  185DOPC  H14C22704   5.220   1.445   3.992  0.7334 -0.2394  0.6498
  185DOPC   C1522705   5.369   1.462   4.233 -0.3113  0.5649  0.4779
  185DOPC  H15A22706   5.450   1.494   4.297  1.0078  0.3495 -1.0099
  185DOPC  H15B22707   5.391   1.357   4.222  0.0326  0.6531  0.3114
  185DOPC  H15C22708   5.284   1.483   4.295 -0.8725  1.1374 -0.4590
  185DOPC   C1122709   5.467   1.756   4.243 -0.4089 -0.1908  0.4913
  185DOPC  H11A22710   5.431   1.855   4.279 -1.1063 -0.7993  1.5352
  185DOPC  H11B22711   5.496   1.688   4.326 -0.4036 -1.1028 -0.2412
  185DOPC     P22712   5.617   1.899   4.074  0.4978  0.1542 -0.1268
  185DOPC   O1322713   5.496   1.989   4.068 -0.0364  0.0982  0.0877
  185DOPC   O1422714   5.679   1.864   3.940  0.1861 -0.4784 -0.1955
  185DOPC   O1222715   5.586   1.770   4.159 -0.5337  0.5455  0.2595
  185DOPC   O1122716   5.731   1.973   4.164  0.6049  0.0408 -0.1513
  185DOPC    C122717   5.821   1.898   4.242 -0.4601 -0.1735 -0.3155
  185DOPC    HA22718   5.891   1.846   4.173  0.5052  3.1298 -2.0259
  185DOPC    HB22719   5.769   1.819   4.301  0.5427 -0.9484 -0.4304
  185DOPC    C222720   5.911   1.987   4.328  0.1721 -0.2496  0.2384
  185DOPC    HS22721   5.988   1.923   4.377  0.7962  0.0823 -0.2912
  185DOPC   O2122722   5.840   2.045   4.430  0.2465 -0.3420 -0.6358
  185DOPC   C2122723   5.795   1.969   4.529  0.2916  0.3123  0.1134
  185DOPC   O2222724   5.834   1.853   4.544 -0.1524  0.5268 -0.2880
  185DOPC   C2222725   5.696   2.047   4.617 -0.3755 -0.2094 -0.0811
  185DOPC   H2R22726   5.668   1.967   4.689 -0.2011 -1.1893 -1.0747
  185DOPC   H2S22727   5.603   2.085   4.569 -1.2032 -2.6733 -0.5983
  185DOPC    C322728   5.990   2.093   4.243  0.3198 -0.6923  0.1421
  185DOPC    HX22729   5.906   2.164   4.224 -0.3915 -1.7026 -0.6227
  185DOPC    HY22730   6.028   2.046   4.150 -0.0922  1.1175 -0.9858
  185DOPC   O3122731   6.086   2.161   4.323 -0.6263  0.0368  0.2580
  185DOPC   C3122732   6.209   2.102   4.315  0.6251  0.4009  0.8329
  185DOPC   O3222733   6.238   2.007   4.248  0.3393  0.2703 -0.5902
  185DOPC   C3222734   6.302   2.160   4.424 -0.3862  0.7073 -0.0004
  185DOPC   H2X22735   6.402   2.115   4.405 -1.0441 -0.7225 -0.1770
  185DOPC   H2Y22736   6.311   2.269   4.407 -0.2729  1.1282  2.4193
  185DOPC   C2322737   5.763   2.173   4.680  0.2718 -0.4876 -0.0686
  185DOPC   H3R22738   5.683   2.223   4.738 -1.0785 -4.0885  1.4400
  185DOPC   H3S22739   5.792   2.241   4.597 -2.3239  1.3102  0.3920
  185DOPC   C2422740   5.883   2.140   4.778  0.1601  0.8210 -0.6533
  185DOPC   H4R22741   5.950   2.229   4.785  2.3778 -0.8107  0.1140
  185DOPC   H4S22742   5.948   2.073   4.717  0.2670 -0.2867  0.6273
  185DOPC   C2522743   5.854   2.062   4.906 -1.2307  0.3650 -0.1280
  185DOPC   H5R22744   5.832   1.956   4.879 -0.0598  0.1326 -0.2014
  185DOPC   H5S22745   5.767   2.106   4.960 -0.3951 -0.3163  1.8884
  185DOPC   C2622746   5.965   2.061   5.003 -0.5081  0.3807 -0.9051
  185DOPC   H6R22747   6.002   2.162   5.030  0.2523 -0.2351  0.4477
  185DOPC   H6S22748   6.051   2.000   4.968 -0.8311 -2.4588  2.6481
  185DOPC   C2722749   5.909   1.976   5.128  0.1583  0.2118 -0.2046
  185DOPC   H7R22750   5.910   1.867   5.107 -3.1236  0.3094 -1.4137
  185DOPC   H7S22751   5.811   2.011   5.165  0.8736  1.8394  0.2450
  185DOPC   C2822752   6.008   1.974   5.240 -0.3106  0.0609 -1.2560
  185DOPC   H8R22753   6.107   1.979   5.190 -0.9644  0.3807 -2.5368
  185DOPC   H8S22754   6.001   1.885   5.307  0.0144  1.5151  0.8228
  185DOPC   C2922755   5.994   2.102   5.321  0.6660  0.9577 -0.0259
  185DOPC   H9R22756   6.017   2.189   5.258  0.3952 -0.1640 -1.7681
  185DOPC  C21022757   5.957   2.113   5.449  0.4698 -0.4608  0.5612
  185DOPC  H10R22758   5.944   2.216   5.487  1.5673 -0.0288 -0.1766
  185DOPC  C21122759   5.927   2.001   5.544  0.4040 -0.4226 -0.1008
  185DOPC  H11R22760   5.975   1.903   5.522 -1.4716 -1.2579 -0.7160
  185DOPC  H11S22761   5.822   1.968   5.526  0.4839  0.2906 -2.1010
  185DOPC  C21222762   5.951   2.053   5.687  0.2756 -0.2754  0.0406
  185DOPC  H12R22763   5.897   1.991   5.761  0.3252  0.2765  0.5460
  185DOPC  H12S22764   5.906   2.152   5.709  4.3905  1.8459 -0.1012
  185DOPC  C21322765   6.103   2.039   5.720  0.2037 -0.3418  0.8440
  185DOPC  H13R22766   6.165   2.069   5.633  0.9199  0.0327  1.4655
  185DOPC  H13S22767   6.112   1.930   5.742  1.8970 -0.6746 -1.1268
  185DOPC  C21422768   6.139   2.126   5.849 -0.9724  0.8500  0.1856
  185DOPC  H14R22769   6.096   2.225   5.822 -3.0748  0.1509  0.7295
  185DOPC  H14S22770   6.248   2.134   5.867 -1.3088  0.6125  2.7494
  185DOPC  C21522771   6.077   2.069   5.978  0.2371 -0.7801 -0.0824
  185DOPC  H15R22772   5.981   2.015   5.964 -0.2834  0.1358 -0.1800
  185DOPC  H15S22773   6.070   2.158   6.044 -1.9860 -1.0820  0.1807
  185DOPC  C21622774   6.176   1.969   6.042  0.6051  0.5431 -0.2263
  185DOPC  H16R22775   6.280   2.005   6.023  1.2758 -0.8367  0.7075
  185DOPC  H16S22776   6.161   1.867   6.001 -2.8036  0.7717  0.2069
  185DOPC  C21722777   6.156   1.960   6.200  0.4462 -0.6519  0.2369
  185DOPC  H17R22778   6.066   1.900   6.224  0.3036 -0.5169  0.0398
  185DOPC  H17S22779   6.131   2.061   6.238  0.2021  0.2493 -2.1285
  185DOPC  C21822780   6.273   1.898   6.282 -0.3379  0.1402 -0.7409
  185DOPC  H18R22781   6.377   1.929   6.260  0.4491 -1.3076  0.7075
  185DOPC  H18S22782   6.271   1.787   6.275  1.2589 -0.0980  1.6100
  185DOPC  H18T22783   6.258   1.917   6.390  0.2188  0.5344 -0.7327
  185DOPC   C3322784   6.251   2.121   4.562 -0.5041  0.9910  0.2261
  185DOPC   H3X22785   6.261   2.011   4.575 -0.4991  0.5957 -2.5173
  185DOPC   H3Y22786   6.145   2.149   4.583 -0.6688  1.0754 -0.6471
  185DOPC   C3422787   6.345   2.183   4.658  0.0743  0.2780 -0.0136
  185DOPC   H4X22788   6.341   2.294   4.653  1.8198  0.3653 -0.3343
  185DOPC   H4Y22789   6.453   2.158   4.642  0.3971  1.3546  0.3984
  185DOPC   C3522790   6.320   2.137   4.807 -0.4877  0.4126 -0.3911
  185DOPC   H5X22791   6.319   2.026   4.806 -3.8957  0.3457 -0.0341
  185DOPC   H5Y22792   6.214   2.167   4.818 -2.0926 -3.4968 -3.1250
  185DOPC   C3622793   6.413   2.192   4.916 -0.2937 -1.1019 -0.8510
  185DOPC   H6X22794   6.516   2.189   4.875 -0.7152 -2.5587 -1.8839
  185DOPC   H6Y22795   6.390   2.299   4.934 -1.4168 -1.7831  2.4554
  185DOPC   C3722796   6.399   2.108   5.044 -0.9328  0.1206 -0.1457
  185DOPC   H7X22797   6.299   2.126   5.089 -1.9207 -1.1541 -1.7439
  185DOPC   H7Y22798   6.410   2.003   5.010  0.7543  0.9967 -2.6228
  185DOPC   C3822799   6.494   2.139   5.159  0.4255  0.9261 -0.3551
  185DOPC   H8X22800   6.596   2.112   5.125  0.6501 -0.9350  1.5341
  185DOPC   H8Y22801   6.476   2.057   5.233 -0.0623  1.4993  0.1675
  185DOPC   C3922802   6.488   2.275   5.212 -0.2568 -0.5150  0.6199
  185DOPC   H9X22803   6.488   2.348   5.130  0.3897 -0.6944  0.4547
  185DOPC  C31022804   6.469   2.320   5.335  0.0723  0.1662 -0.2332
  185DOPC  H10X22805   6.462   2.428   5.355  2.7429  0.1729  1.0294
  185DOPC  C31122806   6.458   2.230   5.451  0.5695 -0.0964 -0.3435
  185DOPC  H11X22807   6.462   2.121   5.427 -3.2463 -0.5701  0.6492
  185DOPC  H11Y22808   6.359   2.244   5.498 -0.5985 -0.0844 -2.6818
  185DOPC  C31222809   6.556   2.262   5.568 -0.5406 -0.4908  0.3513
  185DOPC  H12X22810   6.549   2.372   5.585 -3.3667 -0.5055 -0.1724
  185DOPC  H12Y22811   6.659   2.235   5.539 -1.1984 -0.5482 -2.2158
  185DOPC  C31322812   6.510   2.191   5.696 -0.0079 -0.3959  0.1171
  185DOPC  H13X22813   6.415   2.241   5.725  0.8876  2.6995 -1.8673
  185DOPC  H13Y22814   6.487   2.082   5.688  0.1830 -0.3408 -1.4616
  185DOPC  C31422815   6.596   2.211   5.824 -0.0941  0.0223  0.5286
  185DOPC  H14X22816   6.695   2.172   5.792 -1.0268 -0.8966 -1.4438
  185DOPC  H14Y22817   6.616   2.318   5.845 -1.0357  0.2363  0.3704
  185DOPC  C31522818   6.546   2.147   5.951 -0.2138  0.3208 -0.2525
  185DOPC  H15X22819   6.529   2.038   5.934 -0.9033  0.3686  0.0980
  185DOPC  H15Y22820   6.445   2.187   5.976 -0.6179 -0.1074 -1.1410
  185DOPC  C31622821   6.639   2.185   6.066  0.6527 -0.4023 -0.3883
  185DOPC  H16X22822   6.728   2.117   6.066 -0.1120 -1.5224  1.9708
  185DOPC  H16Y22823   6.667   2.289   6.041  1.9743 -1.3603 -3.2860
  185DOPC  C31722824   6.568   2.186   6.209  0.3946  0.0708  0.3469
  185DOPC  H17X22825   6.480   2.254   6.208  1.7764  1.9412  0.3074
  185DOPC  H17Y22826   6.535   2.082   6.230  1.9580 -1.2661 -3.1460
  185DOPC  C31822827   6.644   2.245   6.330 -0.1117 -0.3900  0.3126
  185DOPC  H18X22828   6.581   2.223   6.419 -0.4245 -1.8308 -0.2312
  185DOPC  H18Y22829   6.742   2.192   6.336 -0.7807 -1.6052  0.7874
  185DOPC  H18Z22830   6.666   2.354   6.322 -0.2144 -0.3227  0.9382
  186DOPC     N22831   5.120   5.896   4.107  0.3908 -0.4474 -0.3717
  186DOPC   C1222832   5.197   6.019   4.060  0.4095  0.0691  0.4381
  186DOPC  H12A22833   5.126   6.091   4.021 -0.5169 -0.3696  1.2690
  186DOPC  H12B22834   5.256   6.002   3.971  1.8380 -0.7113  1.4967
  186DOPC   C1322835   5.214   5.773   4.118 -0.6090 -0.0004 -0.3163
  186DOPC  H13A22836   5.262   5.757   4.022  1.2976 -0.1962  0.6292
  186DOPC  H13B22837   5.285   5.791   4.197 -0.2899 -0.0192 -0.5973
  186DOPC  H13C22838   5.157   5.685   4.142 -2.9141  1.5880  0.3344
  186DOPC   C1422839   5.019   5.849   4.009 -0.0273  0.0126  0.5604
  186DOPC  H14A22840   4.954   5.771   4.044  1.7541 -1.4902  0.6469
  186DOPC  H14B22841   4.950   5.930   3.987 -1.0288 -1.2156 -1.0177
  186DOPC  H14C22842   5.065   5.817   3.917 -1.1325 -0.9431  0.3250
  186DOPC   C1522843   5.042   5.914   4.236  0.0580  0.0585  0.2292
  186DOPC  H15A22844   5.101   5.968   4.310  1.1790 -0.7147 -0.0777
  186DOPC  H15B22845   5.013   5.818   4.276  1.6527  0.6453  3.0862
  186DOPC  H15C22846   4.950   5.965   4.212  0.4609  0.4826 -0.4556
  186DOPC   C1122847   5.283   6.090   4.161  0.0913 -0.1442  0.4565
  186DOPC  H11A22848   5.326   6.174   4.102 -3.8978  1.7982 -0.0836
  186DOPC  H11B22849   5.230   6.128   4.251  3.0561 -0.7194  2.5576
  186DOPC     P22850   5.476   6.033   4.330 -0.2093  0.0725  0.2730
  186DOPC   O1322851   5.491   6.182   4.337  0.1268  0.3762  0.1650
  186DOPC   O1422852   5.599   5.947   4.337  0.6716  0.0017  0.0968
  186DOPC   O1222853   5.383   5.996   4.208  0.0297  0.6373  0.0415
  186DOPC   O1122854   5.384   5.992   4.452  0.2225  0.2057  0.0161
  186DOPC    C122855   5.330   5.864   4.481  0.6824  0.5352 -0.1486
  186DOPC    HA22856   5.403   5.791   4.440  0.4965  0.0826  0.3226
  186DOPC    HB22857   5.229   5.848   4.436  1.0167 -1.2571 -0.3311
  186DOPC    C222858   5.325   5.841   4.635  0.4865 -0.8103  0.1504
  186DOPC    HS22859   5.287   5.936   4.679 -0.0730  0.5290 -2.9754
  186DOPC   O2122860   5.458   5.821   4.684  0.2517 -0.3819 -0.4420
  186DOPC   C2122861   5.491   5.842   4.805 -0.3240  0.0410 -0.0798
  186DOPC   O2222862   5.439   5.923   4.885 -0.6120  0.8246 -0.4565
  186DOPC   C2222863   5.604   5.751   4.842 -0.7010 -0.0661 -0.2904
  186DOPC   H2R22864   5.694   5.805   4.878 -0.6682 -0.9505  1.0290
  186DOPC   H2S22865   5.630   5.682   4.759  0.9251  2.1400 -1.7430
  186DOPC    C322866   5.215   5.734   4.680 -0.2051  0.3751 -0.5676
  186DOPC    HX22867   5.231   5.647   4.612 -1.1733  1.6458 -2.5290
  186DOPC    HY22868   5.112   5.762   4.650 -0.2644  2.5806  1.4479
  186DOPC   O3122869   5.227   5.696   4.817 -0.1621  0.4392  0.2170
  186DOPC   C3122870   5.163   5.772   4.910  0.7682  0.0814  0.4375
  186DOPC   O3222871   5.087   5.862   4.879 -0.3173 -0.6734  0.4495
  186DOPC   C3222872   5.208   5.725   5.050  0.4789 -0.1116 -0.5222
  186DOPC   H2X22873   5.266   5.632   5.033 -1.3563 -0.8925 -2.9883
  186DOPC   H2Y22874   5.284   5.799   5.082  1.7716 -1.2830 -0.8043
  186DOPC   C2322875   5.563   5.680   4.974 -0.0111  0.7265 -0.0340
  186DOPC   H3R22876   5.485   5.610   4.938 -1.3231  2.4096 -0.5703
  186DOPC   H3S22877   5.531   5.748   5.056  2.3006 -0.1669  1.7284
  186DOPC   C2422878   5.679   5.599   5.034  0.2614  1.3103 -0.1960
  186DOPC   H4R22879   5.755   5.669   5.076 -0.7551  0.6941  2.9545
  186DOPC   H4S22880   5.726   5.541   4.952  0.5591  0.9368  0.2381
  186DOPC   C2522881   5.630   5.498   5.143  0.1939 -0.9788 -0.3560
  186DOPC   H5R22882   5.723   5.443   5.170  1.3130  1.0645  0.1898
  186DOPC   H5S22883   5.555   5.427   5.101  0.2071 -1.7934  0.9374
  186DOPC   C2622884   5.566   5.562   5.271  0.2274  0.7399 -0.2144
  186DOPC   H6R22885   5.472   5.615   5.245 -0.7465 -0.8673 -0.0737
  186DOPC   H6S22886   5.641   5.635   5.310  1.8959 -1.6222  1.2462
  186DOPC   C2722887   5.528   5.461   5.378 -0.3393 -0.2483 -0.8037
  186DOPC   H7R22888   5.612   5.394   5.408 -0.9751 -1.4458 -1.6248
  186DOPC   H7S22889   5.465   5.385   5.326 -1.6934  1.2625 -1.4566
  186DOPC   C2822890   5.466   5.510   5.514  0.0712  0.1041  0.7710
  186DOPC   H8R22891   5.451   5.428   5.587 -0.5349 -0.7402 -0.2775
  186DOPC   H8S22892   5.362   5.536   5.485  0.1940 -2.4641 -2.6330
  186DOPC   C2922893   5.547   5.620   5.572 -1.2113 -0.8090 -0.2717
  186DOPC   H9R22894   5.636   5.642   5.511 -0.8790  1.6767  0.9862
  186DOPC  C21022895   5.531   5.687   5.687 -1.1519  0.1663 -0.4105
  186DOPC  H10R22896   5.599   5.770   5.712 -0.9732  0.0814 -0.6125
  186DOPC  C21122897   5.418   5.660   5.782  0.4122 -0.3270  0.1800
  186DOPC  H11R22898   5.373   5.559   5.771 -3.7633  1.1389  1.9339
  186DOPC  H11S22899   5.340   5.731   5.747  0.2572 -2.0961 -3.5814
  186DOPC  C21222900   5.461   5.674   5.932 -0.2460 -0.1543  0.9028
  186DOPC  H12R22901   5.487   5.782   5.935  0.4209 -0.3168  1.1016
  186DOPC  H12S22902   5.549   5.609   5.950 -0.1388 -0.4378 -0.4951
  186DOPC  C21322903   5.353   5.637   6.030 -0.4643 -0.0429 -0.4072
  186DOPC  H13R22904   5.323   5.542   5.982  1.3900 -0.2675 -1.2399
  186DOPC  H13S22905   5.264   5.703   6.029 -2.1732 -2.1921  1.2942
  186DOPC  C21422906   5.411   5.619   6.170 -0.7272  0.1914 -0.7419
  186DOPC  H14R22907   5.492   5.543   6.164 -1.4400 -0.4977 -1.9513
  186DOPC  H14S22908   5.326   5.570   6.221 -0.1246 -0.7151 -0.5890
  186DOPC  C21522909   5.462   5.743   6.244  0.4883 -0.1601 -0.1417
  186DOPC  H15R22910   5.383   5.822   6.245  0.4006 -0.2483  0.3332
  186DOPC  H15S22911   5.559   5.780   6.204 -0.2134  2.0015  0.0292
  186DOPC  C21622912   5.483   5.717   6.393  0.1655  0.7515  0.3716
  186DOPC  H16R22913   5.537   5.621   6.411  0.6945  0.9316 -0.2222
  186DOPC  H16S22914   5.381   5.704   6.434 -0.4586  0.9015 -1.0704
  186DOPC  C21722915   5.577   5.810   6.467  0.0298 -0.1862 -0.2593
  186DOPC  H17R22916   5.555   5.805   6.576 -1.9569  1.8253 -0.4878
  186DOPC  H17S22917   5.549   5.912   6.433 -0.7108  0.0127  0.8640
  186DOPC  C21822918   5.729   5.794   6.429  0.3360  1.0502  0.5796
  186DOPC  H18R22919   5.803   5.861   6.478 -0.0432  1.0077  1.2220
  186DOPC  H18S22920   5.740   5.810   6.320  0.7564  1.2711  0.6495
  186DOPC  H18T22921   5.752   5.688   6.450  2.7114  0.9962 -1.7707
  186DOPC   C3322922   5.097   5.725   5.152 -0.9421  0.0993 -0.2627
  186DOPC   H3X22923   5.012   5.660   5.122 -0.1388 -1.9773  1.6601
  186DOPC   H3Y22924   5.069   5.831   5.168  1.5735  0.6750  0.7438
  186DOPC   C3422925   5.148   5.686   5.291  0.5231  0.1038 -0.3345
  186DOPC   H4X22926   5.244   5.735   5.315  1.1665 -0.4881 -1.5550
  186DOPC   H4Y22927   5.184   5.581   5.292  0.6673  0.1473 -0.7461
  186DOPC   C3522928   5.042   5.713   5.396  0.0237  0.3647 -0.1344
  186DOPC   H5X22929   4.948   5.662   5.365 -0.4398  0.4433  1.0868
  186DOPC   H5Y22930   5.025   5.823   5.397 -0.3334  0.3984 -2.8723
  186DOPC   C3622931   5.086   5.682   5.541 -0.0648  0.1920  0.0027
  186DOPC   H6X22932   5.155   5.595   5.535 -2.3933 -1.6587 -1.5859
  186DOPC   H6Y22933   5.146   5.766   5.583  0.3068  0.1904 -0.5110
  186DOPC   C3722934   4.970   5.629   5.634 -0.2148  0.6803  0.6947
  186DOPC   H7X22935   4.907   5.718   5.658  0.3956  0.2966  4.3456
  186DOPC   H7Y22936   4.912   5.563   5.566  0.0441  0.8556  0.3022
  186DOPC   C3822937   5.021   5.556   5.761  0.7546 -0.0516 -0.0959
  186DOPC   H8X22938   5.083   5.642   5.794  0.3130 -0.2130  1.2174
  186DOPC   H8Y22939   5.083   5.467   5.739  3.1869  1.0722  1.7613
  186DOPC   C3922940   4.900   5.522   5.848 -0.2636  0.1686 -0.9371
  186DOPC   H9X22941   4.805   5.571   5.823  0.8648  2.9632 -0.2093
  186DOPC  C31022942   4.900   5.430   5.944 -0.3243 -0.0852  0.3264
  186DOPC  H10X22943   4.806   5.414   6.000 -0.4558 -1.7037 -0.2963
  186DOPC  C31122944   5.016   5.346   5.984  0.1338 -0.4271  0.0293
  186DOPC  H11X22945   5.114   5.393   5.961  1.4245 -2.5449  0.8678
  186DOPC  H11Y22946   5.011   5.248   5.930 -0.5951 -0.6728  0.5265
  186DOPC  C31222947   5.025   5.325   6.136 -0.5363  0.0294 -0.2157
  186DOPC  H12X22948   5.024   5.420   6.195 -0.3610  0.6613 -1.2126
  186DOPC  H12Y22949   5.126   5.283   6.154  1.0231  2.0506 -3.3387
  186DOPC  C31322950   4.917   5.230   6.189  0.3615  0.2543  0.3562
  186DOPC  H13X22951   4.816   5.275   6.202  1.1470  1.5845  2.3370
  186DOPC  H13Y22952   4.905   5.152   6.111 -0.4678 -0.1498  0.8808
  186DOPC  C31422953   4.955   5.162   6.317  0.5678 -0.2812 -0.0713
  186DOPC  H14X22954   4.886   5.075   6.325  1.5582 -0.9988  1.0456
  186DOPC  H14Y22955   5.063   5.133   6.315  1.1015  1.6241 -0.3169
  186DOPC  C31522956   4.932   5.262   6.435 -0.4478 -0.4111  0.7877
  186DOPC  H15X22957   4.835   5.306   6.405 -0.8092 -1.8498 -0.2725
  186DOPC  H15Y22958   5.011   5.339   6.431 -0.0291 -0.8783 -0.5021
  186DOPC  C31622959   4.914   5.218   6.578 -0.2858  0.2330 -0.0177
  186DOPC  H16X22960   4.898   5.309   6.639  1.5373  0.8656 -0.4428
  186DOPC  H16Y22961   4.832   5.145   6.598  0.8856 -1.0751  0.2091
  186DOPC  C31722962   5.037   5.158   6.638 -1.0631  0.3722  0.1415
  186DOPC  H17X22963   5.061   5.069   6.577  1.3817  2.6540 -2.5454
  186DOPC  H17Y22964   5.125   5.226   6.636 -0.6362 -0.1899 -1.6032
  186DOPC  C31822965   5.037   5.129   6.784  0.6566  0.3873 -0.7948
  186DOPC  H18X22966   5.133   5.076   6.804 -0.4695 -2.3736 -2.1784
  186DOPC  H18Y22967   5.031   5.214   6.854  1.3446 -0.2750  0.0952
  186DOPC  H18Z22968   4.956   5.056   6.807 -0.7947  2.7628  2.3406
  187DOPC     N22969   5.225   3.471   3.820  0.0882  0.2537 -0.4573
  187DOPC   C1222970   5.188   3.521   3.957  0.0292  0.4305 -0.6259
  187DOPC  H12A22971   5.119   3.456   4.008  0.7758 -0.3006 -0.5320
  187DOPC  H12B22972   5.124   3.609   3.958  0.9440  1.1518  1.9734
  187DOPC   C1322973   5.309   3.572   3.743  0.2694 -0.5503  0.2626
  187DOPC  H13A22974   5.347   3.536   3.649  0.6639  0.1003  0.1738
  187DOPC  H13B22975   5.252   3.659   3.714 -1.0873 -2.1975 -2.4310
  187DOPC  H13C22976   5.397   3.587   3.803  0.0368 -1.0537  0.7379
  187DOPC   C1422977   5.100   3.453   3.737 -0.0085 -0.6293 -0.0840
  187DOPC  H14A22978   5.058   3.552   3.734  1.7649  0.1426 -0.6807
  187DOPC  H14B22979   5.129   3.435   3.634 -0.4947  0.7962 -0.4856
  187DOPC  H14C22980   5.033   3.382   3.784  0.8546  0.5395  3.2100
  187DOPC   C1522981   5.303   3.345   3.832  0.3269  0.1366 -0.4437
  187DOPC  H15A22982   5.340   3.307   3.738  2.7244 -0.0789  0.5358
  187DOPC  H15B22983   5.248   3.270   3.887  1.4115 -0.5154 -0.2405
  187DOPC  H15C22984   5.395   3.363   3.886 -0.7522  2.9018  0.6519
  187DOPC   C1122985   5.294   3.545   4.062 -0.2020 -0.3098 -0.2078
  187DOPC  H11A22986   5.253   3.585   4.156  0.6728  0.0918  0.0112
  187DOPC  H11B22987   5.335   3.447   4.096  1.7709  0.5354  0.0169
  187DOPC     P22988   5.367   3.787   4.012  0.1570  0.1445  0.4161
  187DOPC   O1322989   5.229   3.814   3.963  0.1560 -0.0997  0.3014
  187DOPC   O1422990   5.476   3.851   3.932  0.5862  0.1777  0.1776
  187DOPC   O1222991   5.394   3.631   4.019  0.3165 -0.0343  0.3133
  187DOPC   O1122992   5.388   3.812   4.167  0.0138 -0.0824 -0.3923
  187DOPC    C122993   5.517   3.780   4.225  0.1576 -0.3622 -0.5289
  187DOPC    HA22994   5.556   3.855   4.297 -0.0174 -0.4042 -0.3867
  187DOPC    HB22995   5.596   3.753   4.152  0.0743  2.7670 -1.9336
  187DOPC    C222996   5.508   3.647   4.312  0.2330  0.4882 -1.2224
  187DOPC    HS22997   5.503   3.567   4.236 -1.5953  0.2193 -0.8636
  187DOPC   O2122998   5.385   3.631   4.387 -0.4751 -0.2120 -0.5993
  187DOPC   C2122999   5.356   3.506   4.424  0.5613 -0.0324  0.2503
  187DOPC   O2223000   5.420   3.407   4.395 -0.7545 -0.6343 -0.5840
  187DOPC   C2223001   5.224   3.523   4.502 -0.0832 -0.3552  0.0035
  187DOPC   H2R23002   5.169   3.427   4.497 -0.0551 -0.3876  0.3241
  187DOPC   H2S23003   5.163   3.598   4.447  0.9671 -1.3374 -2.6856
  187DOPC    C323004   5.635   3.632   4.402  0.0865  0.0297 -0.2264
  187DOPC    HX23005   5.718   3.641   4.328  0.9006 -2.6035  0.2756
  187DOPC    HY23006   5.639   3.532   4.449 -0.8421  1.2612  2.6497
  187DOPC   O3123007   5.654   3.732   4.504 -0.1508  0.2155  0.5397
  187DOPC   C3123008   5.773   3.729   4.562  0.1016  0.2492  1.0881
  187DOPC   O3223009   5.864   3.653   4.527 -0.2576  0.6783 -0.1469
  187DOPC   C3223010   5.785   3.842   4.652 -0.0858  0.0038 -0.5852
  187DOPC   H2X23011   5.882   3.846   4.704 -1.1387  0.9168  1.4284
  187DOPC   H2Y23012   5.766   3.932   4.589 -0.9694  1.0126  1.0448
  187DOPC   C2323013   5.245   3.579   4.648 -0.0388 -0.3720  0.2485
  187DOPC   H3R23014   5.145   3.588   4.696 -0.4087 -0.1648 -0.5417
  187DOPC   H3S23015   5.297   3.676   4.643 -0.4850 -0.0428  1.5938
  187DOPC   C2423016   5.325   3.488   4.737 -0.2083 -0.9473 -0.0548
  187DOPC   H4R23017   5.430   3.511   4.712 -0.8188  2.7887  0.2222
  187DOPC   H4S23018   5.298   3.381   4.729 -0.7358 -0.8457  0.2873
  187DOPC   C2523019   5.297   3.529   4.888 -0.0708  0.8885  0.3184
  187DOPC   H5R23020   5.191   3.502   4.907 -0.1375 -0.6667 -1.9138
  187DOPC   H5S23021   5.305   3.639   4.905  0.8280  0.7494  0.8291
  187DOPC   C2623022   5.393   3.454   4.982  0.0039  0.2957 -0.7385
  187DOPC   H6R23023   5.500   3.484   4.994  0.5935 -2.4060  2.0942
  187DOPC   H6S23024   5.374   3.350   4.947 -3.2373  0.2699  0.7373
  187DOPC   C2723025   5.350   3.468   5.132  0.2122 -0.0213 -0.2696
  187DOPC   H7R23026   5.239   3.474   5.131  0.1622 -0.7177  0.3305
  187DOPC   H7S23027   5.380   3.567   5.174 -1.3984  0.0735  0.7315
  187DOPC   C2823028   5.401   3.360   5.222  0.6157  0.0592 -0.7146
  187DOPC   H8R23029   5.384   3.264   5.167  2.2368 -2.7378  3.2219
  187DOPC   H8S23030   5.339   3.342   5.312 -0.9744 -1.4567 -2.0290
  187DOPC   C2923031   5.546   3.361   5.255  0.5282 -0.6478 -0.4465
  187DOPC   H9R23032   5.609   3.402   5.174  0.1462  0.8393 -0.0335
  187DOPC  C21023033   5.605   3.335   5.373  0.3104  0.2236 -0.0813
  187DOPC  H10R23034   5.714   3.340   5.388  0.1629  0.4045  1.0363
  187DOPC  C21123035   5.523   3.301   5.498  0.0644  0.5188 -0.2494
  187DOPC  H11R23036   5.412   3.296   5.490  0.0109  0.4749  0.4438
  187DOPC  H11S23037   5.540   3.384   5.571  2.0777  1.0760 -1.2840
  187DOPC  C21223038   5.580   3.180   5.572  0.2941 -1.2807  0.0696
  187DOPC  H12R23039   5.689   3.195   5.591  0.1626 -0.0886 -0.0354
  187DOPC  H12S23040   5.572   3.087   5.511 -1.1278 -1.8077  1.0333
  187DOPC  C21323041   5.496   3.153   5.699 -0.1206 -0.0733 -0.0001
  187DOPC  H13R23042   5.390   3.183   5.685 -0.5950 -2.1581 -1.3007
  187DOPC  H13S23043   5.546   3.223   5.770  1.4012  2.0968 -3.0126
  187DOPC  C21423044   5.514   3.008   5.753 -0.0333 -0.5750  0.5331
  187DOPC  H14R23045   5.623   3.002   5.776  0.2062 -0.4543 -0.4867
  187DOPC  H14S23046   5.485   2.936   5.673  1.1515  0.9864 -1.4286
  187DOPC  C21523047   5.440   2.975   5.884 -0.3568  0.9088  0.0848
  187DOPC  H15R23048   5.486   2.883   5.926 -0.0370  0.0692 -1.9408
  187DOPC  H15S23049   5.330   2.962   5.879 -0.4770  2.0477 -0.7595
  187DOPC  C21623050   5.450   3.090   5.988 -0.0765  0.5208  0.3120
  187DOPC  H16R23051   5.411   3.180   5.936 -3.4480 -2.2628 -2.4886
  187DOPC  H16S23052   5.558   3.110   6.001 -0.1172  0.3192  0.9937
  187DOPC  C21723053   5.372   3.066   6.122 -0.0144  0.1140  0.9047
  187DOPC  H17R23054   5.424   2.976   6.161  1.4227  0.7642  0.5255
  187DOPC  H17S23055   5.270   3.032   6.092  1.8031 -1.9550 -3.8915
  187DOPC  C21823056   5.376   3.187   6.219  0.0805 -0.1687 -0.2157
  187DOPC  H18R23057   5.270   3.216   6.233  0.0636  0.0245 -0.7323
  187DOPC  H18S23058   5.424   3.271   6.166 -0.7107 -0.9003 -2.1697
  187DOPC  H18T23059   5.435   3.166   6.311 -0.5757  0.0487  0.2568
  187DOPC   C3323060   5.681   3.858   4.766  0.4617 -1.0588  0.1116
  187DOPC   H3X23061   5.583   3.835   4.718  0.7314  0.4492 -1.2765
  187DOPC   H3Y23062   5.680   3.962   4.806 -0.9279  0.1361 -2.6923
  187DOPC   C3423063   5.683   3.758   4.882 -0.4994  0.1921 -0.2561
  187DOPC   H4X23064   5.703   3.655   4.846 -0.1383  1.0202 -2.5854
  187DOPC   H4Y23065   5.580   3.752   4.923 -0.9748  1.2437 -1.2436
  187DOPC   C3523066   5.785   3.804   4.988  1.0708  0.1303 -0.4381
  187DOPC   H5X23067   5.774   3.906   5.031 -0.3097  0.0639 -0.5907
  187DOPC   H5Y23068   5.885   3.813   4.941  1.6052  2.1734  0.9272
  187DOPC   C3623069   5.809   3.708   5.110  0.0133  0.0041  0.5528
  187DOPC   H6X23070   5.838   3.605   5.080  1.8873  1.1867 -2.0954
  187DOPC   H6Y23071   5.893   3.753   5.169 -0.2337  0.3298  0.6597
  187DOPC   C3723072   5.698   3.699   5.212 -0.4072  0.2833  0.4456
  187DOPC   H7X23073   5.637   3.792   5.221 -0.6141  0.3936 -1.5698
  187DOPC   H7Y23074   5.627   3.619   5.182 -0.3956 -0.1133  1.4566
  187DOPC   C3823075   5.753   3.654   5.350  0.2606  0.0353  0.6963
  187DOPC   H8X23076   5.808   3.558   5.342 -0.4459 -0.2074 -2.5166
  187DOPC   H8Y23077   5.664   3.628   5.411 -1.0917  0.9165 -0.8382
  187DOPC   C3923078   5.823   3.768   5.418 -0.0271  0.4883 -0.0172
  187DOPC   H9X23079   5.902   3.815   5.358  1.7849 -1.9422  0.3343
  187DOPC  C31023080   5.803   3.813   5.545  0.2879 -0.0678  0.2375
  187DOPC  H10X23081   5.852   3.907   5.574 -1.3089  1.1934 -0.9855
  187DOPC  C31123082   5.699   3.754   5.635  0.5792  0.0628 -0.2054
  187DOPC  H11X23083   5.734   3.766   5.740  0.2264 -0.3426 -0.0414
  187DOPC  H11Y23084   5.688   3.644   5.627 -1.5433  0.2452 -0.1983
  187DOPC  C31223085   5.562   3.822   5.605 -0.2243 -0.5158  0.0722
  187DOPC  H12X23086   5.536   3.815   5.497 -4.1030 -0.6560  0.8705
  187DOPC  H12Y23087   5.569   3.932   5.620  0.0525 -0.5612  0.2906
  187DOPC  C31323088   5.449   3.765   5.682  0.4962 -0.9202 -0.4412
  187DOPC  H13X23089   5.480   3.729   5.782 -1.7234 -1.1511  0.2151
  187DOPC  H13Y23090   5.375   3.844   5.707  0.5547 -0.8393 -0.5227
  187DOPC  C31423091   5.381   3.649   5.611 -0.1897  0.0407  0.2634
  187DOPC  H14X23092   5.335   3.690   5.519  2.4574  1.1495 -0.6408
  187DOPC  H14Y23093   5.451   3.570   5.577 -0.8911 -0.5589  0.1817
  187DOPC  C31523094   5.271   3.575   5.690  0.1816 -0.0909 -0.0937
  187DOPC  H15X23095   5.211   3.512   5.621  1.1563 -1.1689  0.0182
  187DOPC  H15Y23096   5.202   3.653   5.730 -0.1557 -0.0014 -0.8324
  187DOPC  C31623097   5.313   3.492   5.817  0.3808  0.0904  0.5401
  187DOPC  H16X23098   5.392   3.425   5.778  0.7117  1.6586 -1.6593
  187DOPC  H16Y23099   5.355   3.567   5.887  0.8755 -0.9022  1.3331
  187DOPC  C31723100   5.202   3.408   5.891 -0.1258 -0.4569  0.2563
  187DOPC  H17X23101   5.178   3.318   5.830  0.5485  0.5058 -1.5072
  187DOPC  H17Y23102   5.245   3.375   5.987  1.5345 -1.2899 -0.7369
  187DOPC  C31823103   5.078   3.491   5.918 -0.1579 -0.4711  0.6535
  187DOPC  H18X23104   4.999   3.430   5.967 -0.2644 -1.3406 -0.5460
  187DOPC  H18Y23105   5.105   3.580   5.978 -0.4908  0.0440  0.0464
  187DOPC  H18Z23106   5.035   3.525   5.822  1.5824 -1.9984 -0.7552
  188DOPC     N23107   1.144   5.312   4.154  0.4279 -0.1171 -0.0511
  188DOPC   C1223108   1.186   5.442   4.221 -0.3182  0.6499  0.4500
  188DOPC  H12A23109   1.272   5.438   4.285 -1.9237 -0.0488  2.6987
  188DOPC  H12B23110   1.115   5.468   4.298 -0.0288  1.6775  0.3755
  188DOPC   C1323111   1.112   5.207   4.259  0.1046  0.2727 -0.3979
  188DOPC  H13A23112   1.197   5.190   4.323  1.9097  1.6545 -2.2887
  188DOPC  H13B23113   1.030   5.237   4.323  0.4355  0.1077  0.1076
  188DOPC  H13C23114   1.091   5.114   4.208 -0.7538  0.9915 -1.3906
  188DOPC   C1423115   1.255   5.259   4.068  0.2349 -0.3370 -0.0799
  188DOPC  H14A23116   1.336   5.227   4.132 -0.2229 -1.6252 -0.1115
  188DOPC  H14B23117   1.217   5.169   4.022  0.3342 -0.6385  0.4160
  188DOPC  H14C23118   1.295   5.335   4.003  1.4181 -0.8552  0.0134
  188DOPC   C1523119   1.017   5.333   4.075 -0.7852  0.1487  0.2436
  188DOPC  H15A23120   1.032   5.422   4.016 -1.3666  0.5234  0.6364
  188DOPC  H15B23121   0.932   5.342   4.142 -1.3385 -2.6046  0.0117
  188DOPC  H15C23122   0.994   5.243   4.020  0.1745  0.0606 -0.0257
  188DOPC   C1123123   1.190   5.572   4.136 -0.4324  0.2066 -0.4175
  188DOPC  H11A23124   1.242   5.648   4.199 -0.2642 -0.3065  0.0687
  188DOPC  H11B23125   1.266   5.557   4.056  1.4831 -0.6798  1.4585
  188DOPC     P23126   0.970   5.700   4.185  0.2134 -0.0269  0.0364
  188DOPC   O1323127   0.831   5.680   4.134  0.1178 -0.1594  0.1019
  188DOPC   O1423128   1.031   5.833   4.194  0.3192  0.2140 -0.3134
  188DOPC   O1223129   1.063   5.615   4.096  0.2686  0.3600  0.1271
  188DOPC   O1123130   0.994   5.631   4.321 -0.2895  0.2918  0.0655
  188DOPC    C123131   0.893   5.545   4.379  0.0217 -0.4682 -0.1601
  188DOPC    HA23132   0.892   5.443   4.336  0.3049 -0.2748 -0.6382
  188DOPC    HB23133   0.789   5.583   4.373  0.3978  1.0477  1.6994
  188DOPC    C223134   0.943   5.512   4.520  0.4725  0.2716 -0.1551
  188DOPC    HS23135   0.984   5.607   4.559  2.2726  1.2312 -3.8564
  188DOPC   O2123136   1.050   5.419   4.507 -0.3447 -0.3829  0.2833
  188DOPC   C2123137   1.136   5.414   4.616 -0.1981 -1.1673  0.6270
  188DOPC   O2223138   1.124   5.481   4.715 -0.6395  0.1226 -0.0527
  188DOPC   C2223139   1.248   5.316   4.585  0.4452  0.4488  0.2123
  188DOPC   H2R23140   1.324   5.347   4.510  1.0313  3.1199  1.7962
  188DOPC   H2S23141   1.207   5.213   4.573  0.2389  0.5424  0.1002
  188DOPC    C323142   0.824   5.447   4.590  0.5187 -0.0484  0.3127
  188DOPC    HX23143   0.784   5.363   4.529 -1.9019  1.3624 -0.2140
  188DOPC    HY23144   0.737   5.516   4.582 -0.6006 -1.5562 -1.0941
  188DOPC   O3123145   0.856   5.390   4.717 -0.2430  0.1405  0.0287
  188DOPC   C3123146   0.830   5.475   4.817  0.3515 -0.0418  0.1206
  188DOPC   O3223147   0.790   5.589   4.803 -0.1729  0.2345  0.5018
  188DOPC   C3223148   0.839   5.399   4.951  0.4988  0.0047 -0.5594
  188DOPC   H2X23149   0.744   5.414   5.005 -0.2932 -4.1122 -0.4844
  188DOPC   H2Y23150   0.857   5.291   4.930 -0.5635 -0.0824 -1.0586
  188DOPC   C2323151   1.334   5.312   4.712 -0.2753 -0.1333 -0.1072
  188DOPC   H3R23152   1.393   5.404   4.730  1.0471 -0.9357 -0.2424
  188DOPC   H3S23153   1.403   5.233   4.675 -0.7732 -0.8415  0.4518
  188DOPC   C2423154   1.259   5.260   4.834 -0.4271  0.2451  0.3947
  188DOPC   H4R23155   1.190   5.183   4.794  0.0777 -0.1967  0.3520
  188DOPC   H4S23156   1.199   5.340   4.882  1.4605  0.8999  1.8109
  188DOPC   C2523157   1.348   5.186   4.936 -0.8329 -0.1075  0.2653
  188DOPC   H5R23158   1.437   5.253   4.947  0.0604 -1.2983  0.4770
  188DOPC   H5S23159   1.381   5.089   4.893 -1.1390  0.1233 -0.5134
  188DOPC   C2623160   1.283   5.161   5.073 -0.1542 -0.1070 -0.5050
  188DOPC   H6R23161   1.190   5.104   5.052 -0.1861  0.5166 -2.2526
  188DOPC   H6S23162   1.257   5.262   5.110 -2.3198 -1.0131  0.6527
  188DOPC   C2723163   1.373   5.078   5.158 -0.5966 -0.5623  0.0183
  188DOPC   H7R23164   1.453   5.133   5.213  0.1005 -0.3742 -1.1528
  188DOPC   H7S23165   1.423   5.005   5.091 -1.1065  0.8958 -2.0501
  188DOPC   C2823166   1.294   4.995   5.261  0.2130  0.1500  0.1486
  188DOPC   H8R23167   1.359   4.921   5.311 -3.0204 -1.7508  1.8707
  188DOPC   H8S23168   1.217   4.929   5.217  0.3517  0.1016 -0.0229
  188DOPC   C2923169   1.236   5.087   5.370  0.2627 -0.6275  0.8484
  188DOPC   H9R23170   1.146   5.144   5.344 -0.5360 -1.2111  2.1873
  188DOPC  C21023171   1.292   5.126   5.484  0.0225 -0.4138  0.0163
  188DOPC  H10R23172   1.233   5.190   5.551 -0.5571  1.4063 -2.1425
  188DOPC  C21123173   1.417   5.075   5.547 -0.3161 -0.4124 -0.3720
  188DOPC  H11R23174   1.442   5.130   5.640 -2.2734 -0.2978  0.1145
  188DOPC  H11S23175   1.501   5.098   5.478  0.0777  1.1506  0.5856
  188DOPC  C21223176   1.401   4.931   5.601 -0.1468 -0.4130  0.1782
  188DOPC  H12R23177   1.501   4.902   5.641 -0.1543 -0.9203 -0.1601
  188DOPC  H12S23178   1.370   4.864   5.518  2.3220 -0.2934 -0.9464
  188DOPC  C21323179   1.288   4.908   5.705 -0.0187 -0.1992 -0.7937
  188DOPC  H13R23180   1.260   4.801   5.691 -1.0198  0.0474 -0.7460
  188DOPC  H13S23181   1.196   4.966   5.679 -1.1085 -1.2453  0.5571
  188DOPC  C21423182   1.320   4.956   5.847  0.4977  0.0162  0.5270
  188DOPC  H14R23183   1.347   5.064   5.852  0.6748  0.0257 -0.4865
  188DOPC  H14S23184   1.401   4.892   5.887  0.6002  1.7049  3.2961
  188DOPC  C21523185   1.213   4.934   5.954  0.2359 -0.4223  0.4837
  188DOPC  H15R23186   1.223   4.830   5.994  0.1695 -1.8565 -2.9096
  188DOPC  H15S23187   1.114   4.957   5.909  0.9596  1.0830 -0.4128
  188DOPC  C21623188   1.238   5.026   6.081  0.0938 -0.6784 -0.0838
  188DOPC  H16R23189   1.245   5.134   6.054  2.3033 -0.6124  0.5321
  188DOPC  H16S23190   1.336   5.008   6.130  0.8371  1.5449 -0.6552
  188DOPC  C21723191   1.124   5.007   6.187  0.2587  0.8501  0.5042
  188DOPC  H17R23192   1.136   4.901   6.218 -0.7620  1.2873  2.5811
  188DOPC  H17S23193   1.020   5.017   6.150 -0.6527  1.8616  3.1100
  188DOPC  C21823194   1.132   5.097   6.311  0.5816 -0.0893 -0.5129
  188DOPC  H18R23195   1.073   5.046   6.389  0.9271  1.8972  1.1201
  188DOPC  H18S23196   1.097   5.201   6.292  1.7298  0.2533 -0.8635
  188DOPC  H18T23197   1.239   5.092   6.341  0.0506 -1.1754  1.3402
  188DOPC   C3323198   0.947   5.446   5.051 -0.1208  1.0851 -0.7375
  188DOPC   H3X23199   0.907   5.539   5.097 -0.6212  0.9862 -0.9649
  188DOPC   H3Y23200   1.044   5.461   4.999  0.6792  1.0805  0.6957
  188DOPC   C3423201   0.967   5.350   5.173  0.5647 -0.1554  0.1065
  188DOPC   H4X23202   1.051   5.391   5.233 -0.0624 -3.0888  3.3518
  188DOPC   H4Y23203   1.000   5.252   5.132 -0.4110 -0.6363  0.4577
  188DOPC   C3523204   0.848   5.332   5.265  0.5106  0.4129  0.1738
  188DOPC   H5X23205   0.867   5.252   5.338  0.0361  1.3664  1.3778
  188DOPC   H5Y23206   0.757   5.303   5.207  0.2009 -0.4737  1.0777
  188DOPC   C3623207   0.823   5.454   5.353 -0.5455  1.8727 -0.5232
  188DOPC   H6X23208   0.830   5.540   5.283  0.0827  1.1227 -1.4122
  188DOPC   H6Y23209   0.726   5.425   5.397  0.3904 -3.4789 -1.3343
  188DOPC   C3723210   0.920   5.482   5.469 -0.1813  0.1007  0.0338
  188DOPC   H7X23211   1.025   5.474   5.432  0.4584  1.8658  1.3444
  188DOPC   H7Y23212   0.903   5.587   5.501 -0.3226  0.3875 -0.9406
  188DOPC   C3823213   0.903   5.395   5.596  0.0257  0.4862 -0.2929
  188DOPC   H8X23214   0.924   5.290   5.567  1.7034  0.9046 -0.6613
  188DOPC   H8Y23215   0.798   5.383   5.631  0.0558 -0.0479 -0.3761
  188DOPC   C3923216   1.003   5.435   5.714  0.2103 -0.3184  0.5978
  188DOPC   H9X23217   1.105   5.446   5.674 -0.6776  0.1577 -1.7392
  188DOPC  C31023218   0.976   5.469   5.841 -0.5067 -0.1341  0.5159
  188DOPC  H10X23219   1.062   5.492   5.905  1.9046 -1.5685 -1.9814
  188DOPC  C31123220   0.848   5.466   5.914 -0.0768  0.5380 -0.3887
  188DOPC  H11X23221   0.815   5.364   5.945  0.0493  0.9072  1.0166
  188DOPC  H11Y23222   0.775   5.500   5.838 -0.6854 -1.4792 -0.7807
  188DOPC  C31223223   0.837   5.556   6.036  0.0045  0.3414 -0.4482
  188DOPC  H12X23224   0.731   5.561   6.070  0.5876  2.2593  1.2895
  188DOPC  H12Y23225   0.880   5.653   6.005  3.5173 -0.9205  0.0431
  188DOPC  C31323226   0.907   5.494   6.157  0.2730 -0.5576 -0.2421
  188DOPC  H13X23227   0.880   5.388   6.174 -2.0056  0.3846  2.7493
  188DOPC  H13Y23228   1.017   5.492   6.136  0.1046 -3.1008 -1.2654
  188DOPC  C31423229   0.867   5.572   6.283  0.3251 -0.7972  0.3675
  188DOPC  H14X23230   0.907   5.675   6.270 -3.5563  0.7394 -0.5958
  188DOPC  H14Y23231   0.759   5.579   6.304  0.4756  1.4343  0.5614
  188DOPC  C31523232   0.931   5.505   6.407  0.1230 -0.2984  0.4505
  188DOPC  H15X23233   1.040   5.502   6.386  0.2354 -0.3249  1.0154
  188DOPC  H15Y23234   0.900   5.400   6.424  2.1152 -1.1120 -0.7369
  188DOPC  C31623235   0.914   5.589   6.531  0.9409  0.2208  0.2017
  188DOPC  H16X23236   0.973   5.682   6.522  0.0033  0.8100  0.0023
  188DOPC  H16Y23237   0.806   5.614   6.541  0.7978  0.4018 -1.4276
  188DOPC  C31723238   0.953   5.510   6.657  0.2055  0.3048  0.3394
  188DOPC  H17X23239   0.875   5.434   6.680 -1.8942  1.8084 -1.3467
  188DOPC  H17Y23240   1.054   5.463   6.661 -0.6005 -1.5385  0.1218
  188DOPC  C31823241   0.948   5.610   6.780 -0.1172  0.5106  0.3820
  188DOPC  H18X23242   1.036   5.678   6.768 -1.4592  2.4411  0.9836
  188DOPC  H18Y23243   0.855   5.670   6.776  1.2030  2.6046 -0.5971
  188DOPC  H18Z23244   0.942   5.555   6.877 -3.3009  1.7612  1.0218
  189DOPC     N23245   1.322   2.586   3.613  0.1131 -0.4425  0.5869
  189DOPC   C1223246   1.379   2.518   3.733 -0.0612  0.5927  1.0601
  189DOPC  H12A23247   1.421   2.584   3.808  3.8346 -2.0208  1.4935
  189DOPC  H12B23248   1.461   2.453   3.706 -0.4013  0.4800  0.3001
  189DOPC   C1323249   1.195   2.656   3.645 -0.1150 -0.3099  0.4417
  189DOPC  H13A23250   1.127   2.574   3.662  0.3990 -0.1632  4.0866
  189DOPC  H13B23251   1.197   2.724   3.730 -3.2132  0.2091  0.2039
  189DOPC  H13C23252   1.161   2.719   3.564  0.7950  0.4476  0.6266
  189DOPC   C1423253   1.289   2.488   3.499  0.4397  0.6619  0.2722
  189DOPC  H14A23254   1.232   2.535   3.421  1.4076 -0.5692 -1.2340
  189DOPC  H14B23255   1.381   2.456   3.452  0.1222  0.7111 -0.3915
  189DOPC  H14C23256   1.232   2.404   3.536  0.0736  1.0174  0.5244
  189DOPC   C1523257   1.407   2.693   3.553 -0.5471  0.3382  0.0132
  189DOPC  H15A23258   1.353   2.753   3.481  1.3948  0.0759 -1.7552
  189DOPC  H15B23259   1.499   2.645   3.524 -1.3224 -0.0859 -1.8999
  189DOPC  H15C23260   1.439   2.768   3.624  1.2841  0.4344 -0.8451
  189DOPC   C1123261   1.293   2.417   3.811 -0.1768  0.4832  0.5449
  189DOPC  H11A23262   1.352   2.404   3.904 -0.0066  0.7084  0.4709
  189DOPC  H11B23263   1.190   2.455   3.827 -0.9390 -0.7228 -1.1452
  189DOPC     P23264   1.160   2.204   3.719  0.3453  0.2209 -0.0040
  189DOPC   O1323265   1.213   2.060   3.711  0.3616  0.1589  0.0932
  189DOPC   O1423266   1.085   2.260   3.600 -0.0372 -0.1778 -1.0571
  189DOPC   O1223267   1.289   2.291   3.744 -0.0536  0.6292  0.4016
  189DOPC   O1123268   1.064   2.214   3.848  0.0575 -0.1922 -0.2928
  189DOPC    C123269   1.120   2.184   3.980 -0.2628 -0.3087 -0.0665
  189DOPC    HA23270   1.228   2.208   3.984 -0.3399  0.2917 -1.1827
  189DOPC    HB23271   1.114   2.074   3.996 -1.2577 -0.1846  0.5649
  189DOPC    C223272   1.049   2.250   4.096 -0.5973 -0.4630 -0.0035
  189DOPC    HS23273   1.067   2.358   4.076 -0.9594 -0.0410  1.7755
  189DOPC   O2123274   1.121   2.219   4.218  0.3022 -0.4728 -1.1532
  189DOPC   C2123275   1.072   2.285   4.326 -0.4210  0.7695 -0.7064
  189DOPC   O2223276   1.003   2.382   4.323  0.1789 -0.0030  0.5201
  189DOPC   C2223277   1.131   2.228   4.455 -0.1985 -0.4617 -0.1642
  189DOPC   H2R23278   1.234   2.270   4.462 -1.0496  1.4500  2.3015
  189DOPC   H2S23279   1.147   2.121   4.431 -0.3565 -0.3485 -0.7810
  189DOPC    C323280   0.889   2.219   4.105 -0.6139 -0.0239  0.1973
  189DOPC    HX23281   0.850   2.217   4.001  0.2812 -2.5913 -0.1752
  189DOPC    HY23282   0.848   2.299   4.170  0.1241 -0.4548  1.2214
  189DOPC   O3123283   0.864   2.101   4.173 -0.1400  0.0263  0.2662
  189DOPC   C3123284   0.860   1.989   4.109 -0.1875  0.5527  0.1066
  189DOPC   O3223285   0.849   1.975   3.988  0.0909  0.6745 -0.2843
  189DOPC   C3223286   0.850   1.870   4.204  0.0596  0.4738 -0.0892
  189DOPC   H2X23287   0.765   1.884   4.274 -0.8799  0.7263 -1.2384
  189DOPC   H2Y23288   0.819   1.782   4.144 -0.7860  0.0164  0.9890
  189DOPC   C2323289   1.041   2.254   4.575  0.9784  0.4916  0.7870
  189DOPC   H3R23290   0.938   2.223   4.545  1.0607  0.2209  0.7752
  189DOPC   H3S23291   1.045   2.363   4.595  2.5066  1.8206 -4.8676
  189DOPC   C2423292   1.086   2.177   4.695  0.4184  0.6911  0.0245
  189DOPC   H4R23293   1.187   2.215   4.725  0.2193  0.1802  1.4194
  189DOPC   H4S23294   1.101   2.070   4.670 -2.3217  0.4110 -0.7019
  189DOPC   C2523295   0.991   2.191   4.812 -0.2060 -0.3890 -0.1186
  189DOPC   H5R23296   0.977   2.088   4.851  0.4928 -0.7285 -0.7152
  189DOPC   H5S23297   0.893   2.225   4.774 -0.6041  0.6129  1.6775
  189DOPC   C2623298   1.043   2.275   4.929  0.3190  0.0329 -0.4087
  189DOPC   H6R23299   0.952   2.297   4.990 -0.6425 -0.2022 -1.7086
  189DOPC   H6S23300   1.090   2.372   4.902  0.9946 -0.4062 -0.8341
  189DOPC   C2723301   1.150   2.205   5.014  0.4936 -0.7543 -0.1242
  189DOPC   H7R23302   1.251   2.211   4.969  1.2548 -0.0504  1.5852
  189DOPC   H7S23303   1.120   2.101   5.037  0.6660 -0.2746  2.5435
  189DOPC   C2823304   1.173   2.288   5.144 -0.0948  0.3419  0.2309
  189DOPC   H8R23305   1.206   2.390   5.115 -0.4723  0.1367 -1.0229
  189DOPC   H8S23306   1.266   2.240   5.182 -0.5813 -0.7554  0.0761
  189DOPC   C2923307   1.056   2.274   5.236  0.2389 -0.0176 -0.0372
  189DOPC   H9R23308   0.966   2.319   5.189  0.1410 -1.5002 -1.3339
  189DOPC  C21023309   1.052   2.225   5.363  0.1739  0.1749  0.5004
  189DOPC  H10R23310   0.960   2.226   5.424  0.1638  0.4624  0.4841
  189DOPC  C21123311   1.175   2.146   5.415 -0.7879 -0.3249 -0.3262
  189DOPC  H11R23312   1.237   2.112   5.330  0.5826  0.3251  0.3793
  189DOPC  H11S23313   1.150   2.048   5.460 -1.7896  0.1548  0.1974
  189DOPC  C21223314   1.263   2.228   5.517 -0.7259  0.7816  0.0349
  189DOPC  H12R23315   1.272   2.331   5.476 -0.2826  1.0835  0.8603
  189DOPC  H12S23316   1.361   2.176   5.509 -1.7204 -1.0300 -0.8392
  189DOPC  C21323317   1.220   2.234   5.663 -0.0481 -0.1450 -0.3536
  189DOPC  H13R23318   1.220   2.131   5.703 -0.1799  0.3878  1.0850
  189DOPC  H13S23319   1.118   2.278   5.659 -0.8234 -1.9248 -0.8393
  189DOPC  C21423320   1.302   2.314   5.769  0.1164 -0.6614  0.2604
  189DOPC  H14R23321   1.294   2.422   5.746  1.6718 -0.2325  1.5809
  189DOPC  H14S23322   1.407   2.281   5.756  0.1052 -0.4489 -0.4209
  189DOPC  C21523323   1.269   2.278   5.917  1.0014  1.4193  0.0339
  189DOPC  H15R23324   1.296   2.173   5.938 -0.1535  1.2865  0.9700
  189DOPC  H15S23325   1.160   2.294   5.933  0.5597 -0.3129 -0.9758
  189DOPC  C21623326   1.339   2.366   6.020  0.4825 -0.9995 -0.3430
  189DOPC  H16R23327   1.289   2.465   6.011 -2.1177 -2.2379 -0.4278
  189DOPC  H16S23328   1.436   2.384   5.969  0.6654 -0.9843  0.0113
  189DOPC  C21723329   1.328   2.319   6.162  0.5554  0.0528  0.1210
  189DOPC  H17R23330   1.369   2.216   6.157  1.0894  0.3002 -4.1623
  189DOPC  H17S23331   1.219   2.311   6.182  0.4547 -0.7968 -0.7205
  189DOPC  C21823332   1.385   2.422   6.253  0.2461  0.0956 -0.2685
  189DOPC  H18R23333   1.487   2.446   6.217  0.7799 -0.6711  0.6705
  189DOPC  H18S23334   1.391   2.387   6.359  1.0405  0.6452 -0.1278
  189DOPC  H18T23335   1.338   2.522   6.248  1.0993  0.5223  0.0692
  189DOPC   C3323336   0.972   1.860   4.293  0.3253 -0.1341 -0.4005
  189DOPC   H3X23337   1.066   1.892   4.242 -0.3216 -0.5451 -1.8774
  189DOPC   H3Y23338   0.984   1.751   4.310 -3.7803 -0.9856 -1.9587
  189DOPC   C3423339   0.966   1.917   4.432  0.1774 -0.2792  0.7236
  189DOPC   H4X23340   0.938   2.025   4.436  2.2065  0.3303  0.0015
  189DOPC   H4Y23341   1.069   1.905   4.473  0.5655 -0.6552 -0.3200
  189DOPC   C3523342   0.879   1.826   4.523 -0.4232  0.4177 -0.9893
  189DOPC   H5X23343   0.921   1.724   4.507  1.4649  0.6380  1.8129
  189DOPC   H5Y23344   0.776   1.841   4.485 -0.4471  0.5975 -0.8548
  189DOPC   C3623345   0.877   1.853   4.675  0.6154 -0.0421  0.1119
  189DOPC   H6X23346   0.861   1.962   4.695 -2.0650 -0.1768 -0.8359
  189DOPC   H6Y23347   0.798   1.799   4.731 -1.1626  2.1411 -0.1446
  189DOPC   C3723348   1.005   1.792   4.734  0.3573 -0.3714  0.2635
  189DOPC   H7X23349   1.030   1.692   4.694  0.0226 -0.9415  1.4226
  189DOPC   H7Y23350   1.092   1.859   4.724  0.2724 -0.0719  1.3469
  189DOPC   C3823351   0.980   1.774   4.882 -0.5586 -0.0412 -0.1372
  189DOPC   H8X23352   0.895   1.705   4.900 -0.5992  0.6558  2.7160
  189DOPC   H8Y23353   0.956   1.874   4.923  0.8201  0.3655 -0.2702
  189DOPC   C3923354   1.102   1.724   4.960  0.1294  0.1581 -0.2032
  189DOPC   H9X23355   1.178   1.663   4.909  1.2493  1.8792 -0.6881
  189DOPC  C31023356   1.118   1.744   5.094  0.5770  0.3418  0.1008
  189DOPC  H10X23357   1.210   1.707   5.140  0.7281  1.0554  0.3859
  189DOPC  C31123358   1.027   1.824   5.182 -0.4677  0.3805 -0.1502
  189DOPC  H11X23359   0.948   1.875   5.124  0.2707  0.1792 -1.3602
  189DOPC  H11Y23360   1.087   1.900   5.237 -2.2099 -1.2581  4.5771
  189DOPC  C31223361   0.960   1.733   5.292 -0.0355  0.6434 -0.5498
  189DOPC  H12X23362   0.905   1.644   5.255  1.7230 -0.0699 -1.5624
  189DOPC  H12Y23363   0.888   1.797   5.348  0.8402  0.9986  0.1905
  189DOPC  C31323364   1.068   1.689   5.393  0.4826 -1.2015  0.1343
  189DOPC  H13X23365   1.126   1.598   5.362  1.3781 -0.5559 -0.1321
  189DOPC  H13Y23366   1.146   1.767   5.406 -0.1808 -0.7194  1.2955
  189DOPC  C31423367   1.014   1.660   5.535 -0.5089 -0.5771  0.2345
  189DOPC  H14X23368   0.915   1.710   5.543 -0.7516 -1.2279  1.6767
  189DOPC  H14Y23369   0.997   1.551   5.538  0.3340 -0.7336 -0.3416
  189DOPC  C31523370   1.109   1.710   5.648 -0.8085  0.1354  0.6423
  189DOPC  H15X23371   1.115   1.821   5.643 -0.0247  0.0518 -1.0510
  189DOPC  H15Y23372   1.209   1.669   5.623 -1.0912  0.6078 -1.4542
  189DOPC  C31623373   1.057   1.663   5.781  0.2879 -0.0781  0.5509
  189DOPC  H16X23374   0.947   1.680   5.785 -0.1520 -2.5956  0.7139
  189DOPC  H16Y23375   1.076   1.554   5.783  1.5121  0.0661 -1.2094
  189DOPC  C31723376   1.137   1.713   5.902  0.5137  0.5763  0.5600
  189DOPC  H17X23377   1.239   1.671   5.890  0.6388  0.9956  0.1338
  189DOPC  H17Y23378   1.149   1.823   5.893  0.4085  0.6014  0.7345
  189DOPC  C31823379   1.073   1.666   6.038  0.0894  0.5279  0.1163
  189DOPC  H18X23380   1.144   1.676   6.122 -0.0693 -0.3963  0.3657
  189DOPC  H18Y23381   0.982   1.727   6.055 -0.1043  0.2415  0.1117
  189DOPC  H18Z23382   1.050   1.558   6.024  1.4528 -0.1459  2.4979
  190DOPC     N23383   2.742   4.426   3.531  0.0006  0.0612 -0.4843
  190DOPC   C1223384   2.811   4.341   3.637 -0.0754  0.7147 -0.3515
  190DOPC  H12A23385   2.811   4.409   3.721 -0.6371  1.4254 -0.9048
  190DOPC  H12B23386   2.911   4.317   3.603 -0.1053 -0.0122  0.0741
  190DOPC   C1323387   2.605   4.456   3.571 -0.2543  0.2728  0.5037
  190DOPC  H13A23388   2.550   4.503   3.491  1.1474  2.4771  0.7530
  190DOPC  H13B23389   2.552   4.373   3.615 -0.3052  0.1726  0.2562
  190DOPC  H13C23390   2.609   4.531   3.648 -0.9125 -0.1214  0.9358
  190DOPC   C1423391   2.736   4.357   3.401  0.3959 -0.2621  0.4152
  190DOPC  H14A23392   2.673   4.403   3.326 -1.4015 -2.3535  0.5345
  190DOPC  H14B23393   2.827   4.333   3.349 -0.9707  0.7245 -2.6904
  190DOPC  H14C23394   2.700   4.256   3.409  1.5812 -0.8261 -0.9809
  190DOPC   C1523395   2.816   4.550   3.513  0.6213 -0.2638  0.6563
  190DOPC  H15A23396   2.803   4.623   3.591 -1.0193 -0.2270  0.3916
  190DOPC  H15B23397   2.774   4.588   3.421 -2.0400 -1.9302  1.0513
  190DOPC  H15C23398   2.922   4.537   3.502  0.6236 -1.1152  1.5721
  190DOPC   C1123399   2.742   4.201   3.666 -0.9840 -0.1939  0.1283
  190DOPC  H11A23400   2.807   4.159   3.746  0.9575  2.8513  0.2993
  190DOPC  H11B23401   2.645   4.228   3.714 -1.8415 -2.1080 -0.4404
  190DOPC     P23402   2.875   4.051   3.487  0.5739 -0.2937 -0.2240
  190DOPC   O1323403   2.985   4.135   3.537 -0.2537 -0.0456  0.1299
  190DOPC   O1423404   2.853   4.031   3.342  0.2596  0.0331 -0.4735
  190DOPC   O1223405   2.738   4.109   3.551 -0.0464  0.0951 -0.2517
  190DOPC   O1123406   2.890   3.904   3.552  0.4229  0.1525 -0.2563
  190DOPC    C123407   2.788   3.808   3.550  0.1064 -0.1872 -0.6638
  190DOPC    HA23408   2.842   3.711   3.545 -2.0133 -1.4411 -0.6915
  190DOPC    HB23409   2.722   3.825   3.462  2.3274 -0.1783 -2.4131
  190DOPC    C223410   2.707   3.820   3.682  0.0219 -0.5735  0.3413
  190DOPC    HS23411   2.649   3.914   3.673  0.6075 -0.1481  0.8833
  190DOPC   O2123412   2.795   3.804   3.796  0.1472  0.2458  0.7157
  190DOPC   C2123413   2.774   3.888   3.889 -0.7120  0.0541 -0.3388
  190DOPC   O2223414   2.686   3.967   3.891 -0.0598  0.0343  0.0588
  190DOPC   C2223415   2.884   3.874   3.996 -0.7346  0.6281 -0.6296
  190DOPC   H2R23416   2.977   3.904   3.941 -0.5765 -1.0045 -1.3110
  190DOPC   H2S23417   2.909   3.768   4.016  0.0143  1.0641  0.8588
  190DOPC    C323418   2.612   3.697   3.696  0.3907 -0.6009  0.1882
  190DOPC    HX23419   2.682   3.611   3.687  2.3936  1.0675 -0.9364
  190DOPC    HY23420   2.551   3.685   3.604 -0.0780 -0.7569  0.5150
  190DOPC   O3123421   2.527   3.696   3.810 -0.6014 -0.5787 -0.3551
  190DOPC   C3123422   2.427   3.777   3.810  0.4792 -0.1327  0.0412
  190DOPC   O3223423   2.400   3.861   3.725 -0.2398 -0.0323 -0.0413
  190DOPC   C3223424   2.336   3.743   3.927 -0.4485  0.8359 -0.2388
  190DOPC   H2X23425   2.231   3.763   3.897 -0.7903 -1.3700 -0.6899
  190DOPC   H2Y23426   2.344   3.635   3.953  0.4609  1.6265  3.1237
  190DOPC   C2323427   2.856   3.949   4.125 -0.4049 -0.5597  0.6562
  190DOPC   H3R23428   2.906   3.891   4.206  2.9967  0.4469 -0.5439
  190DOPC   H3S23429   2.746   3.947   4.139 -0.6291 -0.5215 -0.8932
  190DOPC   C2423430   2.904   4.092   4.130 -0.3007 -0.0464 -0.3653
  190DOPC   H4R23431   2.858   4.137   4.039 -1.2975 -0.5261 -0.1163
  190DOPC   H4S23432   3.013   4.098   4.109 -0.4304  1.9253 -0.6900
  190DOPC   C2523433   2.857   4.159   4.259 -0.5717 -0.0964  1.2788
  190DOPC   H5R23434   2.750   4.136   4.277 -0.2933 -2.3209  0.3921
  190DOPC   H5S23435   2.863   4.269   4.240  2.7386 -0.5427 -1.1828
  190DOPC   C2623436   2.944   4.128   4.375 -0.1832 -0.3529  0.1087
  190DOPC   H6R23437   3.045   4.145   4.334 -0.7074  2.0264 -0.3624
  190DOPC   H6S23438   2.942   4.024   4.413 -2.3589 -1.4443 -2.6045
  190DOPC   C2723439   2.924   4.229   4.497 -0.5013  0.5314  0.1273
  190DOPC   H7R23440   2.942   4.332   4.462  1.4757  0.3230  0.4441
  190DOPC   H7S23441   3.006   4.219   4.570 -1.6256  0.4312  1.4137
  190DOPC   C2823442   2.782   4.226   4.571 -0.2280  0.3452 -0.0375
  190DOPC   H8R23443   2.770   4.124   4.613  2.4324 -1.2278 -2.6590
  190DOPC   H8S23444   2.719   4.230   4.479 -1.6330 -2.0079  0.7427
  190DOPC   C2923445   2.755   4.341   4.662  0.0151  0.0783  0.1294
  190DOPC   H9R23446   2.676   4.407   4.624 -0.2137 -0.7956 -0.9686
  190DOPC  C21023447   2.827   4.364   4.777 -0.1906 -0.0042 -0.9134
  190DOPC  H10R23448   2.807   4.453   4.839  2.5903 -0.5181  0.8616
  190DOPC  C21123449   2.929   4.272   4.831 -0.0369  0.4375 -0.9402
  190DOPC  H11R23450   3.031   4.315   4.845 -0.7291  1.2740  2.4203
  190DOPC  H11S23451   2.944   4.183   4.767  2.8046  0.7882 -0.8749
  190DOPC  C21223452   2.880   4.205   4.963  0.3149  0.1926 -0.7418
  190DOPC  H12R23453   2.966   4.139   4.989 -0.2028  0.5529  2.2358
  190DOPC  H12S23454   2.785   4.150   4.944 -0.2711  0.7990  0.3501
  190DOPC  C21323455   2.861   4.297   5.090 -0.4944  0.3161 -0.3587
  190DOPC  H13R23456   2.763   4.349   5.083 -0.8466 -0.0664  1.1542
  190DOPC  H13S23457   2.937   4.378   5.094 -0.1977 -0.0108  1.8535
  190DOPC  C21423458   2.866   4.214   5.215 -0.0402 -0.2590 -0.0829
  190DOPC  H14R23459   2.959   4.154   5.228 -0.3335 -0.3854  1.6487
  190DOPC  H14S23460   2.779   4.145   5.209  0.0669 -0.2558 -3.6822
  190DOPC  C21523461   2.862   4.311   5.337 -0.1537 -0.6391 -0.4287
  190DOPC  H15R23462   2.760   4.356   5.347 -0.5863 -1.3873 -1.3706
  190DOPC  H15S23463   2.945   4.383   5.321 -0.2431 -0.1477  1.1489
  190DOPC  C21623464   2.894   4.259   5.481 -0.0394 -0.7174  0.1067
  190DOPC  H16R23465   2.920   4.344   5.547 -0.9407 -0.4297  0.0959
  190DOPC  H16S23466   2.993   4.210   5.488  0.8930  1.1302  0.5408
  190DOPC  C21723467   2.784   4.169   5.534  0.1974  0.8007  0.1564
  190DOPC  H17R23468   2.767   4.088   5.460 -1.3940  0.9793  0.2872
  190DOPC  H17S23469   2.696   4.237   5.536  1.3191  2.3140  0.9392
  190DOPC  C21823470   2.820   4.121   5.673 -0.1234  0.1389  0.0346
  190DOPC  H18R23471   2.917   4.066   5.671  0.3746  0.9915  0.1437
  190DOPC  H18S23472   2.737   4.064   5.719  0.4161  0.3077  1.2465
  190DOPC  H18T23473   2.852   4.213   5.726 -0.5029  1.5568 -2.0416
  190DOPC   C3323474   2.369   3.811   4.065 -0.0047 -0.2447  0.5241
  190DOPC   H3X23475   2.276   3.811   4.126  0.7208  2.0755  1.7452
  190DOPC   H3Y23476   2.382   3.921   4.054  1.0923 -0.3416  0.7960
  190DOPC   C3423477   2.483   3.740   4.138  0.5838 -0.0694  0.1384
  190DOPC   H4X23478   2.575   3.727   4.076  0.0861 -4.2705 -0.0684
  190DOPC   H4Y23479   2.450   3.634   4.142 -0.2160  0.1649 -0.0898
  190DOPC   C3523480   2.509   3.810   4.267  0.0971  0.0487 -0.3283
  190DOPC   H5X23481   2.428   3.791   4.340  2.7101  0.5344  2.9757
  190DOPC   H5Y23482   2.529   3.918   4.248  2.3404 -0.1296  0.6498
  190DOPC   C3623483   2.626   3.741   4.335 -0.1714 -0.1523  0.2469
  190DOPC   H6X23484   2.605   3.636   4.365  1.0636 -0.1243  1.3127
  190DOPC   H6Y23485   2.707   3.739   4.260 -1.6339  0.9069 -1.4478
  190DOPC   C3723486   2.682   3.823   4.453  0.2862  0.2572 -0.0190
  190DOPC   H7X23487   2.787   3.792   4.476  0.5396  0.2384 -1.1321
  190DOPC   H7Y23488   2.689   3.923   4.406 -1.8582  0.4302 -0.0288
  190DOPC   C3823489   2.596   3.839   4.582 -0.4699 -0.4936 -0.5588
  190DOPC   H8X23490   2.508   3.901   4.553  0.1533  0.8558  0.3076
  190DOPC   H8Y23491   2.659   3.898   4.653 -0.1350 -0.0248 -1.2312
  190DOPC   C3923492   2.548   3.712   4.650 -0.3498  0.2485 -0.0618
  190DOPC   H9X23493   2.444   3.683   4.628 -0.5967  0.5647  0.6615
  190DOPC  C31023494   2.618   3.647   4.746  0.8854 -0.3898  0.3389
  190DOPC  H10X23495   2.572   3.555   4.786  0.5388  0.4945  2.0860
  190DOPC  C31123496   2.757   3.675   4.778 -0.5349  0.4841  0.1890
  190DOPC  H11X23497   2.818   3.712   4.693  0.3623  0.5017  0.8179
  190DOPC  H11Y23498   2.818   3.586   4.805 -2.1336 -0.0903  2.1387
  190DOPC  C31223499   2.768   3.779   4.896  0.0772  0.1004 -0.4894
  190DOPC  H12X23500   2.719   3.877   4.879 -0.3903  0.1047  0.7670
  190DOPC  H12Y23501   2.872   3.816   4.910 -1.1869  2.9935  2.9004
  190DOPC  C31323502   2.721   3.729   5.034 -0.0848  0.4761  0.0888
  190DOPC  H13X23503   2.610   3.718   5.029 -0.0678  0.8016 -1.9496
  190DOPC  H13Y23504   2.771   3.633   5.057  1.0091  1.6372  3.0314
  190DOPC  C31423505   2.759   3.818   5.147  0.1873 -0.5820 -0.5963
  190DOPC  H14X23506   2.866   3.808   5.175 -0.2844  1.7201  2.4491
  190DOPC  H14Y23507   2.751   3.925   5.119 -0.2729 -0.5394 -0.3100
  190DOPC  C31523508   2.672   3.786   5.272 -0.0039 -0.3547 -0.7644
  190DOPC  H15X23509   2.638   3.683   5.247 -1.1156 -0.5301  1.3148
  190DOPC  H15Y23510   2.582   3.850   5.268  2.1062  2.8018 -2.1191
  190DOPC  C31623511   2.730   3.769   5.417  1.3671 -0.2193  0.4315
  190DOPC  H16X23512   2.737   3.872   5.459 -0.2763  0.2337 -0.3119
  190DOPC  H16Y23513   2.655   3.714   5.477  1.2438  0.0418  0.5179
  190DOPC  C31723514   2.856   3.697   5.436 -0.5099  0.2757  0.0754
  190DOPC  H17X23515   2.839   3.592   5.406  0.7767 -0.7153  2.5107
  190DOPC  H17Y23516   2.941   3.721   5.368 -0.0326 -0.0724  0.5362
  190DOPC  C31823517   2.898   3.680   5.582 -0.1094  0.3340 -0.1774
  190DOPC  H18X23518   2.995   3.627   5.596 -1.7749 -2.4502  1.7939
  190DOPC  H18Y23519   2.893   3.770   5.647 -1.2987 -0.2947  0.6407
  190DOPC  H18Z23520   2.829   3.613   5.639  0.0074  1.2997  1.1493
  191DOPC     N23521   2.267   0.442   3.835  0.0033  0.2701 -0.5710
  191DOPC   C1223522   2.286   0.590   3.857  0.4158  0.1103 -0.1053
  191DOPC  H12A23523   2.338   0.618   3.948  1.1644  1.4433 -0.9208
  191DOPC  H12B23524   2.188   0.634   3.871  0.8834  1.7668 -1.7428
  191DOPC   C1323525   2.147   0.412   3.750 -0.7107 -1.2296  0.2262
  191DOPC  H13A23526   2.126   0.306   3.754 -1.8003 -1.0417 -0.1686
  191DOPC  H13B23527   2.055   0.449   3.793  0.2776  1.4229  0.2257
  191DOPC  H13C23528   2.153   0.451   3.650 -1.1492 -2.1512 -0.1733
  191DOPC   C1423529   2.241   0.379   3.971 -0.5723 -0.4275 -0.2635
  191DOPC  H14A23530   2.314   0.413   4.044 -0.1699 -0.1608 -0.7810
  191DOPC  H14B23531   2.149   0.408   4.019 -1.3344  0.9072 -2.3778
  191DOPC  H14C23532   2.247   0.272   3.964 -1.9411 -0.4644 -1.2604
  191DOPC   C1523533   2.391   0.380   3.768  0.0366 -0.0128  0.0572
  191DOPC  H15A23534   2.370   0.278   3.740 -3.7994  0.8015 -0.5733
  191DOPC  H15B23535   2.470   0.380   3.842 -0.5300 -0.8920  0.6808
  191DOPC  H15C23536   2.422   0.442   3.685 -0.0425 -0.1017 -0.0393
  191DOPC   C1123537   2.344   0.671   3.745  0.2821 -0.2665 -0.0055
  191DOPC  H11A23538   2.308   0.631   3.648  0.4571  0.3900 -0.3451
  191DOPC  H11B23539   2.304   0.775   3.741  2.2574  0.6077  0.9962
  191DOPC     P23540   2.570   0.764   3.843  0.0303 -0.6524  0.3056
  191DOPC   O1323541   2.582   0.902   3.792  0.5562 -0.2365 -0.3913
  191DOPC   O1423542   2.699   0.693   3.868 -0.0243  0.2347 -0.0626
  191DOPC   O1223543   2.481   0.676   3.750 -0.2083 -0.7516 -0.1443
  191DOPC   O1123544   2.491   0.752   3.981 -0.3758  0.0824  0.0286
  191DOPC    C123545   2.428   0.869   4.041 -0.9018  0.2075 -0.1049
  191DOPC    HA23546   2.326   0.849   4.080 -2.4860  2.2276 -2.8533
  191DOPC    HB23547   2.419   0.956   3.972  0.1588  1.6617  1.4850
  191DOPC    C223548   2.508   0.922   4.167  0.0409 -0.0670 -0.2876
  191DOPC    HS23549   2.431   0.979   4.223  0.1928  0.6703 -0.8033
  191DOPC   O2123550   2.627   0.993   4.132 -0.1220  0.0941 -0.1952
  191DOPC   C2123551   2.608   1.120   4.107  0.6612  0.1302 -0.0043
  191DOPC   O2223552   2.500   1.172   4.072  0.4025  0.2747 -0.2245
  191DOPC   C2223553   2.742   1.195   4.118 -0.7736  0.0028  0.5455
  191DOPC   H2R23554   2.757   1.239   4.017 -0.4545  0.7966  0.9276
  191DOPC   H2S23555   2.823   1.120   4.131 -1.1711 -0.7179 -0.8767
  191DOPC    C323556   2.541   0.805   4.265  0.1751  0.5770  0.1822
  191DOPC    HX23557   2.617   0.728   4.239  0.1583  1.0369 -1.3108
  191DOPC    HY23558   2.443   0.752   4.260 -0.8178  2.3914 -0.3514
  191DOPC   O3123559   2.554   0.850   4.400  0.5627 -0.0404 -1.0288
  191DOPC   C3123560   2.545   0.755   4.496 -0.3033 -0.0026 -0.1863
  191DOPC   O3223561   2.536   0.637   4.475  0.0060  0.3278  0.0547
  191DOPC   C3223562   2.558   0.815   4.635 -0.0543  0.1123 -0.0071
  191DOPC   H2X23563   2.638   0.892   4.635  0.3123 -0.2534  0.6918
  191DOPC   H2Y23564   2.465   0.870   4.660  0.8776  2.1840 -0.8590
  191DOPC   C2323565   2.741   1.308   4.223  0.2670  0.3305  0.0649
  191DOPC   H3R23566   2.711   1.268   4.323 -1.2697  0.5752 -0.2707
  191DOPC   H3S23567   2.657   1.378   4.206 -1.8948 -1.2030  3.3628
  191DOPC   C2423568   2.875   1.374   4.230  0.4808 -0.6527  0.5931
  191DOPC   H4R23569   2.855   1.461   4.297  0.8447 -0.3757  0.3437
  191DOPC   H4S23570   2.906   1.409   4.130 -1.7124 -0.7481 -0.1739
  191DOPC   C2523571   2.995   1.296   4.287 -0.8494  0.4715  0.5100
  191DOPC   H5R23572   3.087   1.358   4.277 -0.3563 -0.2234  0.6398
  191DOPC   H5S23573   3.003   1.204   4.225  2.8533  0.5073  0.7422
  191DOPC   C2623574   2.986   1.257   4.435  0.0193 -0.3661 -0.4201
  191DOPC   H6R23575   3.078   1.210   4.476  0.5417  1.0036  0.0097
  191DOPC   H6S23576   2.902   1.186   4.455 -0.5172 -0.3155 -2.3449
  191DOPC   C2723577   2.958   1.378   4.530  0.0240  0.3281  0.3578
  191DOPC   H7R23578   2.871   1.433   4.488 -0.9358 -2.3755 -1.4909
  191DOPC   H7S23579   3.043   1.449   4.539  0.2939  0.3611 -1.9586
  191DOPC   C2823580   2.914   1.341   4.676  0.5514 -0.7159 -0.3651
  191DOPC   H8R23581   2.825   1.276   4.676 -0.5839  0.6821 -2.9354
  191DOPC   H8S23582   2.885   1.444   4.707  0.3234 -0.2885 -1.9193
  191DOPC   C2923583   3.013   1.280   4.769  0.0257  0.8778 -0.0931
  191DOPC   H9R23584   3.056   1.185   4.736  2.9880  1.1125  2.6030
  191DOPC  C21023585   3.074   1.336   4.870 -0.2658 -0.0497 -0.7546
  191DOPC  H10R23586   3.135   1.266   4.929 -1.9468 -0.5702  0.3965
  191DOPC  C21123587   3.050   1.472   4.934  0.8480 -0.0976  1.0153
  191DOPC  H11R23588   2.996   1.537   4.862  1.9424 -0.2399  0.0266
  191DOPC  H11S23589   3.150   1.519   4.919  0.4325  0.6396  0.4715
  191DOPC  C21223590   2.990   1.490   5.071 -0.3009  0.2325 -0.2745
  191DOPC  H12R23591   2.880   1.472   5.066 -0.7813  2.8504 -0.5225
  191DOPC  H12S23592   2.994   1.599   5.092  0.5949  0.0275  0.6742
  191DOPC  C21323593   3.068   1.410   5.177 -0.1263 -0.3351  0.1442
  191DOPC  H13R23594   3.177   1.432   5.166 -0.4791  0.9564 -0.9885
  191DOPC  H13S23595   3.054   1.300   5.172  0.6850 -0.4864  0.8669
  191DOPC  C21423596   3.034   1.456   5.318 -0.2690  1.3546  1.0081
  191DOPC  H14R23597   2.926   1.433   5.329  0.2810 -2.3487 -0.0174
  191DOPC  H14S23598   3.049   1.564   5.338 -0.0843  1.1813  1.8398
  191DOPC  C21523599   3.116   1.385   5.432  0.8509  0.1827 -0.4273
  191DOPC  H15R23600   3.224   1.402   5.416  0.7465  1.9433  0.5244
  191DOPC  H15S23601   3.097   1.276   5.432 -0.0886  0.3210  1.1174
  191DOPC  C21623602   3.086   1.447   5.572  0.6655 -0.5773  0.2025
  191DOPC  H16R23603   2.977   1.435   5.590  0.9275 -2.1693  0.9246
  191DOPC  H16S23604   3.121   1.552   5.571  0.8918 -0.6378 -1.8141
  191DOPC  C21723605   3.157   1.373   5.685 -0.6851 -0.3066 -0.6563
  191DOPC  H17R23606   3.155   1.443   5.772  1.7622 -2.3448  1.2221
  191DOPC  H17S23607   3.267   1.364   5.673 -0.5063 -0.9378  1.1014
  191DOPC  C21823608   3.090   1.238   5.720 -0.2873 -0.1362  0.0486
  191DOPC  H18R23609   2.983   1.244   5.746 -0.4109  2.2175 -0.8048
  191DOPC  H18S23610   3.150   1.188   5.799 -1.5571 -1.1615  0.3981
  191DOPC  H18T23611   3.093   1.181   5.625 -1.0736  1.5459 -1.0291
  191DOPC   C3323612   2.586   0.712   4.752 -0.5424 -0.1235  0.0713
  191DOPC   H3X23613   2.686   0.665   4.737 -0.1256  0.2189  1.5798
  191DOPC   H3Y23614   2.521   0.623   4.739  0.7928 -1.1370  0.0177
  191DOPC   C3423615   2.565   0.779   4.886  0.1377 -0.2792  0.5780
  191DOPC   H4X23616   2.456   0.796   4.901 -0.3784 -1.3711 -1.5943
  191DOPC   H4Y23617   2.609   0.881   4.892 -0.9661  0.3404 -1.1602
  191DOPC   C3523618   2.627   0.696   4.995 -0.4911 -0.1528  0.6636
  191DOPC   H5X23619   2.737   0.694   4.984 -0.5551  0.0325 -0.0724
  191DOPC   H5Y23620   2.587   0.592   4.993 -1.4340  0.1849  1.1104
  191DOPC   C3623621   2.566   0.743   5.126 -0.1678 -0.1013 -1.0547
  191DOPC   H6X23622   2.582   0.853   5.131  0.4740 -0.2472  0.3978
  191DOPC   H6Y23623   2.455   0.737   5.122 -0.1939  0.0767 -0.6247
  191DOPC   C3723624   2.620   0.670   5.247 -0.0336 -0.5485  0.5098
  191DOPC   H7X23625   2.635   0.561   5.227  1.8955  0.1172 -2.3556
  191DOPC   H7Y23626   2.719   0.718   5.265  0.1435  0.9367 -3.4019
  191DOPC   C3823627   2.523   0.688   5.365 -0.4353  0.3697  0.8674
  191DOPC   H8X23628   2.422   0.667   5.322 -0.6265  2.6691  0.0390
  191DOPC   H8Y23629   2.523   0.796   5.391 -0.8694  0.4856  0.3985
  191DOPC   C3923630   2.556   0.609   5.486  0.0015  0.3221 -0.5811
  191DOPC   H9X23631   2.580   0.502   5.474  0.8866  0.4993 -0.4581
  191DOPC  C31023632   2.549   0.638   5.620  0.3383  0.2320 -0.5098
  191DOPC  H10X23633   2.569   0.569   5.704 -0.1675 -0.3368 -0.8484
  191DOPC  C31123634   2.508   0.777   5.663  0.7304 -0.7735 -0.6146
  191DOPC  H11X23635   2.461   0.841   5.585  1.8917  2.3778  1.0924
  191DOPC  H11Y23636   2.597   0.832   5.698 -1.1164 -0.4964  4.5367
  191DOPC  C31223637   2.410   0.773   5.781  0.4781 -1.2274  0.2147
  191DOPC  H12X23638   2.325   0.707   5.754 -1.4477  1.1287  0.2083
  191DOPC  H12Y23639   2.356   0.869   5.792  1.1101 -0.5842 -1.7739
  191DOPC  C31323640   2.468   0.743   5.920 -1.0048 -0.9164 -0.7368
  191DOPC  H13X23641   2.507   0.639   5.913 -0.0252 -0.4955 -1.9276
  191DOPC  H13Y23642   2.564   0.797   5.934 -0.4504 -1.4956 -2.1624
  191DOPC  C31423643   2.374   0.766   6.041  0.4650  0.0227  0.2525
  191DOPC  H14X23644   2.329   0.867   6.053  2.3040  0.7701  1.3588
  191DOPC  H14Y23645   2.285   0.701   6.033  0.3304 -0.1391  2.3584
  191DOPC  C31523646   2.446   0.728   6.173 -0.2433  0.2463 -0.1177
  191DOPC  H15X23647   2.546   0.774   6.166 -0.8557  1.6683  0.1274
  191DOPC  H15Y23648   2.465   0.619   6.174 -1.8035 -0.0617 -0.8407
  191DOPC  C31623649   2.378   0.775   6.300  0.8547  0.6427  0.7590
  191DOPC  H16X23650   2.276   0.731   6.305  0.9570  0.3405  0.2893
  191DOPC  H16Y23651   2.425   0.715   6.381 -1.1653  0.7321  2.0752
  191DOPC  C31723652   2.379   0.929   6.325  0.6116  0.0624 -0.0315
  191DOPC  H17X23653   2.483   0.967   6.316  0.4003  1.6712  3.0274
  191DOPC  H17Y23654   2.310   0.975   6.251 -0.2311  0.0496  0.7410
  191DOPC  C31823655   2.313   0.960   6.458  0.3713  0.8626 -0.1349
  191DOPC  H18X23656   2.343   1.058   6.500  0.8665  0.4461  0.5054
  191DOPC  H18Y23657   2.203   0.949   6.442 -0.4093  0.9230  3.9153
  191DOPC  H18Z23658   2.339   0.873   6.523 -0.3022 -0.2334 -1.2881
  192DOPC     N23659   6.520   3.798   3.906  0.0388  0.2672 -0.0385
  192DOPC   C1223660   6.645   3.841   3.993  0.0431 -0.3278  0.3286
  192DOPC  H12A23661   6.611   3.904   4.074  0.2320  1.5115 -0.9645
  192DOPC  H12B23662   6.720   3.890   3.933 -1.1561 -1.7141 -2.5063
  192DOPC   C1323663   6.474   3.919   3.842  0.2377  0.1632  0.3443
  192DOPC  H13A23664   6.401   3.978   3.895  0.6447  1.8642 -0.8643
  192DOPC  H13B23665   6.555   3.977   3.800  0.0757 -0.8674 -1.5040
  192DOPC  H13C23666   6.416   3.898   3.753  0.1804 -1.7181  0.7974
  192DOPC   C1423667   6.407   3.741   3.995  0.0449  0.4064  0.4609
  192DOPC  H14A23668   6.438   3.649   4.043 -1.8639 -0.4925  0.0481
  192DOPC  H14B23669   6.380   3.810   4.073 -0.7962  0.7444 -0.1173
  192DOPC  H14C23670   6.322   3.717   3.933 -0.4157  1.9662  0.4492
  192DOPC   C1523671   6.562   3.689   3.810  0.0629 -0.0961  0.1990
  192DOPC  H15A23672   6.649   3.728   3.759 -0.8884  0.1151 -1.3113
  192DOPC  H15B23673   6.485   3.664   3.739  0.5674  0.9396 -0.7449
  192DOPC  H15C23674   6.595   3.597   3.855  1.3017 -0.3847 -1.2104
  192DOPC   C1123675   6.727   3.722   4.066 -0.2643 -0.6639 -0.1063
  192DOPC  H11A23676   6.780   3.661   3.989  2.0857  1.0147  0.1000
  192DOPC  H11B23677   6.810   3.768   4.123 -0.0672  0.5104 -1.2824
  192DOPC     P23678   6.637   3.493   4.142  0.2308  0.4380 -0.0193
  192DOPC   O1323679   6.682   3.442   4.006 -0.1511 -0.8748 -0.2756
  192DOPC   O1423680   6.499   3.456   4.187 -0.3413  0.2057  0.0227
  192DOPC   O1223681   6.643   3.648   4.152 -0.1740  0.1748  0.7418
  192DOPC   O1123682   6.736   3.442   4.251  0.1674 -0.2385 -0.0119
  192DOPC    C123683   6.790   3.541   4.342  0.5240 -0.0097 -0.2964
  192DOPC    HA23684   6.723   3.629   4.357 -0.5966  0.3843 -5.4581
  192DOPC    HB23685   6.882   3.585   4.297  0.6149  1.5487  1.2807
  192DOPC    C223686   6.820   3.485   4.483  0.1431  0.2441 -0.1133
  192DOPC    HS23687   6.845   3.566   4.555  0.2076  0.9041 -0.8650
  192DOPC   O2123688   6.927   3.395   4.464 -0.3389 -0.0692 -0.4112
  192DOPC   C2123689   7.001   3.375   4.573  0.2967  0.7973  0.4405
  192DOPC   O2223690   6.990   3.435   4.673 -0.0048  0.0098 -0.2601
  192DOPC   C2223691   7.100   3.262   4.549  0.2703 -0.3515 -0.4528
  192DOPC   H2R23692   7.170   3.290   4.467 -1.4130  1.2422 -1.4121
  192DOPC   H2S23693   7.038   3.176   4.516 -0.1314 -0.7220  1.2107
  192DOPC    C323694   6.704   3.405   4.543  0.2499 -0.2271 -0.2701
  192DOPC    HX23695   6.682   3.310   4.489  0.0630 -0.0204 -0.5600
  192DOPC    HY23696   6.612   3.466   4.529 -1.0839 -1.3822  2.5580
  192DOPC   O3123697   6.723   3.375   4.682  0.0790 -0.2997 -0.1586
  192DOPC   C3123698   6.677   3.454   4.772 -0.4387 -0.7419  0.2227
  192DOPC   O3223699   6.627   3.564   4.754  0.2925 -0.5145 -0.4182
  192DOPC   C3223700   6.695   3.388   4.909  0.5658 -0.1608 -0.1066
  192DOPC   H2X23701   6.615   3.311   4.901  1.4364 -0.9781 -1.3039
  192DOPC   H2Y23702   6.793   3.338   4.927 -0.4965 -2.0191  0.8134
  192DOPC   C2323703   7.178   3.220   4.678  0.1231 -0.6287  0.6034
  192DOPC   H3R23704   7.183   3.109   4.681 -1.1550 -1.0511 -4.1682
  192DOPC   H3S23705   7.140   3.258   4.775 -0.8560  0.5890 -0.2140
  192DOPC   C2423706   7.321   3.274   4.675  0.2436 -0.0412 -1.0707
  192DOPC   H4R23707   7.320   3.384   4.656 -0.5412 -0.0363 -1.0234
  192DOPC   H4S23708   7.376   3.222   4.593 -1.9105 -3.0720 -0.7423
  192DOPC   C2523709   7.399   3.245   4.807 -0.5808  0.1425 -0.2462
  192DOPC   H5R23710   7.352   3.296   4.894  1.3726  0.8827  0.4326
  192DOPC   H5S23711   7.501   3.288   4.804 -0.5315  0.0193 -0.3081
  192DOPC   C2623712   7.418   3.095   4.837 -0.0666  0.2405 -0.1947
  192DOPC   H6R23713   7.455   3.048   4.743  0.4166  0.5009 -0.1400
  192DOPC   H6S23714   7.324   3.042   4.862 -0.3591  0.0470 -1.6193
  192DOPC   C2723715   7.527   3.075   4.947 -0.4195  0.2679  1.0913
  192DOPC   H7R23716   7.627   3.103   4.905 -0.5753 -2.2538 -1.2190
  192DOPC   H7S23717   7.536   2.966   4.963  1.2041  0.3212  0.7692
  192DOPC   C2823718   7.507   3.142   5.083  0.3386  0.6898 -0.1216
  192DOPC   H8R23719   7.413   3.097   5.121  0.4991 -0.0703 -0.5979
  192DOPC   H8S23720   7.483   3.250   5.073 -2.2630  0.2569  0.7214
  192DOPC   C2923721   7.612   3.112   5.182 -0.4263  0.5083  0.2550
  192DOPC   H9R23722   7.710   3.081   5.143 -1.0044 -0.3316 -0.5754
  192DOPC  C21023723   7.595   3.104   5.313 -0.1252 -0.2380 -0.0053
  192DOPC  H10R23724   7.671   3.071   5.384 -0.3327 -0.3824  0.1516
  192DOPC  C21123725   7.460   3.128   5.383 -0.3666 -0.1643  0.4439
  192DOPC  H11R23726   7.373   3.120   5.314 -0.5417  0.5127  0.5804
  192DOPC  H11S23727   7.448   3.225   5.436 -4.1824 -0.5309  0.5867
  192DOPC  C21223728   7.437   3.012   5.488 -0.3968 -0.1073 -0.5613
  192DOPC  H12R23729   7.429   2.918   5.430  2.0381 -3.0343  3.3682
  192DOPC  H12S23730   7.335   3.037   5.522 -0.3318  1.0611 -1.1490
  192DOPC  C21323731   7.542   3.002   5.596  0.0579  0.3834  0.7388
  192DOPC  H13R23732   7.565   3.105   5.631  0.0288  0.9193 -0.7562
  192DOPC  H13S23733   7.634   2.956   5.554 -1.2220 -1.7310  0.0863
  192DOPC  C21423734   7.490   2.912   5.713 -0.3582  0.0035  0.0752
  192DOPC  H14R23735   7.578   2.890   5.776 -1.3219  0.7276  1.7484
  192DOPC  H14S23736   7.452   2.817   5.669  3.4624 -1.3843 -0.6095
  192DOPC  C21523737   7.377   2.969   5.812 -0.8036 -0.1228  0.5213
  192DOPC  H15R23738   7.374   2.891   5.892 -0.4053  1.6695  2.3619
  192DOPC  H15S23739   7.276   2.971   5.765 -0.4812 -1.2271 -0.2679
  192DOPC  C21623740   7.407   3.103   5.882  0.0008  0.1167 -0.7195
  192DOPC  H16R23741   7.329   3.117   5.960  2.5198 -0.9832  2.1937
  192DOPC  H16S23742   7.400   3.183   5.806 -0.8729  0.9799  0.2552
  192DOPC  C21723743   7.545   3.115   5.947  0.0983 -0.2034  0.0460
  192DOPC  H17R23744   7.551   3.219   5.987 -1.5690  0.4462 -1.2841
  192DOPC  H17S23745   7.624   3.106   5.870  1.6861 -0.8365  1.6761
  192DOPC  C21823746   7.564   3.014   6.065 -0.4886 -0.2707 -0.0721
  192DOPC  H18R23747   7.651   3.041   6.129  0.0188  0.0549 -0.8776
  192DOPC  H18S23748   7.575   2.909   6.030  1.3950 -0.2895  0.4792
  192DOPC  H18T23749   7.477   3.026   6.132 -0.3719  0.8072 -0.1084
  192DOPC   C3323750   6.668   3.486   5.033 -0.8197  0.7709 -0.4742
  192DOPC   H3X23751   6.575   3.543   5.014 -3.4019 -1.7563  3.1228
  192DOPC   H3Y23752   6.751   3.559   5.041 -1.7760  1.9050 -0.6426
  192DOPC   C3423753   6.647   3.407   5.169 -0.0015 -0.5016  0.5982
  192DOPC   H4X23754   6.721   3.323   5.170 -0.7950 -1.3804 -2.3027
  192DOPC   H4Y23755   6.549   3.355   5.166  0.0284 -0.7827  3.0276
  192DOPC   C3523756   6.678   3.497   5.288 -0.2759  0.2486  0.8598
  192DOPC   H5X23757   6.590   3.563   5.296 -0.2871  0.2806  0.4799
  192DOPC   H5Y23758   6.774   3.552   5.277  1.7604 -3.0959  0.1704
  192DOPC   C3623759   6.687   3.408   5.411 -0.4774 -0.2060 -0.9158
  192DOPC   H6X23760   6.600   3.345   5.440 -0.1111 -0.5943 -0.6429
  192DOPC   H6Y23761   6.771   3.335   5.412 -0.0190  0.3018  0.6478
  192DOPC   C3723762   6.733   3.500   5.535  0.1402  0.3072 -0.6939
  192DOPC   H7X23763   6.778   3.435   5.613  0.3669 -1.3003 -2.1165
  192DOPC   H7Y23764   6.814   3.567   5.499  0.3100  1.7202  2.0268
  192DOPC   C3823765   6.620   3.585   5.589  0.3971 -0.1999 -0.0679
  192DOPC   H8X23766   6.527   3.526   5.603  0.2298  0.1145  0.1624
  192DOPC   H8Y23767   6.602   3.645   5.497  1.8644  1.4021  0.6394
  192DOPC   C3923768   6.648   3.675   5.713  0.1050 -0.5869  0.6285
  192DOPC   H9X23769   6.701   3.767   5.686 -0.2755 -0.7643 -0.8285
  192DOPC  C31023770   6.615   3.643   5.840  0.1454 -0.1060 -0.3707
  192DOPC  H10X23771   6.646   3.707   5.924 -0.1028 -0.9373  0.3687
  192DOPC  C31123772   6.535   3.528   5.896 -0.0258  0.1185  0.8017
  192DOPC  H11X23773   6.597   3.478   5.974  0.5849  0.4544  0.5403
  192DOPC  H11Y23774   6.521   3.450   5.818 -1.0089  0.3351  0.7548
  192DOPC  C31223775   6.400   3.565   5.950 -0.4002 -0.0205 -0.3859
  192DOPC  H12X23776   6.345   3.612   5.866 -0.8771 -0.5038 -0.3456
  192DOPC  H12Y23777   6.411   3.624   6.043  1.7353 -2.6039  1.1667
  192DOPC  C31323778   6.327   3.434   5.993  0.4952 -0.3347  0.2169
  192DOPC  H13X23779   6.307   3.362   5.910 -0.2927 -0.9279  0.9011
  192DOPC  H13Y23780   6.392   3.381   6.066 -0.1769 -1.0353  0.3217
  192DOPC  C31423781   6.192   3.469   6.059  0.0472 -0.3319 -0.5512
  192DOPC  H14X23782   6.201   3.551   6.133 -1.2363 -1.2849  0.7124
  192DOPC  H14Y23783   6.128   3.506   5.977 -0.8499 -1.0860 -0.2083
  192DOPC  C31523784   6.142   3.342   6.126  0.4601  0.1939  0.9370
  192DOPC  H15X23785   6.228   3.303   6.185  0.8544  1.2072  1.0452
  192DOPC  H15Y23786   6.115   3.275   6.041  0.3470  0.0017  1.1220
  192DOPC  C31623787   6.026   3.354   6.223 -0.0534 -0.0232  0.0014
  192DOPC  H16X23788   6.055   3.360   6.330  2.8903 -1.1749 -0.6469
  192DOPC  H16Y23789   5.967   3.443   6.191 -0.0072  0.1746  0.4624
  192DOPC  C31723790   5.945   3.230   6.217  0.8976  0.0723 -0.2791
  192DOPC  H17X23791   5.890   3.211   6.123  0.0508  0.5198  0.1068
  192DOPC  H17Y23792   6.019   3.150   6.237 -0.9419 -1.0192  2.9317
  192DOPC  C31823793   5.839   3.232   6.330  0.2045  0.1011 -0.7598
  192DOPC  H18X23794   5.760   3.157   6.308 -1.1021  0.9324  0.8498
  192DOPC  H18Y23795   5.878   3.204   6.430 -1.7235  1.8340  0.5628
  192DOPC  H18Z23796   5.786   3.330   6.328 -2.0029 -0.9955 -0.0951
  193DOPC     N23797   5.679   4.429   4.198  0.0889 -0.5931  0.1886
  193DOPC   C1223798   5.750   4.562   4.226  0.3352  0.9701  0.2825
  193DOPC  H12A23799   5.685   4.642   4.193 -0.5653  0.1135 -0.0646
  193DOPC  H12B23800   5.837   4.565   4.161  0.3342  0.8884  0.2767
  193DOPC   C1323801   5.583   4.434   4.075  0.0027 -0.2594 -0.3159
  193DOPC  H13A23802   5.549   4.333   4.058  2.4504 -1.6527  2.1694
  193DOPC  H13B23803   5.488   4.482   4.093 -1.3179 -2.7228 -0.2071
  193DOPC  H13C23804   5.634   4.468   3.986  2.9203 -1.3067  0.8371
  193DOPC   C1423805   5.600   4.380   4.309 -0.9925 -0.6802  0.0908
  193DOPC  H14A23806   5.667   4.363   4.392 -0.2458 -0.1027 -0.3834
  193DOPC  H14B23807   5.527   4.457   4.329 -0.5528 -0.2625  0.1146
  193DOPC  H14C23808   5.557   4.286   4.276 -0.3714 -1.1266  0.5339
  193DOPC   C1523809   5.784   4.321   4.187 -0.0651  0.4172  0.2000
  193DOPC  H15A23810   5.738   4.224   4.171 -0.2649 -0.2102  3.7712
  193DOPC  H15B23811   5.825   4.300   4.285  0.7329  2.1775  0.2793
  193DOPC  H15C23812   5.873   4.351   4.133  0.8183 -1.4526  0.5272
  193DOPC   C1123813   5.802   4.576   4.370  0.2491  0.3171  0.3059
  193DOPC  H11A23814   5.719   4.576   4.444 -1.1566  0.4027 -1.1897
  193DOPC  H11B23815   5.864   4.489   4.398 -2.6360 -1.9306  0.2120
  193DOPC     P23816   6.016   4.713   4.326 -0.2517  0.1697 -0.0787
  193DOPC   O1323817   6.068   4.852   4.358 -0.3313 -0.1464  0.2653
  193DOPC   O1423818   5.999   4.679   4.183  0.1911 -0.1515  0.3641
  193DOPC   O1223819   5.873   4.700   4.388 -0.2310 -0.1167  0.0485
  193DOPC   O1123820   6.107   4.610   4.410 -0.7415 -0.5596  0.8467
  193DOPC    C123821   6.092   4.578   4.542  1.0186 -0.2634 -0.0202
  193DOPC    HA23822   6.134   4.476   4.552  0.4581 -0.4493  0.5242
  193DOPC    HB23823   5.991   4.568   4.587  0.9993  1.6546  0.4689
  193DOPC    C223824   6.179   4.659   4.633  0.1792  0.3724 -0.2331
  193DOPC    HS23825   6.161   4.765   4.607 -0.0887  0.3840 -0.0067
  193DOPC   O2123826   6.315   4.630   4.605 -0.1051 -0.2689  0.6024
  193DOPC   C2123827   6.407   4.729   4.625  0.0874 -0.0873  0.2116
  193DOPC   O2223828   6.384   4.840   4.661  0.0862 -0.3003  0.0360
  193DOPC   C2223829   6.538   4.674   4.602  0.1072  0.4591 -0.3655
  193DOPC   H2R23830   6.603   4.758   4.569 -0.2834  1.4239  1.2071
  193DOPC   H2S23831   6.538   4.602   4.518 -1.0119 -0.5946  0.4901
  193DOPC    C323832   6.138   4.608   4.780 -0.2572 -0.7222  0.0424
  193DOPC    HX23833   6.126   4.498   4.789 -1.1992 -0.5045  1.7381
  193DOPC    HY23834   6.035   4.649   4.784  0.2342  0.5598  4.7076
  193DOPC   O3123835   6.233   4.659   4.881 -0.0063 -0.1410  0.1529
  193DOPC   C3123836   6.208   4.784   4.926 -0.1193 -0.2616  0.3350
  193DOPC   O3223837   6.122   4.855   4.885 -0.2790 -0.6199  0.5168
  193DOPC   C3223838   6.323   4.823   5.028 -0.7893 -0.2343  0.1398
  193DOPC   H2X23839   6.394   4.739   5.042 -2.4033 -2.1430 -2.2608
  193DOPC   H2Y23840   6.382   4.906   4.983  1.4183 -1.4302  0.7149
  193DOPC   C2323841   6.600   4.595   4.724 -0.3918 -0.0575  0.5356
  193DOPC   H3R23842   6.580   4.643   4.822 -2.9544 -0.0311  0.0796
  193DOPC   H3S23843   6.708   4.573   4.715 -0.7154 -2.4501  1.6736
  193DOPC   C2423844   6.554   4.451   4.733 -0.4032  0.3340 -0.5955
  193DOPC   H4R23845   6.579   4.419   4.630  0.4812 -0.5254 -0.1259
  193DOPC   H4S23846   6.445   4.454   4.756  0.2459  0.0297  3.0459
  193DOPC   C2523847   6.618   4.362   4.848  0.1445  0.0399  0.5785
  193DOPC   H5R23848   6.728   4.354   4.830 -0.0857 -2.4817 -0.1022
  193DOPC   H5S23849   6.588   4.256   4.835  1.5868 -0.2998 -0.2397
  193DOPC   C2623850   6.566   4.412   4.983 -0.1343 -0.0818 -0.5337
  193DOPC   H6R23851   6.455   4.417   4.978 -0.2409 -0.6086  0.8189
  193DOPC   H6S23852   6.609   4.513   4.998 -1.6285  0.9508 -2.7648
  193DOPC   C2723853   6.605   4.321   5.105 -0.5073  0.3904 -0.0061
  193DOPC   H7R23854   6.714   4.303   5.108 -0.2258  2.0033  0.4591
  193DOPC   H7S23855   6.556   4.223   5.088  2.7257 -1.2866 -0.3478
  193DOPC   C2823856   6.562   4.373   5.246  0.7158  0.0633 -0.3775
  193DOPC   H8R23857   6.557   4.294   5.325 -2.1413 -0.3438 -0.8549
  193DOPC   H8S23858   6.455   4.400   5.231  0.7171  0.4497  0.2637
  193DOPC   C2923859   6.638   4.491   5.310  0.2906  0.7239  0.4358
  193DOPC   H9R23860   6.695   4.551   5.239 -1.9395  0.8562 -1.3705
  193DOPC  C21023861   6.647   4.522   5.440  0.4562 -0.5836  0.8792
  193DOPC  H10R23862   6.712   4.607   5.463 -0.5330  0.5998 -0.5021
  193DOPC  C21123863   6.590   4.461   5.562 -0.5020  0.2252 -0.1527
  193DOPC  H11R23864   6.511   4.388   5.534 -0.5475 -0.1317  0.8592
  193DOPC  H11S23865   6.562   4.536   5.640  1.6191  1.9620 -0.9468
  193DOPC  C21223866   6.693   4.377   5.636 -0.1748 -0.0620 -0.4705
  193DOPC  H12R23867   6.772   4.445   5.674  0.6236 -0.2599 -1.7370
  193DOPC  H12S23868   6.727   4.310   5.554  2.6162  0.5689  0.0773
  193DOPC  C21323869   6.635   4.289   5.745 -0.7779 -0.3109 -0.0370
  193DOPC  H13R23870   6.708   4.228   5.801 -0.3599  1.4178  1.4164
  193DOPC  H13S23871   6.580   4.206   5.698  0.2478 -1.3355  0.5264
  193DOPC  C21423872   6.546   4.365   5.846 -0.1045 -0.0345 -0.0351
  193DOPC  H14R23873   6.452   4.389   5.792  0.5014  1.4209 -0.5123
  193DOPC  H14S23874   6.591   4.466   5.861 -1.6502  0.2502  3.4585
  193DOPC  C21523875   6.532   4.294   5.983  0.3955 -0.6028 -0.2114
  193DOPC  H15R23876   6.630   4.283   6.035  2.4519  0.8812 -3.4493
  193DOPC  H15S23877   6.487   4.193   5.981 -0.0991 -0.5351  2.9045
  193DOPC  C21623878   6.437   4.383   6.072 -0.1842  0.1752 -0.0243
  193DOPC  H16R23879   6.348   4.410   6.011 -1.4419  0.4130  1.8271
  193DOPC  H16S23880   6.492   4.478   6.092  1.9771 -1.1679  0.7412
  193DOPC  C21723881   6.405   4.321   6.206 -0.0685 -0.0996  0.1162
  193DOPC  H17R23882   6.496   4.285   6.258 -0.1177  1.3596  1.3153
  193DOPC  H17S23883   6.330   4.242   6.185  1.2213 -0.5363 -3.5528
  193DOPC  C21823884   6.347   4.427   6.299  0.3451 -0.1587 -0.4720
  193DOPC  H18R23885   6.419   4.500   6.342  0.0459 -0.0325 -0.1849
  193DOPC  H18S23886   6.297   4.373   6.382  3.3952  0.2893  1.8457
  193DOPC  H18T23887   6.258   4.473   6.250  0.0336  0.6862  0.8162
  193DOPC   C3323888   6.259   4.870   5.160  0.6227 -0.1163  0.3265
  193DOPC   H3X23889   6.158   4.915   5.159  1.5480  2.1456  1.3778
  193DOPC   H3Y23890   6.323   4.948   5.207  2.4918  0.1437 -2.4291
  193DOPC   C3423891   6.263   4.755   5.266  0.4138  0.2397 -0.8684
  193DOPC   H4X23892   6.370   4.734   5.290 -0.3023  1.1695  4.4092
  193DOPC   H4Y23893   6.226   4.657   5.231  0.1960 -0.2037  0.5388
  193DOPC   C3523894   6.196   4.783   5.408 -0.3815 -0.2952 -0.0051
  193DOPC   H5X23895   6.089   4.779   5.378  0.3269  0.8518 -3.1654
  193DOPC   H5Y23896   6.236   4.882   5.439  0.2872 -0.4975 -0.2018
  193DOPC   C3623897   6.227   4.681   5.507  0.3318  0.1167  0.4522
  193DOPC   H6X23898   6.194   4.582   5.468 -2.7981  1.0719  0.4096
  193DOPC   H6Y23899   6.338   4.676   5.511  0.5074 -0.5718 -2.4796
  193DOPC   C3723900   6.169   4.706   5.640  0.1873 -0.0549  0.1762
  193DOPC   H7X23901   6.194   4.810   5.670 -3.0131  1.1315 -0.8300
  193DOPC   H7Y23902   6.060   4.688   5.644  0.1352  0.5685  2.9388
  193DOPC   C3823903   6.235   4.618   5.750  0.3067  0.0427  0.1219
  193DOPC   H8X23904   6.342   4.609   5.724 -0.0308  0.5274 -1.5533
  193DOPC   H8Y23905   6.205   4.512   5.730 -0.5737  0.1877  0.5991
  193DOPC   C3923906   6.197   4.654   5.896 -0.3267 -0.4719  0.3450
  193DOPC   H9X23907   6.253   4.739   5.937  0.0053 -0.4461 -0.1567
  193DOPC  C31023908   6.101   4.599   5.971 -0.7179  0.3755 -0.2219
  193DOPC  H10X23909   6.086   4.642   6.070 -0.5588  2.3346 -1.0102
  193DOPC  C31123910   6.024   4.475   5.934  0.6057 -0.3661 -0.3325
  193DOPC  H11X23911   6.047   4.449   5.829  1.5876  0.4483 -0.3378
  193DOPC  H11Y23912   5.914   4.494   5.928  0.9936  2.9368  0.8245
  193DOPC  C31223913   6.033   4.340   6.009 -0.5876  0.1031 -1.4144
  193DOPC  H12X23914   6.143   4.325   6.019 -0.3671 -0.0144 -3.5269
  193DOPC  H12Y23915   5.988   4.262   5.944  0.2844 -1.0696 -0.6581
  193DOPC  C31323916   5.954   4.337   6.146 -0.8835 -0.5077 -0.1465
  193DOPC  H13X23917   6.006   4.411   6.211  0.1166 -0.2997 -1.1453
  193DOPC  H13Y23918   5.857   4.376   6.108 -0.5172 -0.6798 -1.3176
  193DOPC  C31423919   5.936   4.200   6.210 -0.0676  0.1010 -0.4605
  193DOPC  H14X23920   5.949   4.129   6.126  1.5429 -1.2344  0.8447
  193DOPC  H14Y23921   6.017   4.173   6.280  0.3255 -0.0208 -0.9543
  193DOPC  C31523922   5.805   4.165   6.274  0.5673 -0.0551  0.2768
  193DOPC  H15X23923   5.722   4.220   6.224  1.4130  2.0016  0.9906
  193DOPC  H15Y23924   5.806   4.204   6.378  0.7341  0.0232  0.2460
  193DOPC  C31623925   5.778   4.018   6.251 -1.2543  0.9849 -0.6208
  193DOPC  H16X23926   5.760   4.004   6.143 -2.5772  0.1441 -0.3138
  193DOPC  H16Y23927   5.863   3.956   6.289 -2.4218  1.2913  2.8504
  193DOPC  C31723928   5.661   3.965   6.341 -0.0784  0.1807  0.0196
  193DOPC  H17X23929   5.670   4.004   6.445 -0.9586  0.4240  0.0115
  193DOPC  H17Y23930   5.570   4.017   6.305 -0.8885  0.3070  2.1003
  193DOPC  C31823931   5.646   3.810   6.329  0.3398  0.0931 -0.5483
  193DOPC  H18X23932   5.570   3.761   6.393 -0.4747 -0.2729 -1.7569
  193DOPC  H18Y23933   5.603   3.781   6.231  0.4231  1.8536 -1.1532
  193DOPC  H18Z23934   5.746   3.768   6.353 -0.4216 -1.5984 -0.2405
  194DOPC     N23935   1.504   4.459   3.460 -0.0552 -0.9141 -0.3022
  194DOPC   C1223936   1.644   4.501   3.410  0.3555 -0.6491  0.2391
  194DOPC  H12A23937   1.677   4.587   3.466 -0.9481  0.1628 -0.1972
  194DOPC  H12B23938   1.633   4.520   3.304  0.3253  0.0102  0.3550
  194DOPC   C1323939   1.405   4.573   3.436  0.0314 -0.1633 -0.3993
  194DOPC  H13A23940   1.411   4.611   3.336  0.9617 -2.1174 -1.1394
  194DOPC  H13B23941   1.304   4.535   3.438  0.2238 -0.9913 -2.9265
  194DOPC  H13C23942   1.431   4.643   3.515  2.9060 -0.5307 -0.9086
  194DOPC   C1423943   1.506   4.428   3.603  1.1367  0.3563 -1.2357
  194DOPC  H14A23944   1.409   4.397   3.638  1.3226  2.2380  1.2093
  194DOPC  H14B23945   1.577   4.357   3.640 -0.1302  0.1363  0.9261
  194DOPC  H14C23946   1.522   4.522   3.653  1.2024 -0.4515  0.2950
  194DOPC   C1523947   1.445   4.341   3.383 -0.3151 -0.0608 -0.2673
  194DOPC  H15A23948   1.347   4.327   3.426  0.4949  0.9116  2.0418
  194DOPC  H15B23949   1.504   4.256   3.414 -1.0403  0.0770  1.6249
  194DOPC  H15C23950   1.441   4.355   3.276 -0.3457 -1.9299 -0.5460
  194DOPC   C1123951   1.750   4.391   3.421 -0.4798 -0.4555 -0.5490
  194DOPC  H11A23952   1.702   4.297   3.385 -0.3173 -1.6455  2.0705
  194DOPC  H11B23953   1.834   4.414   3.352  0.6412 -3.2661 -0.2448
  194DOPC     P23954   1.850   4.254   3.621  0.5644 -0.0520 -0.0123
  194DOPC   O1323955   1.927   4.180   3.522  0.0122  0.6357 -0.1476
  194DOPC   O1423956   1.732   4.192   3.685  0.0860  0.2521  0.4126
  194DOPC   O1223957   1.805   4.387   3.555 -0.2068  0.2582  0.3053
  194DOPC   O1123958   1.940   4.299   3.737  1.0753 -0.3036 -0.0731
  194DOPC    C123959   1.905   4.431   3.793  0.4642 -0.6417  0.4018
  194DOPC    HA23960   1.794   4.443   3.794  0.3655 -1.4082 -0.3888
  194DOPC    HB23961   1.941   4.510   3.724 -0.2263 -2.0774 -1.7090
  194DOPC    C223962   1.966   4.465   3.928 -0.3822 -0.2695 -0.5144
  194DOPC    HS23963   1.947   4.573   3.946 -1.5088 -0.8533  2.2610
  194DOPC   O2123964   2.108   4.451   3.920  0.6834 -0.2478 -0.5044
  194DOPC   C2123965   2.180   4.523   4.003  0.7017  0.7462  0.7715
  194DOPC   O2223966   2.136   4.611   4.073  0.5094 -0.3887 -0.1023
  194DOPC   C2223967   2.322   4.466   4.002  0.2905  0.0181  0.4653
  194DOPC   H2R23968   2.393   4.541   4.041  2.0055 -0.5078 -1.4836
  194DOPC   H2S23969   2.358   4.450   3.899  1.8901  1.7375  0.7057
  194DOPC    C323970   1.914   4.379   4.045  0.1127  0.2316 -0.2781
  194DOPC    HX23971   1.964   4.281   4.031 -0.5254  0.0547 -1.4351
  194DOPC    HY23972   1.807   4.353   4.029 -0.0863 -0.2389  1.6632
  194DOPC   O3123973   1.941   4.428   4.175 -0.1961  0.4087 -0.0084
  194DOPC   C3123974   1.840   4.456   4.257  0.0462  0.1227 -0.3387
  194DOPC   O3223975   1.724   4.458   4.222  0.1874 -0.1610  0.2746
  194DOPC   C3223976   1.886   4.490   4.392  0.3876  0.3464  0.6652
  194DOPC   H2X23977   1.995   4.467   4.398  0.8707  2.4845  1.0682
  194DOPC   H2Y23978   1.872   4.600   4.404 -1.5137 -0.0718  2.8811
  194DOPC   C2323979   2.327   4.331   4.084 -0.1468 -0.4497 -0.3001
  194DOPC   H3R23980   2.436   4.308   4.082 -0.0447 -0.0973  0.7011
  194DOPC   H3S23981   2.260   4.261   4.031 -1.7602  0.1850  0.8385
  194DOPC   C2423982   2.302   4.355   4.235  0.0240  0.2861  0.0035
  194DOPC   H4R23983   2.192   4.357   4.245 -0.4943 -0.8288 -3.7812
  194DOPC   H4S23984   2.360   4.443   4.269  1.1084  0.0197 -1.0717
  194DOPC   C2523985   2.346   4.234   4.320  0.3608  0.1978  0.0268
  194DOPC   H5R23986   2.457   4.236   4.330  0.4814 -1.9181 -0.4006
  194DOPC   H5S23987   2.313   4.138   4.274 -0.8325  1.1139 -1.0871
  194DOPC   C2623988   2.276   4.218   4.452 -0.1681 -0.4458  0.2244
  194DOPC   H6R23989   2.167   4.206   4.438 -0.2731 -0.4321  0.9981
  194DOPC   H6S23990   2.283   4.315   4.506  0.3453 -1.0328  1.2516
  194DOPC   C2723991   2.322   4.109   4.547  0.3852 -0.5361  0.3082
  194DOPC   H7R23992   2.432   4.119   4.551  0.2982  0.3200  0.8282
  194DOPC   H7S23993   2.304   4.012   4.495 -1.8757  0.5726 -1.0990
  194DOPC   C2823994   2.264   4.123   4.688  0.1144 -0.3147 -0.4280
  194DOPC   H8R23995   2.285   4.031   4.745 -1.1812 -0.4648 -0.1670
  194DOPC   H8S23996   2.153   4.126   4.679  0.2033 -1.2634 -2.5236
  194DOPC   C2923997   2.317   4.244   4.766  0.6770 -0.2570 -0.3925
  194DOPC   H9R23998   2.246   4.328   4.752 -1.3797 -2.1936 -2.5087
  194DOPC  C21023999   2.408   4.250   4.864  0.6488 -0.6355 -0.4546
  194DOPC  H10R24000   2.427   4.346   4.914  1.7618 -0.2647 -1.5467
  194DOPC  C21124001   2.489   4.135   4.920 -0.4718 -0.5295 -0.0192
  194DOPC  H11R24002   2.598   4.150   4.903  0.0229 -0.5288  2.7233
  194DOPC  H11S24003   2.462   4.039   4.871 -0.3975 -0.3780 -0.3556
  194DOPC  C21224004   2.473   4.109   5.065 -0.8815  0.1891  0.5880
  194DOPC  H12R24005   2.498   4.203   5.118 -1.2907  0.6805 -0.0869
  194DOPC  H12S24006   2.559   4.043   5.090  0.6657  1.4878 -1.1068
  194DOPC  C21324007   2.337   4.054   5.101  0.0765 -0.1185 -0.1925
  194DOPC  H13R24008   2.314   3.947   5.079 -0.0180 -0.0564 -0.3995
  194DOPC  H13S24009   2.263   4.111   5.042  0.9228  0.5797 -0.6106
  194DOPC  C21424010   2.304   4.074   5.250 -0.8935  0.0477  0.5026
  194DOPC  H14R24011   2.205   4.028   5.272 -0.4291 -0.6831  1.1072
  194DOPC  H14S24012   2.291   4.184   5.265  1.7174  0.3424  1.1778
  194DOPC  C21524013   2.396   4.016   5.355 -0.2217 -0.1044 -0.7451
  194DOPC  H15R24014   2.495   4.066   5.346 -0.6472  1.4542  2.1205
  194DOPC  H15S24015   2.399   3.906   5.335  2.6374 -0.1778 -0.4436
  194DOPC  C21624016   2.354   4.036   5.504  0.3062 -0.0056 -0.3675
  194DOPC  H16R24017   2.273   3.964   5.527  0.2188 -0.6431 -2.5320
  194DOPC  H16S24018   2.306   4.136   5.511 -1.2103 -0.4991 -2.7421
  194DOPC  C21724019   2.466   4.026   5.611 -0.1251  0.5292 -0.3297
  194DOPC  H17R24020   2.528   4.118   5.605 -0.5574  1.1529  2.8684
  194DOPC  H17S24021   2.538   3.946   5.582 -1.9170 -1.6429  0.8680
  194DOPC  C21824022   2.411   3.991   5.752  0.0110  0.1286  0.4682
  194DOPC  H18R24023   2.408   3.880   5.759 -0.3655  0.1594  0.9068
  194DOPC  H18S24024   2.304   4.020   5.758 -0.5546 -1.6698 -0.4146
  194DOPC  H18T24025   2.484   4.027   5.829  1.2140  0.2450 -0.6934
  194DOPC   C3324026   1.809   4.416   4.500  0.2819 -0.0085 -0.0259
  194DOPC   H3X24027   1.789   4.309   4.480  0.2823  0.0823 -0.5288
  194DOPC   H3Y24028   1.709   4.461   4.518 -0.8912 -1.9649 -1.2998
  194DOPC   C3424029   1.901   4.413   4.623  0.4080 -0.0012 -0.0233
  194DOPC   H4X24030   1.921   4.520   4.642 -2.0310  0.4619  0.2681
  194DOPC   H4Y24031   1.993   4.364   4.582  0.0477 -0.1857 -0.6265
  194DOPC   C3524032   1.850   4.337   4.749 -0.2367  0.1751  0.4884
  194DOPC   H5X24033   1.811   4.239   4.714 -0.6364  0.2797  0.6402
  194DOPC   H5Y24034   1.756   4.380   4.788  0.5675  1.9942  0.5357
  194DOPC   C3624035   1.950   4.321   4.865  0.0107 -0.6028  0.0825
  194DOPC   H6X24036   2.029   4.252   4.830  0.4092 -1.3545  2.2780
  194DOPC   H6Y24037   1.994   4.419   4.894 -0.7569 -0.1651 -0.1859
  194DOPC   C3724038   1.890   4.267   4.989  0.4959  0.0829 -0.3872
  194DOPC   H7X24039   1.817   4.339   5.033  0.5692 -0.8465  1.3537
  194DOPC   H7Y24040   1.834   4.174   4.967 -2.3530  1.6061 -0.1276
  194DOPC   C3824041   1.997   4.239   5.094 -0.4844  0.0643 -0.4723
  194DOPC   H8X24042   2.054   4.334   5.106  0.1951 -0.5286  1.4338
  194DOPC   H8Y24043   2.064   4.165   5.045 -0.6332  0.4046 -1.2011
  194DOPC   C3924044   1.938   4.163   5.215 -0.1173 -0.3694  0.1422
  194DOPC   H9X24045   1.905   4.060   5.193 -0.8964 -0.2355  0.6643
  194DOPC  C31024046   1.918   4.208   5.340  0.6101 -0.0180  0.0447
  194DOPC  H10X24047   1.865   4.143   5.410 -1.8951 -0.0512 -1.7413
  194DOPC  C31124048   1.954   4.345   5.395 -0.6133 -0.1302 -0.8038
  194DOPC  H11X24049   1.871   4.406   5.436  0.7341  0.6865  0.8091
  194DOPC  H11Y24050   1.998   4.404   5.312 -0.5636  1.5051  0.3322
  194DOPC  C31224051   2.057   4.334   5.508 -0.0815  0.2868  0.1932
  194DOPC  H12X24052   2.114   4.429   5.501 -2.3993  1.8161  1.2113
  194DOPC  H12Y24053   2.133   4.256   5.483 -0.1517  0.1309  0.4593
  194DOPC  C31324054   1.998   4.299   5.644  0.0037 -0.5046 -0.8530
  194DOPC  H13X24055   1.922   4.377   5.664 -0.4266 -0.5510 -2.2008
  194DOPC  H13Y24056   1.949   4.199   5.645  2.7696 -2.0206  1.6081
  194DOPC  C31424057   2.098   4.310   5.755  0.0144  0.1039 -0.6074
  194DOPC  H14X24058   2.186   4.249   5.730  2.1738  1.9057  2.0027
  194DOPC  H14Y24059   2.126   4.416   5.772 -2.0272  0.4535  1.1742
  194DOPC  C31524060   2.046   4.260   5.889  0.7331  0.0828  0.1707
  194DOPC  H15X24061   2.021   4.154   5.865 -0.3649  0.5926 -1.0679
  194DOPC  H15Y24062   1.956   4.322   5.910 -0.0233  0.1760 -2.8812
  194DOPC  C31624063   2.146   4.270   6.000 -0.5517  0.0715 -0.1448
  194DOPC  H16X24064   2.228   4.198   5.985  1.0316  1.4884  1.2793
  194DOPC  H16Y24065   2.189   4.372   5.995 -1.7228  0.6602  1.0015
  194DOPC  C31724066   2.082   4.257   6.134  0.0824  0.4565 -0.6625
  194DOPC  H17X24067   2.006   4.335   6.157 -0.1244 -0.7670  3.4154
  194DOPC  H17Y24068   2.023   4.163   6.134  0.9358 -0.0817  0.1016
  194DOPC  C31824069   2.176   4.254   6.250  0.3689 -0.4274  0.5224
  194DOPC  H18X24070   2.131   4.233   6.349  0.7815 -0.3857  0.7231
  194DOPC  H18Y24071   2.258   4.184   6.221  1.8299  2.1979 -2.1916
  194DOPC  H18Z24072   2.219   4.356   6.249  0.5950 -0.4633 -2.5524
  195DOPC     N24073   3.344   2.197   3.724  0.1466 -0.0602 -0.0682
  195DOPC   C1224074   3.424   2.173   3.601  0.1548  0.4802  0.1364
  195DOPC  H12A24075   3.493   2.254   3.579  1.0292 -0.2626  0.0666
  195DOPC  H12B24076   3.358   2.176   3.515 -0.4292 -0.8460  0.5149
  195DOPC   C1324077   3.277   2.333   3.705  0.2914  0.1428  0.0665
  195DOPC  H13A24078   3.344   2.418   3.706 -1.3479  1.5315 -1.2450
  195DOPC  H13B24079   3.208   2.342   3.622 -0.1729  0.6300  0.4962
  195DOPC  H13C24080   3.208   2.351   3.786 -1.2340 -1.7241 -0.7366
  195DOPC   C1424081   3.426   2.209   3.842  0.0385 -0.5739  0.5745
  195DOPC  H14A24082   3.495   2.291   3.831 -0.1903 -0.4790 -0.1690
  195DOPC  H14B24083   3.369   2.229   3.932  0.0767 -0.0153  0.4742
  195DOPC  H14C24084   3.491   2.123   3.855 -0.0755 -0.5097  1.6746
  195DOPC   C1524085   3.240   2.091   3.754  0.1820  0.1196 -0.3576
  195DOPC  H15A24086   3.167   2.097   3.675 -0.7211  2.5553  0.5735
  195DOPC  H15B24087   3.199   2.108   3.853 -1.4806  2.2827 -1.3380
  195DOPC  H15C24088   3.294   1.998   3.749  1.6039  0.9141 -0.2360
  195DOPC   C1124089   3.496   2.036   3.574 -0.2673 -0.7336 -0.1446
  195DOPC  H11A24090   3.515   2.018   3.466 -0.3034 -2.9385  0.1687
  195DOPC  H11B24091   3.598   2.065   3.609 -0.6970  0.8054 -0.1444
  195DOPC     P24092   3.545   1.821   3.720  0.1675  0.0449 -0.7251
  195DOPC   O1324093   3.672   1.807   3.646 -0.1932 -0.2908 -0.1210
  195DOPC   O1424094   3.468   1.700   3.751  0.3972  0.0126  0.3207
  195DOPC   O1224095   3.447   1.920   3.647 -0.1997  0.4241 -0.0261
  195DOPC   O1124096   3.571   1.902   3.849 -0.0933 -0.5902 -0.4441
  195DOPC    C124097   3.499   1.888   3.972 -0.2321  0.1455  0.2856
  195DOPC    HA24098   3.467   1.782   3.983  1.0786 -0.0859  2.7030
  195DOPC    HB24099   3.422   1.965   3.992 -0.1153  0.3770 -0.1346
  195DOPC    C224100   3.600   1.902   4.096 -0.5528  0.4243 -0.8811
  195DOPC    HS24101   3.690   1.840   4.073 -1.0793 -0.2295 -1.2274
  195DOPC   O2124102   3.537   1.847   4.214  0.4635  0.0763  0.5948
  195DOPC   C2124103   3.527   1.714   4.228  0.2333  0.1741 -0.6641
  195DOPC   O2224104   3.589   1.637   4.159  0.0558 -0.1557 -0.3974
  195DOPC   C2224105   3.440   1.682   4.343  0.2549  0.2574  0.9861
  195DOPC   H2R24106   3.334   1.695   4.311  0.1367  1.1138  1.7036
  195DOPC   H2S24107   3.466   1.740   4.434 -0.9323  1.1731  0.7731
  195DOPC    C324108   3.643   2.043   4.130 -0.4287 -0.5614  0.6119
  195DOPC    HX24109   3.555   2.112   4.136 -1.0932 -1.1060 -1.8988
  195DOPC    HY24110   3.703   2.086   4.047 -0.7704 -0.9402  0.1721
  195DOPC   O3124111   3.722   2.044   4.249 -0.2192 -0.5819 -0.0074
  195DOPC   C3124112   3.824   2.131   4.249  0.1379  0.7105 -0.3447
  195DOPC   O3224113   3.854   2.205   4.160  0.1475  0.1124 -0.0443
  195DOPC   C3224114   3.898   2.118   4.381  0.2642  0.3632 -0.2373
  195DOPC   H2X24115   3.824   2.085   4.457 -1.4580  1.5563 -1.3284
  195DOPC   H2Y24116   3.984   2.048   4.367 -0.1468  0.2887 -3.0558
  195DOPC   C2324117   3.468   1.528   4.374  0.3039 -0.4374  0.2826
  195DOPC   H3R24118   3.573   1.491   4.384  0.0603 -0.6431  2.4748
  195DOPC   H3S24119   3.440   1.472   4.282  2.8170  0.6715 -1.2879
  195DOPC   C2424120   3.381   1.482   4.491 -0.0008 -0.8826 -0.0695
  195DOPC   H4R24121   3.347   1.377   4.475 -1.9376 -0.0553 -1.7572
  195DOPC   H4S24122   3.292   1.548   4.488  1.4771  1.4739  2.6532
  195DOPC   C2524123   3.456   1.509   4.625  0.4520  0.0721  0.6653
  195DOPC   H5R24124   3.487   1.616   4.626 -1.5092  0.6636  0.9362
  195DOPC   H5S24125   3.557   1.461   4.619  1.4239  2.0932 -0.0700
  195DOPC   C2624126   3.379   1.472   4.753  0.6215  0.1128 -0.1866
  195DOPC   H6R24127   3.321   1.378   4.740 -1.3640  0.9543  1.9566
  195DOPC   H6S24128   3.303   1.549   4.779 -1.3136 -1.9656  0.6832
  195DOPC   C2724129   3.482   1.453   4.863  0.0682  0.6017 -0.8469
  195DOPC   H7R24130   3.546   1.370   4.828  1.5730  1.2012  0.3819
  195DOPC   H7S24131   3.437   1.427   4.961  0.7345  3.0686  0.1956
  195DOPC   C2824132   3.562   1.582   4.894  0.4189  0.0936  0.2102
  195DOPC   H8R24133   3.588   1.636   4.800  1.4638 -0.7814 -0.0304
  195DOPC   H8S24134   3.663   1.548   4.925 -0.4696 -3.3990 -0.2634
  195DOPC   C2924135   3.508   1.669   5.002 -0.2189 -0.0173  0.3364
  195DOPC   H9R24136   3.438   1.747   4.969 -0.0691  0.5152  1.2317
  195DOPC  C21024137   3.532   1.663   5.133 -0.2186 -0.4031  0.1801
  195DOPC  H10R24138   3.497   1.748   5.195  0.7264  1.8418 -2.1776
  195DOPC  C21124139   3.609   1.567   5.212  0.7178  0.1456  0.2579
  195DOPC  H11R24140   3.702   1.624   5.235  0.2326  1.9725 -1.8731
  195DOPC  H11S24141   3.627   1.471   5.158 -0.6593  0.5790 -1.0530
  195DOPC  C21224142   3.546   1.521   5.340 -0.6531 -0.5744  0.6965
  195DOPC  H12R24143   3.607   1.438   5.381 -0.2841 -0.6938 -0.0797
  195DOPC  H12S24144   3.444   1.486   5.311 -0.7477  1.9364 -2.7715
  195DOPC  C21324145   3.547   1.629   5.450  0.5275  0.2519 -0.0968
  195DOPC  H13R24146   3.498   1.721   5.411 -3.2004 -2.2430 -1.8798
  195DOPC  H13S24147   3.652   1.647   5.482 -0.2293  0.6154  2.4523
  195DOPC  C21424148   3.482   1.573   5.580  0.3090  0.6594  0.0732
  195DOPC  H14R24149   3.509   1.466   5.586 -2.6116 -0.2268 -0.8713
  195DOPC  H14S24150   3.371   1.579   5.575  0.0696  0.7222  3.3015
  195DOPC  C21524151   3.523   1.648   5.707 -0.2198  0.5836  0.4942
  195DOPC  H15R24152   3.480   1.750   5.698 -1.5405 -0.0646 -1.2121
  195DOPC  H15S24153   3.634   1.654   5.709 -0.1066  0.5720 -1.9253
  195DOPC  C21624154   3.447   1.582   5.825  0.2623 -0.0558 -0.8657
  195DOPC  H16R24155   3.465   1.472   5.833 -1.0952 -0.4012 -2.2184
  195DOPC  H16S24156   3.337   1.586   5.814 -0.0954 -0.8212  1.7241
  195DOPC  C21724157   3.486   1.643   5.958  0.1431  0.7191  0.4929
  195DOPC  H17R24158   3.472   1.753   5.969  1.4919  1.1433 -1.4394
  195DOPC  H17S24159   3.596   1.633   5.966  0.2138  1.0348 -0.0091
  195DOPC  C21824160   3.428   1.583   6.089  0.3338 -0.5223  0.1459
  195DOPC  H18R24161   3.486   1.491   6.106  4.4214  1.4554 -1.6445
  195DOPC  H18S24162   3.318   1.564   6.090 -0.0751  1.4893 -0.4187
  195DOPC  H18T24163   3.455   1.647   6.175 -0.3061 -0.2100  0.1262
  195DOPC   C3324164   3.946   2.258   4.426 -0.3826 -0.3452  0.0724
  195DOPC   H3X24165   3.864   2.330   4.446  0.8952  0.9384  0.8078
  195DOPC   H3Y24166   4.013   2.305   4.351  0.1930 -0.0192  0.7799
  195DOPC   C3424167   4.018   2.255   4.561 -0.1126  0.0491 -0.9542
  195DOPC   H4X24168   4.052   2.357   4.589  0.2077 -0.1100 -0.7592
  195DOPC   H4Y24169   4.110   2.194   4.555  0.3843  0.9136 -2.5555
  195DOPC   C3524170   3.928   2.202   4.673 -0.0896 -1.0190 -0.8008
  195DOPC   H5X24171   3.915   2.092   4.668  0.0183 -1.0038 -1.6176
  195DOPC   H5Y24172   3.823   2.237   4.657 -0.9324 -2.8871  0.2711
  195DOPC   C3624173   3.978   2.245   4.808 -0.2183 -0.4931 -0.4261
  195DOPC   H6X24174   4.038   2.339   4.806 -0.8479 -0.0881 -0.6886
  195DOPC   H6Y24175   3.901   2.283   4.878  1.8958  0.6832  1.3936
  195DOPC   C3724176   4.050   2.143   4.894 -0.2059  0.5686  0.4978
  195DOPC   H7X24177   3.978   2.061   4.912  0.7072 -0.3120  0.2116
  195DOPC   H7Y24178   4.133   2.097   4.837 -0.7943  0.6592 -0.4389
  195DOPC   C3824179   4.102   2.210   5.024  0.4735  0.4884  0.0082
  195DOPC   H8X24180   4.011   2.230   5.085 -2.2043 -0.2643 -3.4588
  195DOPC   H8Y24181   4.155   2.307   5.008  0.7126  0.1520 -1.3544
  195DOPC   C3924182   4.209   2.119   5.086  0.4177 -0.1777  1.1258
  195DOPC   H9X24183   4.292   2.090   5.020 -0.8444  0.4963 -0.8260
  195DOPC  C31024184   4.225   2.095   5.218  0.2684  0.0983  0.8693
  195DOPC  H10X24185   4.289   2.010   5.243 -0.4342 -0.2256  1.6063
  195DOPC  C31124186   4.124   2.120   5.331  0.2358  0.1003 -0.4147
  195DOPC  H11X24187   4.117   2.038   5.406  0.4758  1.5520  1.2666
  195DOPC  H11Y24188   4.024   2.138   5.287  1.0112  0.5834 -2.0630
  195DOPC  C31224189   4.160   2.243   5.425 -0.1206 -0.1309  0.4110
  195DOPC  H12X24190   4.067   2.265   5.482  0.5529  0.0095  1.4672
  195DOPC  H12Y24191   4.191   2.328   5.359  2.0669 -0.1204  1.3785
  195DOPC  C31324192   4.292   2.212   5.502  0.5130 -0.0610  0.0142
  195DOPC  H13X24193   4.300   2.102   5.512 -1.0459 -0.2505 -0.4981
  195DOPC  H13Y24194   4.386   2.243   5.453  1.7465 -0.6063  1.9327
  195DOPC  C31424195   4.304   2.273   5.645  0.1228 -0.3789 -0.3473
  195DOPC  H14X24196   4.345   2.375   5.635  0.6641 -0.6448 -0.9448
  195DOPC  H14Y24197   4.198   2.284   5.678  0.1832  0.2176 -0.3469
  195DOPC  C31524198   4.397   2.194   5.741  0.3793 -0.2611  0.2212
  195DOPC  H15X24199   4.450   2.267   5.805  1.1985 -0.5056 -0.1519
  195DOPC  H15Y24200   4.485   2.160   5.681  2.0758  4.0724 -0.1310
  195DOPC  C31624201   4.323   2.096   5.832  1.1071 -0.4399  0.5360
  195DOPC  H16X24202   4.221   2.126   5.865  1.0813 -1.1436  1.1342
  195DOPC  H16Y24203   4.289   2.013   5.765 -1.9145  0.4402  0.8175
  195DOPC  C31724204   4.399   2.039   5.952 -0.2695 -0.2422  0.0299
  195DOPC  H17X24205   4.358   1.942   5.987 -0.1739 -0.9949 -1.8622
  195DOPC  H17Y24206   4.499   2.009   5.915  1.8021  2.4005  2.9339
  195DOPC  C31824207   4.412   2.145   6.060 -0.1213 -0.1175  0.0190
  195DOPC  H18X24208   4.465   2.099   6.146 -2.8257 -4.2291 -0.1738
  195DOPC  H18Y24209   4.471   2.233   6.028 -3.3819  2.9686  1.8095
  195DOPC  H18Z24210   4.315   2.180   6.101  0.4692  1.1450  0.3848
  196DOPC     N24211   6.306   5.491   4.003 -0.0359  0.5402  0.5441
  196DOPC   C1224212   6.441   5.427   4.036  0.3113 -0.1043  0.5134
  196DOPC  H12A24213   6.516   5.501   4.013 -0.3726  0.8433  1.2721
  196DOPC  H12B24214   6.458   5.357   3.955 -0.6454  1.7606 -1.4070
  196DOPC   C1324215   6.197   5.393   3.972  0.9425 -0.3509 -0.1317
  196DOPC  H13A24216   6.105   5.439   3.937  1.1623  0.3673  0.2136
  196DOPC  H13B24217   6.232   5.338   3.886 -0.0196 -0.4269 -0.4909
  196DOPC  H13C24218   6.176   5.324   4.052  0.5829  0.0316  0.1084
  196DOPC   C1424219   6.311   5.587   3.888  0.5049  0.2329  0.0381
  196DOPC  H14A24220   6.376   5.669   3.914 -1.3197  1.7856 -0.0551
  196DOPC  H14B24221   6.349   5.531   3.804  0.0184 -0.7541  0.4664
  196DOPC  H14C24222   6.219   5.638   3.863  1.9350  2.0236 -1.9922
  196DOPC   C1524223   6.257   5.577   4.117 -0.0032 -0.2589  0.1633
  196DOPC  H15A24224   6.305   5.673   4.127  0.5895 -0.3893 -1.1933
  196DOPC  H15B24225   6.255   5.527   4.212  2.0475  1.1208  1.0010
  196DOPC  H15C24226   6.153   5.603   4.097 -0.1910 -1.8476 -1.1046
  196DOPC   C1124227   6.466   5.373   4.179  0.4524  0.5574 -1.1899
  196DOPC  H11A24228   6.452   5.461   4.244  0.7157  0.8661 -1.5464
  196DOPC  H11B24229   6.394   5.300   4.222  1.6135  0.4792  0.7253
  196DOPC     P24230   6.629   5.181   4.161  0.4170  0.4024  0.2996
  196DOPC   O1324231   6.769   5.174   4.114 -0.0681 -0.2736 -0.6582
  196DOPC   O1424232   6.518   5.132   4.071 -0.3422  0.3955  0.0187
  196DOPC   O1224233   6.605   5.326   4.193 -0.1149 -0.6337 -0.3147
  196DOPC   O1124234   6.622   5.116   4.300 -0.3599 -0.0617 -0.8396
  196DOPC    C124235   6.674   4.984   4.328  0.6076 -0.2350 -0.3767
  196DOPC    HA24236   6.705   4.925   4.239  0.8821  0.3629 -0.6853
  196DOPC    HB24237   6.581   4.943   4.371 -1.5140  2.0773 -2.4146
  196DOPC    C224238   6.779   4.997   4.442  0.6905 -0.4672 -0.2314
  196DOPC    HS24239   6.821   4.896   4.462  0.3770 -0.6985 -0.7229
  196DOPC   O2124240   6.704   5.049   4.556 -0.4328  0.1419  0.2660
  196DOPC   C2124241   6.755   5.013   4.672  0.3934 -0.7888 -0.3011
  196DOPC   O2224242   6.855   4.951   4.695 -0.6772 -0.3870  0.0744
  196DOPC   C2224243   6.668   5.072   4.783  0.1776 -0.2344  0.2753
  196DOPC   H2R24244   6.567   5.085   4.738  0.7871 -1.4099 -1.5090
  196DOPC   H2S24245   6.703   5.175   4.806  0.5174 -0.0865 -0.8840
  196DOPC    C324246   6.904   5.078   4.402 -0.7307  0.5331  0.7415
  196DOPC    HX24247   6.864   5.180   4.384 -2.0064 -0.4274 -2.5396
  196DOPC    HY24248   6.943   5.046   4.304 -3.0225  2.9090 -1.0878
  196DOPC   O3124249   7.023   5.072   4.496  0.0022 -0.2971  0.2951
  196DOPC   C3124250   7.044   5.178   4.569  0.4131 -0.0238  1.1784
  196DOPC   O3224251   6.971   5.275   4.577  0.2040 -0.1923 -0.5492
  196DOPC   C3224252   7.173   5.171   4.642 -0.4888  0.2759 -0.0799
  196DOPC   H2X24253   7.175   5.072   4.691  1.7000  0.1065 -0.4167
  196DOPC   H2Y24254   7.261   5.182   4.574  0.2938 -0.5554  0.7725
  196DOPC   C2324255   6.664   4.988   4.904 -0.3481  0.3939 -0.3096
  196DOPC   H3R24256   6.665   4.881   4.874  0.4904  0.2875  0.0518
  196DOPC   H3S24257   6.568   5.006   4.956 -0.6425  1.7115 -1.2457
  196DOPC   C2424258   6.778   5.011   5.010 -0.4999 -0.7910 -0.4995
  196DOPC   H4R24259   6.788   5.116   5.043  1.0746 -1.5493  1.6665
  196DOPC   H4S24260   6.879   4.992   4.967 -0.3528  0.4909 -0.7472
  196DOPC   C2524261   6.753   4.934   5.135 -0.4602  0.2677  0.0365
  196DOPC   H5R24262   6.849   4.891   5.168 -1.4085 -1.8391  0.2322
  196DOPC   H5S24263   6.699   4.843   5.100  0.1442 -0.0764 -0.0027
  196DOPC   C2624264   6.681   5.006   5.248 -0.7679  0.3868 -0.5604
  196DOPC   H6R24265   6.578   5.032   5.216 -0.6409  1.6627 -0.0244
  196DOPC   H6S24266   6.730   5.102   5.275 -0.8091  1.2676 -3.3156
  196DOPC   C2724267   6.671   4.910   5.369 -0.7704 -0.2546  0.7232
  196DOPC   H7R24268   6.777   4.883   5.390  0.1436  2.7038  0.3301
  196DOPC   H7S24269   6.623   4.817   5.333  1.9113 -1.1330 -0.8762
  196DOPC   C2824270   6.627   4.984   5.495  0.0716  0.0431  0.5513
  196DOPC   H8R24271   6.556   4.916   5.548 -1.3959  0.5472 -0.6781
  196DOPC   H8S24272   6.564   5.069   5.459  4.0576  2.9778 -0.1641
  196DOPC   C2924273   6.734   5.043   5.592  0.0325 -0.5754  0.2207
  196DOPC   H9R24274   6.814   5.107   5.553 -0.0688 -0.9532 -0.6136
  196DOPC  C21024275   6.734   5.020   5.723  0.4018  0.0284 -0.5398
  196DOPC  H10R24276   6.811   5.067   5.786  0.8589 -2.1853  0.6781
  196DOPC  C21124277   6.618   4.948   5.791  0.1410 -0.2855  0.0073
  196DOPC  H11R24278   6.628   4.839   5.769  0.9278 -0.4042  0.8805
  196DOPC  H11S24279   6.519   4.974   5.746 -0.2621 -0.3757  0.8319
  196DOPC  C21224280   6.613   4.983   5.942  0.3640  1.2921 -0.2522
  196DOPC  H12R24281   6.588   5.090   5.955  2.2808  1.6000  1.4021
  196DOPC  H12S24282   6.718   4.969   5.978  0.7640 -2.3789 -2.2553
  196DOPC  C21324283   6.515   4.898   6.031  0.3038  0.6368  0.1910
  196DOPC  H13R24284   6.572   4.814   6.076 -1.2681 -1.0874 -0.8929
  196DOPC  H13S24285   6.459   4.829   5.964  2.7736 -0.8330 -0.4761
  196DOPC  C21424286   6.425   4.976   6.124 -0.2937 -0.2417 -0.0094
  196DOPC  H14R24287   6.359   5.040   6.063 -1.2400 -0.6611  0.5591
  196DOPC  H14S24288   6.492   5.042   6.184 -1.3568 -0.0904  1.0463
  196DOPC  C21524289   6.346   4.886   6.218  0.1451  0.9612  0.3593
  196DOPC  H15R24290   6.412   4.822   6.281 -2.3239 -2.2361 -0.0142
  196DOPC  H15S24291   6.287   4.816   6.155 -0.5154  0.9922  0.9313
  196DOPC  C21624292   6.259   4.957   6.313 -0.1578  0.3299  0.2775
  196DOPC  H16R24293   6.161   4.975   6.265 -1.8306 -2.2958  2.4211
  196DOPC  H16S24294   6.301   5.057   6.339  0.2432  0.6776 -1.5421
  196DOPC  C21724295   6.230   4.869   6.435 -0.2833 -0.0892  0.6132
  196DOPC  H17R24296   6.179   4.935   6.508 -1.1468  1.7409 -1.5062
  196DOPC  H17S24297   6.328   4.841   6.478  0.2065  0.7484  0.0646
  196DOPC  C21824298   6.139   4.751   6.404  0.3325 -0.1490 -0.1662
  196DOPC  H18R24299   6.036   4.775   6.371  0.3685 -1.6533 -1.4792
  196DOPC  H18S24300   6.133   4.697   6.501 -1.7543  0.3186  0.0225
  196DOPC  H18T24301   6.192   4.688   6.329 -0.8825 -0.8668 -0.4581
  196DOPC   C3324302   7.197   5.278   4.754 -0.3495  0.2127 -0.3632
  196DOPC   H3X24303   7.181   5.376   4.704  0.8472  1.0750  0.8760
  196DOPC   H3Y24304   7.304   5.274   4.785 -0.4609 -0.3872 -0.0518
  196DOPC   C3424305   7.104   5.281   4.880 -0.3547  1.0758  0.2668
  196DOPC   H4X24306   7.011   5.233   4.843 -1.1002  0.8321  2.3417
  196DOPC   H4Y24307   7.092   5.389   4.906  1.4603  1.6547 -1.0961
  196DOPC   C3524308   7.164   5.191   4.991 -0.8103 -0.1126  0.7862
  196DOPC   H5X24309   7.272   5.206   5.009 -0.4277 -0.3936 -1.0743
  196DOPC   H5Y24310   7.152   5.088   4.950  0.7068  0.5983 -1.6119
  196DOPC   C3624311   7.094   5.204   5.119 -0.5939  0.6668  0.4121
  196DOPC   H6X24312   7.105   5.310   5.150  1.5304  0.7146 -0.3787
  196DOPC   H6Y24313   6.986   5.189   5.095 -0.5381  1.2461 -0.2246
  196DOPC   C3724314   7.156   5.118   5.228  0.3473 -0.2735 -0.3210
  196DOPC   H7X24315   7.160   5.015   5.187 -0.0630 -0.8349  0.9837
  196DOPC   H7Y24316   7.260   5.140   5.258  0.0657 -0.2770  0.7283
  196DOPC   C3824317   7.060   5.102   5.356  0.0881  0.2530  0.1296
  196DOPC   H8X24318   7.101   5.014   5.409 -1.0202 -0.3392  0.0390
  196DOPC   H8Y24319   6.958   5.079   5.318 -0.7655  1.2758  1.6729
  196DOPC   C3924320   7.072   5.231   5.443  0.0497  0.1896  0.2537
  196DOPC   H9X24321   7.060   5.323   5.384 -2.4235 -0.1196  0.1797
  196DOPC  C31024322   7.104   5.237   5.573  0.3154  0.2421 -0.3155
  196DOPC  H10X24323   7.111   5.339   5.616  0.6220  0.1897 -0.2399
  196DOPC  C31124324   7.147   5.129   5.664  0.3845  0.2167  0.3016
  196DOPC  H11X24325   7.248   5.092   5.635  2.1382  4.1701  0.7406
  196DOPC  H11Y24326   7.072   5.047   5.674  0.2844  0.1751 -0.7078
  196DOPC  C31224327   7.131   5.186   5.807  0.2402  0.0874  0.0527
  196DOPC  H12X24328   7.032   5.234   5.822  1.0647  2.2441 -1.0071
  196DOPC  H12Y24329   7.218   5.253   5.821  0.8955 -0.6671 -0.3052
  196DOPC  C31324330   7.126   5.085   5.922 -1.2479  0.0134 -0.0945
  196DOPC  H13X24331   7.085   4.989   5.886 -1.5700  0.5428 -1.1642
  196DOPC  H13Y24332   7.229   5.066   5.959 -2.0154 -0.3862  1.9820
  196DOPC  C31424333   7.039   5.115   6.046  0.0607  0.2584  0.2852
  196DOPC  H14X24334   6.936   5.115   6.003  0.3919  2.8762 -0.6802
  196DOPC  H14Y24335   7.066   5.034   6.117  3.7301  1.1066  0.0383
  196DOPC  C31524336   7.065   5.250   6.114 -0.2154 -0.9282 -0.6202
  196DOPC  H15X24337   7.058   5.330   6.037  1.3676 -0.9271 -0.8001
  196DOPC  H15Y24338   7.172   5.258   6.142 -0.3216  1.8769 -0.7679
  196DOPC  C31624339   6.997   5.267   6.253 -0.0105  0.3155  0.3834
  196DOPC  H16X24340   6.886   5.277   6.249 -0.1010  0.6305  2.7780
  196DOPC  H16Y24341   7.022   5.185   6.323 -0.0318 -0.6053 -0.6653
  196DOPC  C31724342   7.035   5.403   6.317  0.2111  0.5580 -0.1611
  196DOPC  H17X24343   7.145   5.414   6.327  0.6680 -1.8994 -1.6359
  196DOPC  H17Y24344   7.007   5.487   6.250 -1.9405 -1.4606 -1.9689
  196DOPC  C31824345   6.972   5.415   6.457 -0.1665 -0.0041  0.0068
  196DOPC  H18X24346   7.007   5.516   6.486  1.2831  1.0066 -4.4208
  196DOPC  H18Y24347   6.862   5.403   6.450 -0.3295  0.9436  0.7823
  196DOPC  H18Z24348   7.012   5.334   6.522  0.5974  0.5569  0.2559
  197DOPC     N24349   2.889   2.898   3.077 -0.2589 -0.3570 -0.0503
  197DOPC   C1224350   2.914   2.988   3.197 -0.3993  0.0987  0.0415
  197DOPC  H12A24351   2.908   3.092   3.166 -1.6433 -0.0949 -0.4375
  197DOPC  H12B24352   3.020   2.980   3.216  0.1017  0.8038 -2.1281
  197DOPC   C1324353   2.941   2.761   3.119 -1.2770  0.1495  0.2157
  197DOPC  H13A24354   2.906   2.736   3.218  3.7918 -1.9754  1.8130
  197DOPC  H13B24355   2.921   2.688   3.042  1.7856 -0.2849 -0.2928
  197DOPC  H13C24356   3.049   2.755   3.124 -1.1798  1.7484  0.8815
  197DOPC   C1424357   2.968   2.945   2.957  0.7264  0.0144 -0.9356
  197DOPC  H14A24358   2.941   3.044   2.922 -0.8329 -0.4961 -1.2693
  197DOPC  H14B24359   3.074   2.953   2.978  0.0774  2.7173  2.0519
  197DOPC  H14C24360   2.960   2.877   2.873 -1.8420  0.9005 -1.5006
  197DOPC   C1524361   2.736   2.892   3.054  0.9287  0.2156  0.0713
  197DOPC  H15A24362   2.705   2.796   3.015  0.9940 -0.0751  0.7124
  197DOPC  H15B24363   2.709   2.966   2.981  2.3574  1.1453  0.4490
  197DOPC  H15C24364   2.675   2.907   3.142 -1.1655 -0.6058 -1.1823
  197DOPC   C1124365   2.840   2.977   3.336 -0.6622  0.6990 -0.8425
  197DOPC  H11A24366   2.884   3.065   3.387 -1.7670 -0.0212  1.4781
  197DOPC  H11B24367   2.731   2.995   3.330 -1.3979 -2.9349 -0.3209
  197DOPC     P24368   2.989   2.847   3.512  0.0020  0.0740  0.5621
  197DOPC   O1324369   3.082   2.959   3.490 -0.2071 -0.1353  0.2563
  197DOPC   O1424370   3.050   2.709   3.507 -0.1333  0.2452 -0.8525
  197DOPC   O1224371   2.873   2.858   3.400 -0.4088  0.1791 -0.7722
  197DOPC   O1124372   2.918   2.876   3.646  0.1696  0.0913  0.0748
  197DOPC    C124373   2.782   2.851   3.671 -0.3433 -0.4995 -0.6205
  197DOPC    HA24374   2.757   2.755   3.621 -0.8361 -0.4612 -0.4527
  197DOPC    HB24375   2.724   2.937   3.629 -1.8537 -0.1960  1.8626
  197DOPC    C224376   2.749   2.842   3.822  0.0410  0.0455 -0.2095
  197DOPC    HS24377   2.639   2.849   3.830 -0.1390 -2.5053  0.3673
  197DOPC   O2124378   2.806   2.952   3.895  0.0007 -0.4990 -0.1279
  197DOPC   C2124379   2.763   3.072   3.860  0.7587  0.5270 -0.1085
  197DOPC   O2224380   2.671   3.102   3.789  0.1710  0.1060  0.2539
  197DOPC   C2224381   2.842   3.182   3.930  0.2929  0.5463  0.5945
  197DOPC   H2R24382   2.937   3.183   3.871 -0.5740  1.2555 -0.8416
  197DOPC   H2S24383   2.870   3.138   4.028  0.7367 -1.8170 -0.5230
  197DOPC    C324384   2.794   2.711   3.889 -0.1195 -0.2978 -0.4559
  197DOPC    HX24385   2.901   2.687   3.871  0.0492  0.0031  0.1043
  197DOPC    HY24386   2.733   2.629   3.846  1.4912 -0.8219 -1.8380
  197DOPC   O3124387   2.770   2.716   4.038  0.7320  0.2421  0.5302
  197DOPC   C3124388   2.870   2.757   4.116 -0.3303 -0.8580 -0.0644
  197DOPC   O3224389   2.984   2.763   4.072  0.5736 -0.5518 -0.0974
  197DOPC   C3224390   2.817   2.800   4.258  0.0345  0.4996  0.6013
  197DOPC   H2X24391   2.712   2.832   4.243  0.2214  0.6752 -0.4596
  197DOPC   H2Y24392   2.827   2.711   4.323  0.8771 -0.1501 -0.3842
  197DOPC   C2324393   2.783   3.320   3.919 -0.4588 -0.9457 -0.2623
  197DOPC   H3R24394   2.674   3.326   3.944 -0.6044  0.7766 -1.1379
  197DOPC   H3S24395   2.792   3.344   3.811  0.2062 -1.5225 -0.3419
  197DOPC   C2424396   2.854   3.419   4.013  0.1453 -0.3802  0.0665
  197DOPC   H4R24397   2.809   3.521   4.010  1.7355  0.3331 -0.5930
  197DOPC   H4S24398   2.963   3.428   3.992 -0.1497 -0.5483 -1.6530
  197DOPC   C2524399   2.824   3.370   4.162  0.4637  0.0637 -0.1975
  197DOPC   H5R24400   2.835   3.261   4.180 -1.1806 -0.2190 -0.6450
  197DOPC   H5S24401   2.713   3.381   4.171  0.3106 -0.1224 -1.5295
  197DOPC   C2624402   2.907   3.445   4.268  0.8535  0.0508 -0.0486
  197DOPC   H6R24403   2.912   3.553   4.240  0.2194  0.1773  0.3078
  197DOPC   H6S24404   3.009   3.403   4.257  1.0389 -0.1979  2.1277
  197DOPC   C2724405   2.860   3.411   4.412  0.2532 -0.5334  0.0761
  197DOPC   H7R24406   2.867   3.303   4.437  1.9945 -0.9184 -1.7754
  197DOPC   H7S24407   2.751   3.432   4.411 -0.4134 -2.8722  3.3934
  197DOPC   C2824408   2.939   3.506   4.502  0.0660  0.3236 -0.7114
  197DOPC   H8R24409   2.881   3.498   4.597 -0.6978  2.4476 -0.9422
  197DOPC   H8S24410   2.929   3.609   4.462  2.1024  0.3691 -1.2091
  197DOPC   C2924411   3.086   3.475   4.535  0.4109  0.6008 -0.1288
  197DOPC   H9R24412   3.158   3.503   4.457 -2.3763  2.9575 -2.0774
  197DOPC  C21024413   3.130   3.416   4.653 -0.1690  0.4961  0.1749
  197DOPC  H10R24414   3.237   3.391   4.656  0.2851  2.1802 -0.4518
  197DOPC  C21124415   3.047   3.363   4.760 -0.3522  0.5022  0.3783
  197DOPC  H11R24416   3.087   3.262   4.782  1.3626  0.9558 -0.5082
  197DOPC  H11S24417   2.939   3.360   4.734  0.0484  0.7942 -1.4019
  197DOPC  C21224418   3.069   3.444   4.892 -0.7638 -0.4853  0.6359
  197DOPC  H12R24419   3.036   3.549   4.873 -0.8885 -1.0096 -2.5255
  197DOPC  H12S24420   3.180   3.448   4.904 -0.8833  1.2077  1.5093
  197DOPC  C21324421   3.014   3.387   5.019  1.0440 -0.0690  0.6718
  197DOPC  H13R24422   3.030   3.277   5.024  3.6182  0.0616 -1.7611
  197DOPC  H13S24423   2.908   3.410   4.999  1.9178  3.0544 -1.1236
  197DOPC  C21424424   3.075   3.439   5.146 -0.1955  0.2253 -0.0063
  197DOPC  H14R24425   3.073   3.551   5.148 -2.2199  0.2382 -0.7697
  197DOPC  H14S24426   3.181   3.408   5.144  0.2714  1.5234  1.7754
  197DOPC  C21524427   3.003   3.378   5.274  0.1135  0.8939  0.5435
  197DOPC  H15R24428   3.005   3.267   5.270  0.7011  0.9494 -1.4210
  197DOPC  H15S24429   2.895   3.399   5.259  0.1314  0.1596 -0.7554
  197DOPC  C21624430   3.065   3.438   5.397 -0.7750  0.4511 -0.5514
  197DOPC  H16R24431   2.995   3.439   5.484 -1.4430 -1.2308 -1.0476
  197DOPC  H16S24432   3.084   3.543   5.366  3.0205 -0.3671 -1.5176
  197DOPC  C21724433   3.205   3.381   5.447 -0.3588  0.0686  0.4728
  197DOPC  H17R24434   3.248   3.450   5.523  0.7128 -0.2645  0.1742
  197DOPC  H17S24435   3.275   3.378   5.362  1.3943 -1.0754  1.8866
  197DOPC  C21824436   3.205   3.243   5.509  0.5019  0.3262 -0.1215
  197DOPC  H18R24437   3.309   3.211   5.530  1.4318  2.7697 -0.6554
  197DOPC  H18S24438   3.164   3.181   5.426  1.3867 -1.0656  0.4373
  197DOPC  H18T24439   3.143   3.247   5.601  0.5970 -1.1274  0.0408
  197DOPC   C3324440   2.902   2.921   4.314  0.5439 -0.8398  0.1046
  197DOPC   H3X24441   2.881   3.005   4.244  1.9061 -1.8704 -1.6424
  197DOPC   H3Y24442   3.009   2.894   4.308 -0.0229 -3.7339  1.7085
  197DOPC   C3424443   2.870   2.967   4.457  0.3069  0.0496 -0.8662
  197DOPC   H4X24444   2.760   2.971   4.466  0.2081  0.4518 -2.1198
  197DOPC   H4Y24445   2.913   3.069   4.473  0.9351 -0.5134  1.4656
  197DOPC   C3524446   2.921   2.879   4.568 -0.7240 -0.4208 -0.0936
  197DOPC   H5X24447   3.026   2.850   4.544 -0.9637 -0.1308 -1.5888
  197DOPC   H5Y24448   2.852   2.792   4.571 -2.6611  1.0899  1.5022
  197DOPC   C3624449   2.925   2.947   4.703  0.0226 -0.4551 -0.7523
  197DOPC   H6X24450   2.983   3.042   4.708  0.0168 -0.5093  0.8133
  197DOPC   H6Y24451   2.821   2.967   4.737  0.9341  2.2091  0.8355
  197DOPC   C3724452   2.991   2.859   4.813 -0.0367 -0.6366  0.1212
  197DOPC   H7X24453   2.937   2.763   4.820  0.0636 -0.5639  2.3012
  197DOPC   H7Y24454   3.085   2.836   4.758 -0.2965 -0.0974 -0.5628
  197DOPC   C3824455   3.013   2.920   4.955  0.2850  0.4665  0.2737
  197DOPC   H8X24456   2.912   2.943   4.995  0.1908 -1.3226  1.1775
  197DOPC   H8Y24457   3.070   3.015   4.945  1.7118 -0.4403 -0.4253
  197DOPC   C3924458   3.090   2.838   5.049 -0.2934  0.0137 -0.3005
  197DOPC   H9X24459   3.156   2.772   4.991  0.8204  1.1114 -0.3267
  197DOPC  C31024460   3.082   2.833   5.183 -1.4765 -0.5364 -1.2650
  197DOPC  H10X24461   3.153   2.766   5.234  0.4676  0.8859 -1.9898
  197DOPC  C31124462   2.985   2.917   5.263  0.3287  0.2154  0.2577
  197DOPC  H11X24463   2.886   2.869   5.248  0.8840 -1.0191  0.4128
  197DOPC  H11Y24464   2.982   3.020   5.221 -0.2226  0.3444  0.5857
  197DOPC  C31224465   3.015   2.908   5.413  0.2830 -0.0988  0.0654
  197DOPC  H12X24466   2.958   2.975   5.481  0.4278  0.1334 -0.0375
  197DOPC  H12Y24467   3.113   2.955   5.436  0.2236 -0.0006  0.1183
  197DOPC  C31324468   3.002   2.770   5.478  0.1393  0.3764  0.3181
  197DOPC  H13X24469   2.911   2.734   5.426 -0.0575  0.7216  0.4205
  197DOPC  H13Y24470   3.093   2.711   5.452 -0.0671  0.1548  0.0931
  197DOPC  C31424471   2.985   2.778   5.632  0.0141 -0.3366  0.7947
  197DOPC  H14X24472   3.065   2.844   5.672 -0.8692  1.8847 -0.8524
  197DOPC  H14Y24473   2.886   2.822   5.658  0.5251  0.0021  2.2316
  197DOPC  C31524474   3.002   2.639   5.690 -0.0073 -0.1997  0.1650
  197DOPC  H15X24475   3.058   2.578   5.617 -0.2800 -1.1477  0.7364
  197DOPC  H15Y24476   2.900   2.594   5.692 -0.5079  0.6447 -2.6745
  197DOPC  C31624477   3.080   2.641   5.823  0.0382  0.1038 -0.5000
  197DOPC  H16X24478   3.159   2.719   5.820 -1.0461  1.1871 -2.0840
  197DOPC  H16Y24479   3.002   2.674   5.895 -0.4983 -0.2217 -0.9314
  197DOPC  C31724480   3.123   2.508   5.875  0.0506 -1.0403 -0.4953
  197DOPC  H17X24481   3.174   2.445   5.799  0.9939  0.6666 -1.3471
  197DOPC  H17Y24482   3.192   2.512   5.963 -0.4847 -0.7984 -0.0808
  197DOPC  C31824483   2.999   2.432   5.928 -0.2050  0.3072 -0.4109
  197DOPC  H18X24484   2.933   2.399   5.845  1.5060 -1.4492 -1.1482
  197DOPC  H18Y24485   3.032   2.344   5.987  0.5721  1.9901  1.7953
  197DOPC  H18Z24486   2.941   2.503   5.991 -1.4327  0.5661 -1.7750
  198DOPC     N24487   5.233   2.668   3.861 -0.0496  0.0985  0.9486
  198DOPC   C1224488   5.120   2.722   3.947  0.1559 -0.1324 -0.1436
  198DOPC  H12A24489   5.151   2.817   3.987  1.2152 -1.4407  2.4263
  198DOPC  H12B24490   5.116   2.662   4.037  0.5474  0.1616  0.0725
  198DOPC   C1324491   5.247   2.752   3.731 -0.3527  1.1392  0.5981
  198DOPC  H13A24492   5.314   2.696   3.667 -0.3432  0.6549  1.0281
  198DOPC  H13B24493   5.152   2.781   3.687 -0.1119 -0.4968 -1.1455
  198DOPC  H13C24494   5.301   2.840   3.762 -1.1189  1.7371  0.2866
  198DOPC   C1424495   5.193   2.529   3.820  0.4341  0.2190 -0.5182
  198DOPC  H14A24496   5.277   2.486   3.767  0.5030  0.3887 -0.5453
  198DOPC  H14B24497   5.189   2.464   3.907  1.5974  1.1018  0.2216
  198DOPC  H14C24498   5.106   2.528   3.756  0.4825 -0.2652 -0.5827
  198DOPC   C1524499   5.361   2.667   3.936  0.0681  0.4150  0.1168
  198DOPC  H15A24500   5.357   2.591   4.012 -2.9209  0.2917 -0.0757
  198DOPC  H15B24501   5.380   2.758   3.991 -1.2636  0.2713  0.8339
  198DOPC  H15C24502   5.444   2.636   3.873 -0.2801  1.3475 -0.8199
  198DOPC   C1124503   4.982   2.756   3.889  0.2838  0.2350 -0.2419
  198DOPC  H11A24504   4.944   2.671   3.828  2.7379  0.6561 -2.5478
  198DOPC  H11B24505   4.904   2.762   3.969  0.6729  0.2848  0.1349
  198DOPC     P24506   4.988   3.026   3.880 -0.0287 -0.1430  0.4508
  198DOPC   O1324507   4.964   3.128   3.774 -0.1449 -0.2410  0.0332
  198DOPC   O1424508   5.108   3.043   3.963  0.0447 -0.3293  0.0069
  198DOPC   O1224509   4.986   2.882   3.820  0.0081  0.3244 -0.2094
  198DOPC   O1124510   4.872   3.030   3.982 -0.6824 -0.3030  0.3878
  198DOPC    C124511   4.747   3.002   3.934  0.0163 -0.5097  0.3726
  198DOPC    HA24512   4.750   2.904   3.882  0.8028  0.1216 -0.8167
  198DOPC    HB24513   4.720   3.081   3.861  2.4064  0.7258  0.7316
  198DOPC    C224514   4.640   2.981   4.052  0.3099 -0.2278 -0.0233
  198DOPC    HS24515   4.538   2.979   4.008  0.5670  1.4316 -0.7776
  198DOPC   O2124516   4.660   3.090   4.143  0.5456  0.1549  0.4818
  198DOPC   C2124517   4.629   3.210   4.103  0.1121  0.4381  0.8517
  198DOPC   O2224518   4.582   3.241   3.992  0.1238 -0.3501  0.0604
  198DOPC   C2224519   4.668   3.318   4.198 -0.4075  0.4770 -0.8422
  198DOPC   H2R24520   4.664   3.413   4.140  1.5992  0.8115 -0.5046
  198DOPC   H2S24521   4.776   3.299   4.216 -1.0691 -2.3315  0.6875
  198DOPC    C324522   4.644   2.839   4.125  0.0868  0.6321 -0.3198
  198DOPC    HX24523   4.748   2.801   4.137 -0.1130  0.3754  0.6547
  198DOPC    HY24524   4.600   2.773   4.047  3.0666 -0.3854 -1.2687
  198DOPC   O3124525   4.561   2.838   4.243 -0.0107 -0.6522  0.2167
  198DOPC   C3124526   4.613   2.880   4.350 -0.4456 -0.0479 -0.3374
  198DOPC   O3224527   4.730   2.915   4.363  0.0941  0.1014  0.9177
  198DOPC   C3224528   4.506   2.868   4.463 -0.3356 -0.4152  0.6319
  198DOPC   H2X24529   4.439   2.952   4.434  0.4770  0.1476  0.3237
  198DOPC   H2Y24530   4.445   2.776   4.450 -0.9044  0.1771 -1.1698
  198DOPC   C2324531   4.604   3.325   4.338 -0.0877 -0.0629  0.8353
  198DOPC   H3R24532   4.568   3.222   4.357  0.2524 -0.9513 -2.5664
  198DOPC   H3S24533   4.515   3.390   4.333 -0.3221 -0.3199  1.5780
  198DOPC   C2424534   4.703   3.364   4.436  0.4394 -0.1843  0.0823
  198DOPC   H4R24535   4.648   3.396   4.527  0.1590 -1.5700  0.4162
  198DOPC   H4S24536   4.765   3.447   4.395 -0.7774  1.0463  0.6589
  198DOPC   C2524537   4.794   3.246   4.479 -0.1765 -0.5230 -0.2978
  198DOPC   H5R24538   4.894   3.235   4.433  1.4675  1.4130  2.5096
  198DOPC   H5S24539   4.743   3.148   4.466 -0.7545 -0.2107 -0.4151
  198DOPC   C2624540   4.830   3.254   4.627 -0.2468  0.3517  0.5121
  198DOPC   H6R24541   4.852   3.151   4.662 -0.8830  0.5291  1.4639
  198DOPC   H6S24542   4.734   3.277   4.678 -0.5512 -0.3188  0.2441
  198DOPC   C2724543   4.936   3.362   4.661  0.0971 -0.1968  0.3786
  198DOPC   H7R24544   4.901   3.450   4.603  0.6537 -0.6110 -0.5963
  198DOPC   H7S24545   5.036   3.326   4.628 -1.4167 -4.1833 -0.3325
  198DOPC   C2824546   4.936   3.408   4.808 -0.0594 -0.4254 -0.2404
  198DOPC   H8R24547   4.829   3.436   4.822 -0.2222 -1.1872  0.0994
  198DOPC   H8S24548   5.006   3.492   4.826 -1.5215  0.1591  3.4171
  198DOPC   C2924549   4.978   3.293   4.897 -0.1184  0.2417  0.9462
  198DOPC   H9R24550   5.062   3.237   4.853 -1.1365  1.9207 -3.6893
  198DOPC  C21024551   4.926   3.254   5.014  0.5174 -0.4801 -0.4427
  198DOPC  H10R24552   4.976   3.175   5.074  0.1322 -0.3840  0.0097
  198DOPC  C21124553   4.819   3.334   5.084  0.1815 -0.5087 -0.6155
  198DOPC  H11R24554   4.731   3.272   5.114 -0.5951  0.7371 -0.2396
  198DOPC  H11S24555   4.779   3.413   5.017 -2.9170 -0.3209  1.2622
  198DOPC  C21224556   4.869   3.406   5.205  0.0830  0.5445 -0.2268
  198DOPC  H12R24557   4.789   3.479   5.230 -3.7032 -3.8990  1.9993
  198DOPC  H12S24558   4.967   3.455   5.185 -0.0610  0.4266 -1.2630
  198DOPC  C21324559   4.886   3.318   5.326 -0.9173  0.5302 -0.0529
  198DOPC  H13R24560   4.825   3.226   5.322 -0.0623 -0.0224 -0.7152
  198DOPC  H13S24561   4.846   3.378   5.410  1.4536  1.5381  0.4579
  198DOPC  C21424562   5.033   3.290   5.364 -0.3983  0.8575 -0.5707
  198DOPC  H14R24563   5.084   3.375   5.415 -1.4016  1.3538 -0.3616
  198DOPC  H14S24564   5.089   3.268   5.271 -1.3689  1.7758 -1.4030
  198DOPC  C21524565   5.061   3.172   5.464  0.0135 -0.5957  0.3015
  198DOPC  H15R24566   5.171   3.166   5.469  0.4455  2.6759 -2.1394
  198DOPC  H15S24567   5.012   3.088   5.409 -1.7829  1.4057 -1.3755
  198DOPC  C21624568   4.983   3.176   5.597 -0.0797 -0.6101 -0.9095
  198DOPC  H16R24569   4.877   3.144   5.582 -0.3685  0.4484 -1.2398
  198DOPC  H16S24570   5.005   3.275   5.643  1.0017 -0.4729 -1.6899
  198DOPC  C21724571   5.026   3.072   5.706 -0.2998 -0.1360  0.5823
  198DOPC  H17R24572   5.136   3.073   5.726 -0.0953 -1.1333 -0.3835
  198DOPC  H17S24573   5.002   2.969   5.671  0.3852  0.0039 -0.3607
  198DOPC  C21824574   4.954   3.104   5.838 -0.8891  1.1289  0.4666
  198DOPC  H18R24575   4.956   3.213   5.859  0.4811  0.8441  2.0798
  198DOPC  H18S24576   5.000   3.052   5.925 -0.7844 -0.4959 -0.5073
  198DOPC  H18T24577   4.849   3.069   5.833 -0.8922  1.2896 -1.6043
  198DOPC   C3324578   4.553   2.888   4.607  0.0744  0.0885  0.3343
  198DOPC   H3X24579   4.470   2.900   4.680 -2.0270  0.4488 -1.9860
  198DOPC   H3Y24580   4.614   2.981   4.611 -1.3037  0.9821  1.6007
  198DOPC   C3424581   4.641   2.779   4.655 -0.1474 -0.2265  0.1279
  198DOPC   H4X24582   4.679   2.735   4.560 -2.8696  0.0395 -1.1701
  198DOPC   H4Y24583   4.580   2.703   4.707  0.6444  0.7728  2.6914
  198DOPC   C3524584   4.757   2.809   4.752  0.0251 -0.3115 -0.3083
  198DOPC   H5X24585   4.830   2.879   4.707  0.3058 -1.2704 -1.3925
  198DOPC   H5Y24586   4.817   2.718   4.776 -0.5602 -0.5628  0.2180
  198DOPC   C3624587   4.708   2.875   4.883 -1.0218 -0.7119  0.0017
  198DOPC   H6X24588   4.680   2.982   4.874 -0.7549 -0.5101  1.3551
  198DOPC   H6Y24589   4.616   2.816   4.904 -0.5128 -3.1295 -3.6628
  198DOPC   C3724590   4.810   2.866   5.001  0.5532 -0.7370 -0.2727
  198DOPC   H7X24591   4.816   2.757   5.021 -0.6157 -1.2798 -2.5010
  198DOPC   H7Y24592   4.904   2.911   4.964  0.0984  1.8531  1.4095
  198DOPC   C3824593   4.747   2.949   5.114 -0.0628  0.0530 -0.2085
  198DOPC   H8X24594   4.643   2.913   5.131  0.0953  0.1541  1.0645
  198DOPC   H8Y24595   4.736   3.052   5.075  1.2571 -0.5135 -2.2457
  198DOPC   C3924596   4.846   2.948   5.230  0.4277  0.0367  0.4119
  198DOPC   H9X24597   4.910   3.038   5.227 -1.5428  1.4988  0.2932
  198DOPC  C31024598   4.841   2.867   5.335  0.9079 -0.2076 -0.2841
  198DOPC  H10X24599   4.898   2.899   5.424 -0.9697 -0.2375  0.9903
  198DOPC  C31124600   4.732   2.765   5.362 -0.3463  0.3172 -0.2173
  198DOPC  H11X24601   4.761   2.672   5.310 -0.8015  0.3689 -0.5656
  198DOPC  H11Y24602   4.630   2.786   5.325 -0.8733 -1.4645  0.1207
  198DOPC  C31224603   4.741   2.736   5.508 -0.5647  0.0892 -0.5566
  198DOPC  H12X24604   4.839   2.718   5.557 -0.8303 -0.9938 -0.3924
  198DOPC  H12Y24605   4.688   2.640   5.523  1.3400 -0.8108  0.7735
  198DOPC  C31324606   4.664   2.842   5.592 -0.1912 -0.6516 -0.6634
  198DOPC  H13X24607   4.730   2.931   5.589  1.4222 -1.6814  1.6266
  198DOPC  H13Y24608   4.565   2.860   5.545  0.2150 -0.2489 -1.3759
  198DOPC  C31424609   4.645   2.801   5.740  0.0065  0.7890 -0.3775
  198DOPC  H14X24610   4.582   2.711   5.752  1.0695  0.1585  0.7588
  198DOPC  H14Y24611   4.746   2.773   5.779 -0.2545 -0.8711 -0.8046
  198DOPC  C31524612   4.599   2.919   5.833  0.0210  0.2207 -0.3380
  198DOPC  H15X24613   4.489   2.924   5.826 -0.2768 -1.5693  2.0070
  198DOPC  H15Y24614   4.644   3.013   5.794  1.3370  0.2117  1.0606
  198DOPC  C31624615   4.652   2.898   5.976 -0.0720 -0.1934  0.2999
  198DOPC  H16X24616   4.600   2.813   6.025  0.4693  0.2476  1.6807
  198DOPC  H16Y24617   4.759   2.867   5.968 -0.5493 -2.2973  1.2995
  198DOPC  C31724618   4.646   3.029   6.052  0.3039 -0.6980  0.2741
  198DOPC  H17X24619   4.684   3.109   5.986  1.4298 -2.4344 -1.2985
  198DOPC  H17Y24620   4.541   3.052   6.078  0.9612  1.2709  1.3708
  198DOPC  C31824621   4.738   3.031   6.174  0.1386  0.7541  0.0575
  198DOPC  H18X24622   4.717   3.120   6.238  0.9941  1.6137 -0.8399
  198DOPC  H18Y24623   4.714   2.941   6.235 -0.3786  0.4482 -0.5785
  198DOPC  H18Z24624   4.844   3.023   6.144  0.1726  2.4352 -0.3777
  199DOPC     N24625   4.177   2.858   3.501 -0.1460  0.3020 -0.2650
  199DOPC   C1224626   4.115   2.907   3.639  0.1847  0.6663  0.0787
  199DOPC  H12A24627   4.164   2.999   3.666 -2.0139  2.2584 -1.0860
  199DOPC  H12B24628   4.128   2.831   3.715 -0.2543  0.9321  0.4281
  199DOPC   C1324629   4.314   2.799   3.529 -0.5191 -0.8422 -0.4637
  199DOPC  H13A24630   4.309   2.721   3.603  0.6229 -1.8742 -1.4359
  199DOPC  H13B24631   4.360   2.755   3.442  1.6427  1.2880 -0.4982
  199DOPC  H13C24632   4.375   2.868   3.585 -2.5329  1.2602 -0.6503
  199DOPC   C1424633   4.201   2.970   3.416 -0.1130 -0.4468 -0.2352
  199DOPC  H14A24634   4.238   2.942   3.319 -0.6914  0.6411 -0.7856
  199DOPC  H14B24635   4.114   3.032   3.399 -0.1805 -0.4010  0.2408
  199DOPC  H14C24636   4.277   3.038   3.454  0.7767 -0.4146 -1.9827
  199DOPC   C1524637   4.101   2.746   3.437 -0.3830  0.0907  0.2769
  199DOPC  H15A24638   4.150   2.725   3.343  0.4361  2.0351  0.2390
  199DOPC  H15B24639   4.004   2.781   3.404 -0.2530  1.0876  0.9127
  199DOPC  H15C24640   4.082   2.654   3.491  0.0236 -0.1447  0.0274
  199DOPC   C1124641   3.965   2.947   3.638 -0.6433  0.5807 -0.4113
  199DOPC  H11A24642   3.913   2.855   3.604  1.6464 -0.7489 -0.5456
  199DOPC  H11B24643   3.936   2.962   3.744  0.6377 -0.3019  0.0941
  199DOPC     P24644   3.985   3.208   3.606 -0.3405  0.2999 -0.2503
  199DOPC   O1324645   3.938   3.301   3.500  0.0209 -0.0457  0.0824
  199DOPC   O1424646   4.131   3.221   3.640  0.2177 -0.3201  0.3027
  199DOPC   O1224647   3.950   3.063   3.564 -0.0462  0.1285 -0.1243
  199DOPC   O1124648   3.895   3.221   3.738  0.4525  0.2964 -0.0029
  199DOPC    C124649   3.879   3.346   3.799  0.0546 -0.8814 -0.3598
  199DOPC    HA24650   3.789   3.340   3.864  0.7962 -0.2256  0.7561
  199DOPC    HB24651   3.861   3.432   3.732  2.6152 -0.0995 -0.1369
  199DOPC    C224652   4.004   3.396   3.875 -0.4769 -1.1529 -0.3927
  199DOPC    HS24653   4.084   3.402   3.798  0.2677  4.3610  0.4107
  199DOPC   O2124654   4.029   3.304   3.980  0.6812  0.9479 -0.1077
  199DOPC   C2124655   4.150   3.305   4.027 -0.4960 -0.3552  0.5465
  199DOPC   O2224656   4.230   3.395   3.995  0.2117 -0.6585 -0.1953
  199DOPC   C2224657   4.166   3.205   4.139  0.1071  0.1651 -0.4678
  199DOPC   H2R24658   4.227   3.118   4.106  1.7324 -0.0650  2.8357
  199DOPC   H2S24659   4.066   3.166   4.169  0.4173 -1.5537 -1.4863
  199DOPC    C324660   3.973   3.545   3.918  0.4501 -0.2797  0.5573
  199DOPC    HX24661   3.957   3.603   3.825 -0.2709  3.1276  2.6150
  199DOPC    HY24662   4.056   3.600   3.967 -0.5468  0.4548  1.4845
  199DOPC   O3124663   3.853   3.552   4.005 -0.2386 -0.3246 -0.3026
  199DOPC   C3124664   3.876   3.543   4.140  0.1995  0.1535  0.2940
  199DOPC   O3224665   3.994   3.541   4.186  0.7579 -0.0241 -0.2253
  199DOPC   C3224666   3.742   3.514   4.206 -0.4277  0.2020 -0.0433
  199DOPC   H2X24667   3.658   3.538   4.138 -3.0268  1.5451  3.3817
  199DOPC   H2Y24668   3.746   3.406   4.233 -0.0570  0.2771  0.2122
  199DOPC   C2324669   4.228   3.276   4.266 -0.2758 -0.0919  0.0403
  199DOPC   H3R24670   4.167   3.367   4.286  2.7543  1.7957  1.4978
  199DOPC   H3S24671   4.329   3.316   4.243 -0.6533  0.4906 -0.6257
  199DOPC   C2424672   4.232   3.189   4.390  0.0094 -0.2854 -0.2834
  199DOPC   H4R24673   4.306   3.110   4.365 -0.3095 -0.4724 -0.6442
  199DOPC   H4S24674   4.130   3.149   4.402 -0.7912  1.6149 -0.3156
  199DOPC   C2524675   4.270   3.263   4.526  1.0414 -0.1632  0.8578
  199DOPC   H5R24676   4.187   3.332   4.554 -1.0494 -0.7162 -3.2481
  199DOPC   H5S24677   4.355   3.328   4.498  1.2615  0.3787  2.6156
  199DOPC   C2624678   4.315   3.171   4.633 -0.3969  0.1488 -0.3376
  199DOPC   H6R24679   4.406   3.117   4.598 -0.2205 -0.1241  0.5295
  199DOPC   H6S24680   4.232   3.103   4.661 -0.9194  0.2049 -1.6848
  199DOPC   C2724681   4.368   3.249   4.761 -0.4386 -0.3526  0.1331
  199DOPC   H7R24682   4.286   3.304   4.812  0.0918  0.1060  0.5184
  199DOPC   H7S24683   4.435   3.327   4.719  0.8453 -0.7940  1.2615
  199DOPC   C2824684   4.442   3.168   4.867  0.2197  1.1289 -0.2606
  199DOPC   H8R24685   4.522   3.106   4.821  1.6083  2.6842 -0.0384
  199DOPC   H8S24686   4.357   3.104   4.899 -0.3107  1.6856 -0.5549
  199DOPC   C2924687   4.489   3.258   4.979  0.4466  0.1104  0.2407
  199DOPC   H9R24688   4.565   3.335   4.958 -0.8951  2.1265  2.3230
  199DOPC  C21024689   4.438   3.266   5.104 -0.1858 -1.5621  0.4783
  199DOPC  H10R24690   4.482   3.346   5.165  2.7150 -2.8894  0.3181
  199DOPC  C21124691   4.329   3.190   5.168 -0.2851  0.3798  0.7099
  199DOPC  H11R24692   4.252   3.154   5.097  0.1149  2.0644 -0.6206
  199DOPC  H11S24693   4.260   3.243   5.237 -1.4904  0.4044 -0.4713
  199DOPC  C21224694   4.381   3.058   5.237 -0.2299 -0.2463  0.5265
  199DOPC  H12R24695   4.446   3.008   5.163  1.0208  0.7866  0.8654
  199DOPC  H12S24696   4.289   3.006   5.269 -1.0735  1.9050  1.8478
  199DOPC  C21324697   4.470   3.089   5.357 -0.1202 -0.7294  0.0279
  199DOPC  H13R24698   4.570   3.125   5.326 -0.8656  0.0212 -1.6493
  199DOPC  H13S24699   4.487   2.992   5.409  0.3619 -0.4435  0.4052
  199DOPC  C21424700   4.405   3.179   5.462 -0.7879  0.7390  0.2834
  199DOPC  H14R24701   4.308   3.149   5.509 -1.9281  1.1743 -1.6631
  199DOPC  H14S24702   4.382   3.277   5.417  1.8859  0.7827 -1.1881
  199DOPC  C21524703   4.512   3.191   5.573 -0.1257  0.3060  0.4298
  199DOPC  H15R24704   4.608   3.197   5.516 -0.4585  1.2883 -0.0614
  199DOPC  H15S24705   4.508   3.103   5.639  0.8311 -1.0792 -1.2653
  199DOPC  C21624706   4.502   3.322   5.650 -0.2662  0.0524  0.1483
  199DOPC  H16R24707   4.405   3.332   5.703 -0.7480 -1.9770 -0.2820
  199DOPC  H16S24708   4.509   3.406   5.578  0.2476 -0.6776 -0.6798
  199DOPC  C21724709   4.611   3.330   5.757 -0.5001  0.0417 -0.1374
  199DOPC  H17R24710   4.711   3.315   5.712 -0.0545 -0.6168  1.0356
  199DOPC  H17S24711   4.589   3.239   5.817 -0.7606  0.4846  0.4608
  199DOPC  C21824712   4.592   3.452   5.841  0.6557 -0.3131  0.5289
  199DOPC  H18R24713   4.491   3.460   5.888  1.0374 -1.2644  1.5475
  199DOPC  H18S24714   4.617   3.543   5.782 -0.1167  0.2386  1.0267
  199DOPC  H18T24715   4.666   3.451   5.924  0.5005 -0.5536  0.6650
  199DOPC   C3324716   3.723   3.600   4.335 -0.7154 -0.4673 -0.1844
  199DOPC   H3X24717   3.722   3.706   4.302  0.6825 -0.1577  0.6795
  199DOPC   H3Y24718   3.816   3.601   4.395 -0.2010  0.9978 -0.9636
  199DOPC   C3424719   3.607   3.567   4.429  0.1093  0.0423  0.0693
  199DOPC   H4X24720   3.606   3.462   4.464 -3.1639 -0.8003 -2.0451
  199DOPC   H4Y24721   3.513   3.569   4.370 -0.8152 -0.1706  1.4825
  199DOPC   C3524722   3.613   3.643   4.568  0.1101  0.3000  0.6932
  199DOPC   H5X24723   3.575   3.746   4.552 -0.4027  0.1525  0.9586
  199DOPC   H5Y24724   3.717   3.649   4.608  0.3434  0.7135  0.0618
  199DOPC   C3624725   3.528   3.579   4.686  0.2233  0.3614  0.2282
  199DOPC   H6X24726   3.427   3.617   4.660 -0.7330 -1.6571  0.7885
  199DOPC   H6Y24727   3.532   3.470   4.667  1.4291  0.5734 -0.8438
  199DOPC   C3724728   3.572   3.621   4.820 -0.0727  0.0806 -0.4147
  199DOPC   H7X24729   3.669   3.573   4.845  0.4052  0.9280 -0.5940
  199DOPC   H7Y24730   3.600   3.729   4.812  0.6811 -0.0071  0.8194
  199DOPC   C3824731   3.468   3.591   4.931  0.3940 -0.1865  0.0313
  199DOPC   H8X24732   3.373   3.643   4.909  0.6522  0.2935  0.0235
  199DOPC   H8Y24733   3.508   3.632   5.026  0.7581 -0.8995  0.1951
  199DOPC   C3924734   3.452   3.443   4.959  0.1536  0.2368  0.5984
  199DOPC   H9X24735   3.371   3.404   4.896  0.8515  1.3257 -1.0351
  199DOPC  C31024736   3.500   3.368   5.064  0.2239 -0.0736  0.3614
  199DOPC  H10X24737   3.485   3.259   5.072 -0.3803 -0.0563 -0.3980
  199DOPC  C31124738   3.603   3.416   5.168 -0.1754 -0.9203  0.5418
  199DOPC  H11X24739   3.614   3.526   5.155 -1.3807 -0.8266  0.1826
  199DOPC  H11Y24740   3.703   3.369   5.161 -0.5780 -1.5382 -2.5815
  199DOPC  C31224741   3.536   3.413   5.306  0.2421  0.5698 -0.2306
  199DOPC  H12X24742   3.490   3.312   5.311 -0.7847  0.8638 -2.3493
  199DOPC  H12Y24743   3.459   3.493   5.309 -1.9340 -1.4658  1.4312
  199DOPC  C31324744   3.639   3.434   5.419  0.0415  0.3594  0.8330
  199DOPC  H13X24745   3.720   3.359   5.409  0.4653  1.0076 -1.1785
  199DOPC  H13Y24746   3.682   3.534   5.401  0.3691  0.9288  4.2701
  199DOPC  C31424747   3.586   3.422   5.561  1.3205  0.0049  0.3357
  199DOPC  H14X24748   3.495   3.486   5.572 -0.4260 -1.8605 -2.0661
  199DOPC  H14Y24749   3.539   3.321   5.563 -0.2014  0.6349  3.5835
  199DOPC  C31524750   3.682   3.461   5.668  0.1679 -0.2718  0.2950
  199DOPC  H15X24751   3.732   3.553   5.629 -1.7468  0.6370 -0.1324
  199DOPC  H15Y24752   3.765   3.387   5.661  0.8448  0.4483  0.5661
  199DOPC  C31624753   3.620   3.487   5.808  0.0023 -0.1732  0.1797
  199DOPC  H16X24754   3.537   3.557   5.790 -1.0280 -1.4950 -0.4128
  199DOPC  H16Y24755   3.580   3.389   5.842  1.7805 -0.4596  1.6139
  199DOPC  C31724756   3.714   3.528   5.919 -0.0622  0.1759  0.1107
  199DOPC  H17X24757   3.665   3.526   6.018 -0.4935  1.9087 -0.0199
  199DOPC  H17Y24758   3.789   3.447   5.929  0.1538  0.5372  1.5696
  199DOPC  C31824759   3.790   3.660   5.910 -0.3970 -0.1053  0.5024
  199DOPC  H18X24760   3.721   3.746   5.924 -1.1897 -0.5797 -0.3864
  199DOPC  H18Y24761   3.867   3.661   5.991  0.2312 -1.2157 -0.0523
  199DOPC  H18Z24762   3.843   3.667   5.813  0.1272 -0.7015  0.7385
  200DOPC     N24763   0.729   4.761   3.680 -0.2193 -0.5157  0.1080
  200DOPC   C1224764   0.852   4.798   3.750 -0.5417  0.4008  0.5450
  200DOPC  H12A24765   0.856   4.902   3.777  3.6666  0.5374  0.0965
  200DOPC  H12B24766   0.931   4.784   3.679 -0.7310 -0.4338  0.4901
  200DOPC   C1324767   0.754   4.623   3.632 -0.6814  0.5007  0.0210
  200DOPC  H13A24768   0.848   4.613   3.581  0.6426  0.0789  2.3972
  200DOPC  H13B24769   0.753   4.552   3.713 -0.3615 -0.0560 -0.4562
  200DOPC  H13C24770   0.680   4.593   3.559 -1.0677 -1.1229  1.0176
  200DOPC   C1424771   0.720   4.848   3.558  0.1083 -0.2738 -0.2244
  200DOPC  H14A24772   0.803   4.842   3.490  0.5092  0.4433  0.1902
  200DOPC  H14B24773   0.627   4.831   3.504 -0.8764 -0.1724  1.3768
  200DOPC  H14C24774   0.717   4.952   3.589 -1.8353 -0.3704  0.0221
  200DOPC   C1524775   0.615   4.780   3.773 -0.1365 -0.4954  0.4292
  200DOPC  H15A24776   0.632   4.738   3.871  2.4452  1.0939  0.7560
  200DOPC  H15B24777   0.520   4.749   3.733 -0.8436 -0.7385  2.1917
  200DOPC  H15C24778   0.605   4.886   3.787 -0.9636 -0.4133 -0.6408
  200DOPC   C1124779   0.911   4.717   3.877  0.2902  0.1521 -0.6853
  200DOPC  H11A24780   0.972   4.794   3.928 -0.6004  0.4473 -0.0462
  200DOPC  H11B24781   0.817   4.694   3.931 -0.3516  2.1813 -0.8707
  200DOPC     P24782   0.954   4.455   3.877  0.1376 -0.0429 -0.3176
  200DOPC   O1324783   1.061   4.369   3.820  0.8263  0.1344 -0.3673
  200DOPC   O1424784   0.812   4.420   3.854 -0.4201  0.6797  0.3597
  200DOPC   O1224785   0.988   4.599   3.829 -0.3045 -1.2705  0.0566
  200DOPC   O1124786   0.979   4.472   4.029 -0.6552 -0.0889 -0.7178
  200DOPC    C124787   0.907   4.386   4.119  0.1010 -0.2317 -0.2332
  200DOPC    HA24788   0.900   4.279   4.087 -1.3343  0.5902 -3.0465
  200DOPC    HB24789   0.799   4.414   4.115 -0.1325 -1.0554  0.0068
  200DOPC    C224790   0.955   4.406   4.264 -0.1344  0.8858 -0.0127
  200DOPC    HS24791   1.060   4.371   4.274 -0.1633  0.5032 -0.9632
  200DOPC   O2124792   0.866   4.334   4.358 -0.2688 -0.0636  0.3545
  200DOPC   C2124793   0.867   4.206   4.353 -0.3902  0.9954  0.4416
  200DOPC   O2224794   0.942   4.139   4.278 -0.1557 -0.4617  0.3627
  200DOPC   C2224795   0.765   4.154   4.450 -0.1980 -0.0733  0.0724
  200DOPC   H2R24796   0.682   4.104   4.395 -1.1990  0.3082  1.1771
  200DOPC   H2S24797   0.724   4.241   4.505 -0.7851 -0.4352  0.2253
  200DOPC    C324798   0.976   4.551   4.304 -0.1176 -0.2005  0.3774
  200DOPC    HX24799   0.879   4.604   4.299  0.0168  0.0239  0.0525
  200DOPC    HY24800   1.031   4.606   4.224 -1.5013 -0.1017 -0.5289
  200DOPC   O3124801   1.035   4.557   4.438 -0.4085  0.6414  0.7546
  200DOPC   C3124802   0.964   4.624   4.533  0.3526  0.9282  0.0392
  200DOPC   O3224803   0.856   4.665   4.523  0.1680  0.4444  0.6184
  200DOPC   C3224804   1.044   4.633   4.663  0.0054 -0.1824  0.0889
  200DOPC   H2X24805   1.150   4.602   4.648  0.6421  2.5450 -1.7767
  200DOPC   H2Y24806   1.051   4.740   4.691 -0.6094 -0.4951  1.4787
  200DOPC   C2324807   0.823   4.053   4.552 -0.1058  0.1712 -0.0272
  200DOPC   H3R24808   0.908   3.997   4.507  0.8333  0.6990  1.0288
  200DOPC   H3S24809   0.751   3.977   4.588  2.0238 -2.2939 -0.6709
  200DOPC   C2424810   0.885   4.134   4.663 -0.0243 -0.4220 -0.3564
  200DOPC   H4R24811   0.818   4.217   4.693 -1.6472 -1.9245  0.4055
  200DOPC   H4S24812   0.981   4.173   4.625  0.7981 -0.4553  1.5548
  200DOPC   C2524813   0.905   4.039   4.784  0.5702 -0.7292 -0.3391
  200DOPC   H5R24814   0.959   3.949   4.748 -1.3456 -3.3795  2.8299
  200DOPC   H5S24815   0.808   4.000   4.822  0.1969  0.2491 -0.2771
  200DOPC   C2624816   0.988   4.098   4.899 -0.5013  0.7081  0.1266
  200DOPC   H6R24817   0.919   4.171   4.947  1.3166  1.0738  2.2994
  200DOPC   H6S24818   1.074   4.153   4.855 -0.1384  1.8728  2.1360
  200DOPC   C2724819   1.032   3.984   5.000  0.2772  0.3849  0.0041
  200DOPC   H7R24820   1.102   3.917   4.947 -1.7356 -1.3231 -0.6399
  200DOPC   H7S24821   0.946   3.915   5.019  0.8959 -0.6895 -0.9979
  200DOPC   C2824822   1.092   4.034   5.134 -0.4017  0.1722  0.5374
  200DOPC   H8R24823   1.177   4.104   5.114  0.6929 -1.4129 -0.5855
  200DOPC   H8S24824   1.147   3.942   5.164  0.9879  0.2313 -1.6624
  200DOPC   C2924825   1.005   4.088   5.242  0.2443  1.3686 -0.4993
  200DOPC   H9R24826   0.921   4.153   5.212 -0.2983  0.8860 -0.0509
  200DOPC  C21024827   1.004   4.043   5.369  0.0841  0.1061  0.4618
  200DOPC  H10R24828   0.937   4.091   5.442  0.2913  0.2446  0.5632
  200DOPC  C21124829   1.094   3.942   5.427 -0.1637  0.3936  0.5794
  200DOPC  H11R24830   1.165   3.902   5.352  1.9944  1.3052  2.0286
  200DOPC  H11S24831   1.036   3.863   5.479  0.4366  0.0007  0.6521
  200DOPC  C21224832   1.189   4.015   5.532 -0.0839 -0.1354  0.5035
  200DOPC  H12R24833   1.241   4.105   5.492  1.5837 -0.6398  1.4391
  200DOPC  H12S24834   1.269   3.940   5.547  0.4729  0.3144 -0.1764
  200DOPC  C21324835   1.112   4.043   5.661  0.1757 -0.5478 -0.1498
  200DOPC  H13R24836   1.010   4.076   5.633  1.0990  1.0580 -1.9599
  200DOPC  H13S24837   1.156   4.134   5.707 -0.0941  0.3545 -1.6104
  200DOPC  C21424838   1.098   3.923   5.761 -0.1816 -0.0472 -0.1546
  200DOPC  H14R24839   1.193   3.874   5.791  0.3200  0.5192 -0.7930
  200DOPC  H14S24840   1.048   3.845   5.700 -0.2460  1.3687 -1.9883
  200DOPC  C21524841   1.022   3.984   5.883 -0.1956  0.2476  0.3217
  200DOPC  H15R24842   0.916   4.010   5.862 -0.1702  0.7716  0.8269
  200DOPC  H15S24843   1.066   4.083   5.908  0.4253 -0.3782  1.8294
  200DOPC  C21624844   1.031   3.886   6.005  0.4361  0.2158  0.5796
  200DOPC  H16R24845   1.136   3.886   6.043  0.7047  0.4581 -0.1331
  200DOPC  H16S24846   0.999   3.784   5.976 -2.2183  0.6182  1.7932
  200DOPC  C21724847   0.940   3.916   6.125  0.0662  0.3655  0.2874
  200DOPC  H17R24848   0.834   3.910   6.093  0.2345 -2.9207 -0.0166
  200DOPC  H17S24849   0.969   4.015   6.165 -1.2933  0.7584  0.3468
  200DOPC  C21824850   0.949   3.809   6.242 -0.1543 -0.3986 -0.1283
  200DOPC  H18R24851   0.920   3.859   6.337 -1.0724  3.2358 -2.1520
  200DOPC  H18S24852   1.055   3.776   6.239  0.3840  1.2803 -1.0168
  200DOPC  H18T24853   0.881   3.723   6.225  1.0845 -1.3912 -0.2196
  200DOPC   C3324854   0.976   4.556   4.778  0.4238  0.0671 -0.2014
  200DOPC   H3X24855   0.957   4.448   4.760  0.5322 -0.2634  1.5009
  200DOPC   H3Y24856   0.875   4.597   4.800  0.3327  0.2488 -0.9267
  200DOPC   C3424857   1.057   4.546   4.909  0.4490 -0.9376 -0.2896
  200DOPC   H4X24858   1.103   4.643   4.935 -0.4586  0.1657 -2.5328
  200DOPC   H4Y24859   1.144   4.477   4.902  1.2732 -0.0508  0.7963
  200DOPC   C3524860   0.961   4.510   5.019 -0.6627  0.0622 -0.5086
  200DOPC   H5X24861   0.911   4.413   4.997  0.3540 -0.4071 -0.8471
  200DOPC   H5Y24862   0.893   4.595   5.037  0.5267  1.0546 -0.5720
  200DOPC   C3624863   1.031   4.485   5.159  0.2920 -0.2467  0.7282
  200DOPC   H6X24864   1.091   4.391   5.161 -1.4223 -1.3622  2.5210
  200DOPC   H6Y24865   1.100   4.570   5.175 -1.0696  0.7754  1.3215
  200DOPC   C3724866   0.945   4.478   5.280  0.2178 -0.2004 -0.9381
  200DOPC   H7X24867   0.881   4.569   5.283 -2.5462 -2.0372 -0.5552
  200DOPC   H7Y24868   0.871   4.396   5.265 -0.5295  0.0090  1.1779
  200DOPC   C3824869   1.006   4.446   5.415  0.2296 -0.0664  0.1286
  200DOPC   H8X24870   1.046   4.343   5.418 -1.0681 -0.5641  1.9545
  200DOPC   H8Y24871   0.921   4.449   5.487  0.2957  3.7068  0.2458
  200DOPC   C3924872   1.120   4.532   5.450 -0.0527 -0.4805 -0.3219
  200DOPC   H9X24873   1.180   4.579   5.371 -1.1663 -0.0357 -0.9194
  200DOPC  C31024874   1.163   4.549   5.577 -0.3426  0.0477 -0.0161
  200DOPC  H10X24875   1.255   4.607   5.593 -0.6788  0.2768  1.2432
  200DOPC  C31124876   1.105   4.494   5.707  0.4992 -0.2518  0.3586
  200DOPC  H11X24877   1.022   4.424   5.688  2.2064 -2.3151  0.0672
  200DOPC  H11Y24878   1.063   4.587   5.750  3.4719  1.2374  0.3343
  200DOPC  C31224879   1.206   4.439   5.814 -0.6414  0.4146 -0.7430
  200DOPC  H12X24880   1.286   4.510   5.843 -1.2038  0.8953 -0.3216
  200DOPC  H12Y24881   1.258   4.349   5.775  0.6074  0.0471  1.6038
  200DOPC  C31324882   1.129   4.404   5.954 -0.2883  0.2909  0.4260
  200DOPC  H13X24883   1.062   4.491   5.965  0.6132  1.3802 -1.9765
  200DOPC  H13Y24884   1.052   4.324   5.949 -0.6369  0.4235  2.7480
  200DOPC  C31424885   1.212   4.391   6.074 -0.5453  0.2950  0.3094
  200DOPC  H14X24886   1.302   4.329   6.054 -0.4128  0.1588  1.2746
  200DOPC  H14Y24887   1.247   4.489   6.115 -0.7833  1.1788 -1.5126
  200DOPC  C31524888   1.121   4.329   6.180  0.2937  0.5090  0.2862
  200DOPC  H15X24889   1.098   4.224   6.152  0.2993  0.3919  0.7007
  200DOPC  H15Y24890   1.027   4.388   6.188 -0.9863 -1.2455 -1.0278
  200DOPC  C31624891   1.190   4.332   6.320  0.0206  0.8274  0.3107
  200DOPC  H16X24892   1.221   4.436   6.345  1.1268  0.3557  0.9646
  200DOPC  H16Y24893   1.102   4.305   6.383 -0.3625  0.6612 -0.2815
  200DOPC  C31724894   1.303   4.227   6.329  0.5288 -0.2536 -0.7627
  200DOPC  H17X24895   1.262   4.128   6.299 -0.9186  0.2464 -0.4899
  200DOPC  H17Y24896   1.391   4.258   6.268  1.1834  0.2783  0.4006
  200DOPC  C31824897   1.361   4.230   6.462  0.4106 -1.2295  0.3051
  200DOPC  H18X24898   1.408   4.325   6.494 -1.5375 -0.2119  0.3182
  200DOPC  H18Y24899   1.279   4.206   6.533 -1.0450 -3.3121 -1.9006
  200DOPC  H18Z24900   1.433   4.146   6.470 -0.2477 -1.9552 -0.9493
  201SOD    SOD24901   6.507   0.166   9.417  0.3863  0.1974  0.1542
  202SOD    SOD24902   2.328   4.083   3.698 -0.4442  0.4932 -0.5008
  203SOD    SOD24903   3.055   0.966  11.299 -0.3296  0.3250  0.1351
  204SOD    SOD24904   5.101   6.398   2.808  0.6872 -0.1691 -0.5095
  205SOD    SOD24905   4.656   3.306   9.367  0.4212 -0.0904  0.2195
  206SOD    SOD24906   1.185   3.927   3.875  0.4460 -0.0317  0.3144
  207SOD    SOD24907   3.470   5.314   1.190  0.2629  0.3831 -0.1565
  208SOD    SOD24908   6.092   0.932  11.214 -0.0784 -0.4177 -0.1335
  209SOD    SOD24909   0.147   4.892   2.422 -0.6866 -0.1202 -0.4222
  210SOD    SOD24910   3.864   5.372  11.650 -0.1636  0.4564  0.0003
  211SOD    SOD24911   4.356   1.173   9.657 -0.2863 -0.3260 -0.6358
  212SOD    SOD24912   0.254   3.785   8.874  0.3135 -0.2451 -0.1159
  213SOD    SOD24913   5.407   1.931   1.165  0.1811  0.0741  0.2071
  214SOD    SOD24914   3.973   0.213  10.128  0.0580 -0.0966  0.1035
  215SOD    SOD24915   0.037   5.583  11.995  0.1619 -0.0762 -0.0344
  216SOD    SOD24916   2.051   5.413  12.095  0.2034 -0.7074  0.3383
  217SOD    SOD24917   2.436   0.070   2.305 -0.2760  0.0286 -0.1511
  218SOD    SOD24918   5.930   5.193   9.095 -0.1104 -0.0794  0.3080
  219SOD    SOD24919   0.949   5.937   9.281  0.1980  0.0294 -0.3309
  220SOD    SOD24920   2.200   2.258   1.531  0.0255 -0.0327  0.0851
  221SOD    SOD24921   2.837   1.304   3.745 -0.1768  0.3275  0.3188
  222SOD    SOD24922   6.189   1.943   8.801 -0.1220  0.4491  0.0729
  223SOD    SOD24923   3.353   5.926   2.161  0.2525  0.4666  0.5317
  224SOD    SOD24924   6.473   0.328   4.061  0.0685  0.2778 -0.2080
  225SOD    SOD24925   6.155   2.920   4.026 -0.4382  0.5550 -0.4684
  226SOD    SOD24926   2.271   0.241  10.190 -0.0607 -0.3365  0.3373
  227CLA    CLA24927   3.048   0.047   2.016  0.0003 -0.4521 -0.0960
  228CLA    CLA24928   4.590   6.176   3.184  0.3109 -0.0035  0.1782
  229CLA    CLA24929   2.127   1.009   1.077  0.2854 -0.0502 -0.1855
  230CLA    CLA24930   4.135   6.364  11.847  0.1821 -0.2029 -0.1765
  231CLA    CLA24931   4.534   5.098  10.539 -0.0087 -0.1262  0.4288
  232CLA    CLA24932   6.009   6.419  10.110  0.0365  0.0253 -0.0023
  233CLA    CLA24933   0.335   6.552  11.396  0.1200 -0.4804 -0.0123
  234CLA    CLA24934   2.726   2.300  11.764  0.5736  0.3265  0.0680
  235CLA    CLA24935   4.916   2.124   1.623  0.5981 -0.2901 -0.2498
  236CLA    CLA24936   0.224   2.384  11.025 -0.3346 -0.2795 -0.5753
  237CLA    CLA24937   5.906   2.044   9.905 -0.1626 -0.4608 -0.1123
  238CLA    CLA24938   2.357   1.903   3.006  0.4710 -0.1222  0.3082
  239CLA    CLA24939   4.263   0.614   1.172 -0.2307 -0.1380 -0.1351
  240CLA    CLA24940   5.189   6.360  10.998 -0.1880 -0.0119 -0.2606
  241CLA    CLA24941   0.276   1.990   2.755  0.0680  0.1038  0.1070
  242CLA    CLA24942   4.008   0.440  10.932  0.4846  0.0187  0.2244
  243CLA    CLA24943   3.190   5.062   1.909 -0.2247 -0.3967  0.5572
  244CLA    CLA24944   0.241   1.005   1.583  0.2700  0.4410 -0.1148
  245CLA    CLA24945   4.090   4.148   1.782  0.2810  0.3423  0.0176
  246CLA    CLA24946   0.467   5.678  11.314  0.2906  0.3527 -0.2668
  247CLA    CLA24947   1.025   1.548   3.370 -0.3565 -0.1039 -0.3842
  248CLA    CLA24948   1.661   3.140   2.598 -0.0319  0.2620 -0.1100
  249CLA    CLA24949   0.487   6.158   3.086  0.1393  0.3310 -0.0618
  250CLA    CLA24950   1.109   3.776  10.763 -0.1981  0.3846 -0.0960
  251CLA    CLA24951   0.283   2.952  11.646  0.1000 -0.1974  0.0337
  252CLA    CLA24952   2.746   4.733   1.648  0.3433 -0.3102 -0.0343
  253TIP3   OH224953   5.464   2.475   9.496  0.3555 -0.1246 -0.2444
  253TIP3    H124954   5.396   2.423   9.454 -0.7942 -0.1223  1.5187
  253TIP3    H224955   5.417   2.545   9.542  1.3434 -0.9349  2.2098
  254TIP3   OH224956   6.592   2.276   9.705 -0.1619  0.2135 -0.1115
  254TIP3    H124957   6.600   2.215   9.778  2.4278  0.7138  0.1072
  254TIP3    H224958   6.604   2.362   9.744 -0.4211  0.6165 -0.8995
  255TIP3   OH224959   4.573   3.984  10.889  0.4022  0.2800 -0.0714
  255TIP3    H124960   4.581   3.930  10.810 -0.6448  0.2667 -0.1890
  255TIP3    H224961   4.504   4.047  10.868 -1.5983 -1.1909  1.5962
  256TIP3   OH224962   3.707   2.838  11.850  0.6055  0.6046  0.4027
  256TIP3    H124963   3.750   2.776  11.791 -0.3199  0.4567 -0.1322
  256TIP3    H224964   3.623   2.797  11.871 -0.1256  1.7662 -0.1451
  257TIP3   OH224965   4.892   1.806  10.981  0.1217  0.1560 -0.3873
  257TIP3    H124966   4.852   1.738  10.927  0.9929 -0.6112 -0.0848
  257TIP3    H224967   4.876   1.778  11.071  0.7888  0.1665 -0.2639
  258TIP3   OH224968   6.534   1.035   9.677 -0.0399 -0.1331 -0.0746
  258TIP3    H124969   6.470   1.085   9.728 -1.1450 -0.3633 -1.1893
  258TIP3    H224970   6.578   0.979   9.742  0.2405  1.2369  0.9709
  259TIP3   OH224971   5.597   2.829   9.567  0.0721  0.6357 -0.1533
  259TIP3    H124972   5.602   2.868   9.654  1.5509  1.3399 -0.5324
  259TIP3    H224973   5.667   2.871   9.517  0.8726 -1.5523 -0.9792
  260TIP3   OH224974   6.612   6.429  11.134  0.1029 -0.5650 -0.4839
  260TIP3    H124975   6.563   6.464  11.209  0.9404  0.0350 -0.1947
  260TIP3    H224976   6.631   6.338  11.158  1.2848 -0.0838  0.5386
  261TIP3   OH224977   5.540   4.225  10.177  0.1641  0.1087 -0.3388
  261TIP3    H124978   5.499   4.256  10.097 -0.2332 -0.5594 -0.4081
  261TIP3    H224979   5.583   4.143  10.152 -2.3398 -1.6656  0.6591
  262TIP3   OH224980   0.527   4.213   9.969 -0.2065 -0.1000 -0.1098
  262TIP3    H124981   0.559   4.297  10.001  0.1316 -0.2655 -0.0084
  262TIP3    H224982   0.601   4.175   9.922 -1.2809  1.0261 -2.9139
  263TIP3   OH224983   1.337   0.454  11.552 -0.2284 -0.1244  0.2084
  263TIP3    H124984   1.302   0.417  11.471 -1.5012 -1.2632  1.2416
  263TIP3    H224985   1.268   0.511  11.584  0.5171  0.8136  0.2031
  264TIP3   OH224986   1.828   4.415   9.162 -0.0412 -0.6366  0.8069
  264TIP3    H124987   1.838   4.334   9.111 -0.5359 -0.2300  0.0311
  264TIP3    H224988   1.914   4.457   9.160 -0.6004  0.5868 -1.8517
  265TIP3   OH224989   6.579   1.381  11.589  0.0011  0.4514 -0.0062
  265TIP3    H124990   6.583   1.332  11.507  0.3224 -0.9697  0.8173
  265TIP3    H224991   6.578   1.473  11.562  1.6356  0.0748 -1.5558
  266TIP3   OH224992   1.831   1.267  10.537 -0.1777  0.1690 -0.3892
  266TIP3    H124993   1.893   1.311  10.595 -0.0312  0.0087 -0.4231
  266TIP3    H224994   1.835   1.174  10.563 -0.6585  0.2086 -0.1576
  267TIP3   OH224995   5.404   3.819  10.403 -0.1181  0.3730 -0.7226
  267TIP3    H124996   5.398   3.885  10.472  0.1523  0.5383 -0.8545
  267TIP3    H224997   5.342   3.751  10.429 -0.3234  0.6321 -0.5341
  268TIP3   OH224998   3.437   3.124  11.387 -0.6738 -0.2370 -0.6981
  268TIP3    H124999   3.496   3.112  11.461 -1.4358 -0.7929 -0.1666
  268TIP3    H225000   3.442   3.043  11.338 -1.2710 -0.4432 -0.4353
  269TIP3   OH225001   4.580   4.927   8.825 -0.2142 -0.5783  0.3825
  269TIP3    H125002   4.629   4.981   8.762  0.2861  0.1413  1.3561
  269TIP3    H225003   4.493   4.921   8.788  0.1212 -0.3080 -0.4732
  270TIP3   OH225004   1.511   6.597  10.141 -0.5558 -0.5668 -0.2033
  270TIP3    H125005   1.537   6.545  10.065 -1.8582 -0.3430 -0.8303
  270TIP3    H225006   1.471   6.534  10.201 -0.1302 -0.6336  0.0159
  271TIP3   OH225007   5.605   6.035  11.867  0.4887  0.0344 -0.9533
  271TIP3    H125008   5.558   6.117  11.859  0.9688  0.3918 -0.2185
  271TIP3    H225009   5.647   6.022  11.782 -0.1552  0.1880 -1.2978
  272TIP3   OH225010   4.721   1.000  10.224  0.2012 -0.3403  0.5491
  272TIP3    H125011   4.634   1.039  10.211  0.0660 -0.7827  0.0798
  272TIP3    H225012   4.704   0.924  10.280  0.3955 -0.0143  1.0612
  273TIP3   OH225013   5.064   1.721  11.782  0.5004 -0.0062  0.3060
  273TIP3    H125014   5.057   1.640  11.832  1.4152 -1.1717 -1.3701
  273TIP3    H225015   5.036   1.697  11.694  2.2492  1.1005 -0.5904
  274TIP3   OH225016   5.352   6.034   9.655  0.3683  0.6851 -0.1728
  274TIP3    H125017   5.331   5.949   9.615 -0.5175  0.0396  1.5655
  274TIP3    H225018   5.436   6.021   9.698  0.0995  0.5929  0.3313
  275TIP3   OH225019   3.869   5.471   9.417 -0.5611 -0.7300  0.3175
  275TIP3    H125020   3.864   5.386   9.372  0.4334 -0.9016  0.5020
  275TIP3    H225021   3.925   5.455   9.493  0.4666  0.3120 -0.1848
  276TIP3   OH225022   2.595   5.975  10.190 -0.1231  0.0651 -0.1360
  276TIP3    H125023   2.605   5.976  10.286  1.8066 -1.4397 -0.2500
  276TIP3    H225024   2.586   5.882  10.168 -1.4768  0.4572 -1.3671
  277TIP3   OH225025   0.747   4.211  11.601 -0.8371 -1.1726 -0.3949
  277TIP3    H125026   0.733   4.220  11.507 -0.8194 -0.8457 -0.3691
  277TIP3    H225027   0.815   4.144  11.609  1.0961  0.6237 -0.7593
  278TIP3   OH225028   3.727   2.587  12.098 -0.7953  0.9136 -0.4982
  278TIP3    H125029   3.661   2.656  12.090  0.3121  2.0279 -0.3570
  278TIP3    H225030   3.692   2.528  12.164 -0.3532  3.1075  1.8654
  279TIP3   OH225031   5.587   0.972  12.296 -0.1015  0.1001 -0.0207
  279TIP3    H125032   5.668   0.951  12.250 -0.3947  3.1831 -2.2116
  279TIP3    H225033   5.521   0.915  12.256  0.6371 -1.4293  0.8231
  280TIP3   OH225034   3.670   6.082  10.101 -0.3759  0.1789  0.1686
  280TIP3    H125035   3.638   6.165  10.066  1.8532  0.8958 -0.3170
  280TIP3    H225036   3.723   6.106  10.177  1.4277 -0.6036 -0.7711
  281TIP3   OH225037   2.521   5.870  12.038 -0.2294  0.9358 -0.0937
  281TIP3    H125038   2.495   5.779  12.048  1.7428  0.5274  1.9054
  281TIP3    H225039   2.602   5.866  11.988  0.8451  1.3858  1.5378
  282TIP3   OH225040   1.374   1.047   9.853  0.0148  0.1297 -0.2160
  282TIP3    H125041   1.417   1.005   9.778 -1.1933 -0.0402 -0.8264
  282TIP3    H225042   1.399   1.139   9.847  1.8518 -0.2634  0.5527
  283TIP3   OH225043   0.211   3.621  10.946  0.5134  0.1970 -0.1663
  283TIP3    H125044   0.132   3.622  10.894 -0.0071 -2.6440  0.4033
  283TIP3    H225045   0.280   3.651  10.887 -0.5964  0.3189 -1.4293
  284TIP3   OH225046   1.084   6.258   1.958 -0.2847  0.7304  0.0781
  284TIP3    H125047   1.153   6.315   1.992  1.1505 -0.5722 -0.5460
  284TIP3    H225048   1.122   6.218   1.880 -1.4606 -0.6334  0.1625
  285TIP3   OH225049   0.919   5.351   3.557 -0.2152  0.5963 -0.4789
  285TIP3    H125050   0.985   5.299   3.604 -0.1230  0.3698 -0.8532
  285TIP3    H225051   0.908   5.430   3.611  0.8742  0.9634 -0.7563
  286TIP3   OH225052   4.054   3.564   3.563 -0.0914 -0.6673 -0.2247
  286TIP3    H125053   4.104   3.634   3.520  0.4037 -0.1540  1.1152
  286TIP3    H225054   4.082   3.484   3.520  0.0176 -0.1316 -1.1755
  287TIP3   OH225055   0.555   2.018   2.470 -0.0852  0.3301 -0.4811
  287TIP3    H125056   0.575   2.057   2.384 -1.1946 -0.8395 -1.3149
  287TIP3    H225057   0.629   1.960   2.488 -0.7602 -0.9812 -1.6730
  288TIP3   OH225058   1.604   1.899   2.405  0.3911  0.5929 -0.2258
  288TIP3    H125059   1.686   1.852   2.423  0.1729  0.0809 -0.5539
  288TIP3    H225060   1.571   1.923   2.492  0.6572  0.3966 -0.0670
  289TIP3   OH225061   2.817   3.766   3.031 -0.2067  0.1197 -0.2739
  289TIP3    H125062   2.738   3.804   3.070  1.2156  2.0333  0.9379
  289TIP3    H225063   2.888   3.796   3.087  1.5260 -0.4249 -2.0629
  290TIP3   OH225064   0.329   1.548   2.257 -0.0575  0.3253 -0.0141
  290TIP3    H125065   0.269   1.514   2.191  1.0974  0.3581 -1.0941
  290TIP3    H225066   0.272   1.573   2.330 -1.1743 -1.5331 -0.1890
  291TIP3   OH225067   4.279   4.715   3.341 -0.3102 -0.4041 -0.0674
  291TIP3    H125068   4.344   4.661   3.297 -0.6301 -0.3727 -0.5865
  291TIP3    H225069   4.206   4.656   3.358 -1.4313  0.2089 -2.2609
  292TIP3   OH225070   3.668   5.057   2.803 -0.4686  0.6003 -0.2251
  292TIP3    H125071   3.596   5.115   2.826 -0.0065  1.4917 -0.9513
  292TIP3    H225072   3.733   5.070   2.872  0.0566  1.7328 -0.9004
  293TIP3   OH225073   3.985   5.955   3.254  0.0566 -0.1588  0.0619
  293TIP3    H125074   4.040   6.033   3.247  1.1156 -0.9883 -1.4696
  293TIP3    H225075   4.043   5.883   3.231 -0.8768 -1.4388  1.5095
  294TIP3   OH225076   0.403   6.232   4.532 -0.1338 -0.4697  0.1664
  294TIP3    H125077   0.482   6.220   4.585 -0.7492 -0.8661  1.0124
  294TIP3    H225078   0.349   6.155   4.551 -0.7893 -0.1370 -0.2968
  295TIP3   OH225079   5.977   3.295   2.852 -0.1097 -0.1746 -0.2791
  295TIP3    H125080   5.969   3.375   2.800  0.9910 -0.4714 -0.9408
  295TIP3    H225081   6.003   3.228   2.789  1.3009 -0.5403  0.6238
  296TIP3   OH225082   5.318   4.372   1.937 -0.4156 -0.4164  0.2504
  296TIP3    H125083   5.358   4.455   1.966  0.8459 -0.7892 -0.3407
  296TIP3    H225084   5.249   4.399   1.877 -1.5391  0.2790  1.8052
  297TIP3   OH225085   1.533   4.413   1.172  0.5369 -0.7458 -0.0820
  297TIP3    H125086   1.556   4.321   1.157  1.0074 -0.9035  1.4225
  297TIP3    H225087   1.448   4.424   1.131  0.1431 -2.0536  0.3401
  298TIP3   OH225088   5.555   0.282   2.517  0.1186 -0.0569  0.2892
  298TIP3    H125089   5.463   0.292   2.540 -0.3529  1.1706 -1.8280
  298TIP3    H225090   5.568   0.187   2.509  0.0698 -0.5066  4.1010
  299TIP3   OH225091   4.044   0.037   1.963  0.2698 -0.3014  0.0773
  299TIP3    H125092   3.980  -0.030   1.985  0.8842 -1.9328 -2.6710
  299TIP3    H225093   4.105  -0.006   1.904  2.4624  1.8945  0.5700
  300TIP3   OH225094   0.505   4.467   0.560  0.8113 -0.1838 -0.2693
  300TIP3    H125095   0.540   4.398   0.615 -1.5415 -1.8010 -0.6483
  300TIP3    H225096   0.416   4.482   0.592  0.8422  1.8810 -0.9492
  301TIP3   OH225097   1.711   5.995   3.487  0.2646 -0.2420 -0.4976
  301TIP3    H125098   1.746   5.991   3.576 -2.1369  0.0354  0.5288
  301TIP3    H225099   1.627   6.038   3.496  0.1065  0.1298 -2.9937
  302TIP3   OH225100   4.108   3.177   3.240  0.0856 -0.4715 -0.2623
  302TIP3    H125101   4.030   3.226   3.265 -0.9183 -1.7400 -0.7917
  302TIP3    H225102   4.181   3.234   3.264 -1.0230  1.5211 -1.4033
  303TIP3   OH225103   2.521   6.350   0.789  0.0909 -0.8281  0.6587
  303TIP3    H125104   2.472   6.373   0.710  0.2755 -1.0229  0.4866
  303TIP3    H225105   2.531   6.255   0.785 -1.1602 -1.0306  1.6547
  304TIP3   OH225106   4.546   0.438   0.542  0.4161  0.0219 -0.1459
  304TIP3    H125107   4.467   0.405   0.501  1.0491  0.1030 -1.4894
  304TIP3    H225108   4.524   0.527   0.569  0.7229  1.0040 -2.7798
  305TIP3   OH225109   0.597   0.249   1.037  0.6617  0.6536  0.0861
  305TIP3    H125110   0.586   0.190   1.111  0.9969  1.1617  0.5547
  305TIP3    H225111   0.689   0.240   1.012  1.1791  2.1803  1.2443
  306TIP3   OH225112   4.760   3.627   1.356 -0.8797  0.6495  0.2525
  306TIP3    H125113   4.814   3.548   1.350  0.5220  1.5224  0.7250
  306TIP3    H225114   4.762   3.651   1.448  1.8677  3.2488 -0.3209
  307TIP3   OH225115   5.121   5.549   3.806  0.0268 -0.3500  0.0191
  307TIP3    H125116   5.095   5.480   3.745 -0.3003  1.4720 -2.0046
  307TIP3    H225117   5.206   5.578   3.773  0.3082  0.0144  1.0446
  308TIP3   OH225118   1.944   6.400   3.553  0.1201 -0.4071  0.1378
  308TIP3    H125119   2.038   6.419   3.556 -0.1332  0.8515  1.9543
  308TIP3    H225120   1.935   6.334   3.485  2.2889 -0.3638 -0.2628
  309TIP3   OH225121   4.003   2.872   2.906 -0.4064  0.2633  0.1456
  309TIP3    H125122   4.064   2.907   2.970  0.7577 -1.0074 -0.2161
  309TIP3    H225123   3.978   2.786   2.941 -1.3663  0.4239 -0.1130
  310TIP3   OH225124   5.555   3.696   2.949 -0.1873 -0.0657 -0.0736
  310TIP3    H125125   5.598   3.754   2.885 -0.3093 -0.6112 -0.6655
  310TIP3    H225126   5.623   3.634   2.974 -0.6365 -1.0255 -1.1266
  311TIP3   OH225127   2.215   1.683   2.771  0.3499  0.3577 -0.2680
  311TIP3    H125128   2.278   1.641   2.713  0.5113 -0.1620  0.2798
  311TIP3    H225129   2.268   1.741   2.826  0.6437 -1.4576  1.4706
  312TIP3   OH225130   0.436   3.937   2.186  0.2489  0.3415  0.3045
  312TIP3    H125131   0.478   4.006   2.134  1.9448 -0.6165  0.3231
  312TIP3    H225132   0.378   3.893   2.123  0.2917  0.8279 -0.0901
  313TIP3   OH225133   4.959   3.842   1.271  0.0716 -0.2326  0.0105
  313TIP3    H125134   4.921   3.755   1.283  0.7628 -0.4753  0.5109
  313TIP3    H225135   5.053   3.827   1.262  0.2456  0.4867  0.4796
  314TIP3   OH225136   1.869   1.325   1.851 -0.6278 -0.0611 -0.6265
  314TIP3    H125137   1.916   1.391   1.901  0.5414 -0.8494 -0.6483
  314TIP3    H225138   1.915   1.243   1.870 -3.1023 -1.2316  0.8545
  315TIP3   OH225139   2.666   5.210   1.785 -0.5783 -0.6960  0.1475
  315TIP3    H125140   2.740   5.175   1.835 -0.5677 -1.3116 -0.2831
  315TIP3    H225141   2.670   5.163   1.701  1.2360  2.4261 -1.6743
  316TIP3   OH225142   3.472   4.336   0.935  0.1365 -0.5262 -0.5367
  316TIP3    H125143   3.533   4.263   0.940  0.1900 -0.5362 -1.2490
  316TIP3    H225144   3.452   4.356   1.026  0.4973 -1.1109 -0.3199
  317TIP3   OH225145   5.004   0.591   3.214  0.2004 -0.0546 -0.1857
  317TIP3    H125146   4.969   0.547   3.291  0.4444  0.5416  0.2775
  317TIP3    H225147   4.953   0.556   3.141 -0.5328 -0.0887  0.3331
  318TIP3   OH225148   0.500   5.551   4.127  0.2460  0.5971  0.4304
  318TIP3    H125149   0.586   5.549   4.085  0.4644 -1.8687  0.8853
  318TIP3    H225150   0.508   5.493   4.202 -1.3384  1.7103  1.5332
  319TIP3   OH225151   2.075   5.985   3.171 -0.1243 -0.5158 -0.2711
  319TIP3    H125152   2.083   5.982   3.075 -1.2466 -1.4144 -0.3590
  319TIP3    H225153   2.062   5.894   3.197  4.0950 -0.8840  1.1971
  320TIP3   OH225154   6.055   4.236   4.458  0.3412  0.2385 -0.0476
  320TIP3    H125155   5.971   4.244   4.504  0.6622 -0.0832  0.6077
  320TIP3    H225156   6.118   4.214   4.527  0.8179 -0.3475 -0.6605
  321TIP3   OH225157   1.661   4.012   2.750  0.3650 -0.5838 -0.4848
  321TIP3    H125158   1.653   4.018   2.655 -1.4339  0.3567 -0.3241
  321TIP3    H225159   1.692   4.098   2.777 -2.0518  0.2388 -0.0469
  322TIP3   OH225160   6.209   3.269   1.267  0.3904 -0.0871 -0.1260
  322TIP3    H125161   6.131   3.214   1.253  0.9827 -0.9198 -0.2579
  322TIP3    H225162   6.266   3.248   1.193  1.1167 -0.1662  0.4477
  323TIP3   OH225163   3.614   4.592  10.183  0.1597  0.8024  0.1642
  323TIP3    H125164   3.527   4.568  10.153 -0.4372  1.0739  1.6270
  323TIP3    H225165   3.668   4.591  10.103 -0.8531 -0.7222 -0.5456
  324TIP3   OH225166   4.555   0.031  11.459  0.3806  0.3067  0.2943
  324TIP3    H125167   4.509   0.027  11.375  0.8896  2.1368 -0.1297
  324TIP3    H225168   4.632  -0.024  11.447 -0.7519 -1.3494  0.4039
  325TIP3   OH225169   6.045   0.844  11.641  0.0590 -0.1708  0.4308
  325TIP3    H125170   5.954   0.871  11.647 -0.1772 -1.0758  1.1718
  325TIP3    H225171   6.056   0.780  11.711  0.8364 -1.2686 -0.6292
  326TIP3   OH225172   1.210   1.256  10.355 -0.6161 -0.3945 -0.2695
  326TIP3    H125173   1.243   1.169  10.336  0.0322 -0.2214  0.0476
  326TIP3    H225174   1.116   1.251  10.337 -0.8442 -1.5367  1.1114
  327TIP3   OH225175   1.258   5.509  12.227  0.2109 -0.2473 -0.1871
  327TIP3    H125176   1.173   5.552  12.224 -1.2337 -2.7142  1.8122
  327TIP3    H225177   1.271   5.475  12.138 -1.1986 -0.3786 -0.3527
  328TIP3   OH225178   3.622   6.124  11.820 -0.4873 -0.3042 -0.0969
  328TIP3    H125179   3.701   6.177  11.811  0.2973 -1.8138 -3.9174
  328TIP3    H225180   3.558   6.165  11.763 -1.1778 -1.2369 -0.0234
  329TIP3   OH225181   4.686   6.201  11.138  0.3284 -0.3160 -0.1317
  329TIP3    H125182   4.727   6.274  11.183 -0.6375 -1.0459  2.0469
  329TIP3    H225183   4.759   6.141  11.119  1.0081  0.8044 -1.2746
  330TIP3   OH225184   5.012   0.785  10.679  0.0315 -0.2932  0.1836
  330TIP3    H125185   4.936   0.840  10.661  0.0113 -0.2210  0.4802
  330TIP3    H225186   4.975   0.705  10.717  0.1279 -0.0842  0.7303
  331TIP3   OH225187   3.413   1.137  10.961  0.4380  0.3324  0.5710
  331TIP3    H125188   3.475   1.105  11.026 -0.3974  0.3942  1.4129
  331TIP3    H225189   3.430   1.230  10.955 -0.2990  0.5522  1.6291
  332TIP3   OH225190   1.901   2.714  10.228  0.4558  0.0461  0.3235
  332TIP3    H125191   1.863   2.719  10.316 -0.2737 -1.9927  0.1811
  332TIP3    H225192   1.944   2.628  10.226 -1.4703 -0.9890 -1.9936
  333TIP3   OH225193   0.892   1.219   9.431  0.6745  0.2285  0.1951
  333TIP3    H125194   0.808   1.241   9.471  0.6153 -0.3501  0.4053
  333TIP3    H225195   0.936   1.303   9.420  0.7289  0.4170  1.5783
  334TIP3   OH225196   5.740   1.476  10.557 -0.3331  0.1677 -0.2375
  334TIP3    H125197   5.669   1.501  10.615  0.0770  0.2516  0.2358
  334TIP3    H225198   5.727   1.382  10.541  0.8863 -0.4295  1.9138
  335TIP3   OH225199   6.323   1.344  11.261 -0.2350 -0.5075 -0.6575
  335TIP3    H125200   6.394   1.400  11.231  0.2798 -1.9351 -2.2061
  335TIP3    H225201   6.243   1.392  11.238  0.2004 -0.2722 -1.7251
  336TIP3   OH225202   2.016   1.838  10.847 -0.2402  0.5127  0.6617
  336TIP3    H125203   2.008   1.890  10.767  0.3912  1.2818  1.0731
  336TIP3    H225204   2.110   1.838  10.866 -0.4314  0.7597  1.6618
  337TIP3   OH225205   4.395   1.357   9.797 -0.4146 -0.1195 -0.2686
  337TIP3    H125206   4.484   1.377   9.826 -0.3147  1.2946 -1.4390
  337TIP3    H225207   4.340   1.374   9.873  0.1283  0.8829 -0.0897
  338TIP3   OH225208   1.438   2.348   8.949 -0.3251  0.1097  0.2472
  338TIP3    H125209   1.437   2.257   8.980  0.9988 -0.7530 -2.0127
  338TIP3    H225210   1.349   2.362   8.917 -0.2199 -0.8603 -0.5431
  339TIP3   OH225211   4.826   4.854   9.674 -0.1362  0.2596  0.7853
  339TIP3    H125212   4.824   4.907   9.754  0.0344  1.0636  0.2675
  339TIP3    H225213   4.915   4.865   9.640 -0.7138  1.3617 -0.4504
  340TIP3   OH225214   6.496   4.374   9.678  0.1342  1.0464  0.0516
  340TIP3    H125215   6.409   4.383   9.638 -0.5632 -1.8609  0.6992
  340TIP3    H225216   6.486   4.412   9.765 -0.0461  2.0196 -0.3785
  341TIP3   OH225217   4.778   0.846  12.716 -0.4750 -0.2402  0.2924
  341TIP3    H125218   4.858   0.861  12.766 -0.6357 -0.2713  0.5614
  341TIP3    H225219   4.795   0.766  12.667 -0.1010  0.1042 -0.1466
  342TIP3   OH225220   4.577   5.210   9.566 -0.6071 -0.2511 -0.8949
  342TIP3    H125221   4.591   5.138   9.505 -0.9873 -0.7671 -0.3846
  342TIP3    H225222   4.505   5.180   9.622 -1.1049  0.7220 -0.9862
  343TIP3   OH225223   4.690   3.030   9.099 -0.1366 -0.0972  0.6477
  343TIP3    H125224   4.696   3.122   9.127 -0.2472 -0.6611  2.7290
  343TIP3    H225225   4.660   3.035   9.008  1.6705  1.9554  0.0557
  344TIP3   OH225226   4.124   2.035   9.908  0.6858 -0.4360 -0.0465
  344TIP3    H125227   4.070   2.013   9.832  1.2096 -1.5298 -0.1133
  344TIP3    H225228   4.199   2.082   9.871  0.0222  0.6945  0.0028
  345TIP3   OH225229   6.574   2.470   9.956 -0.2438  0.0882 -0.0355
  345TIP3    H125230   6.486   2.447   9.986 -0.5951  2.8521  1.4431
  345TIP3    H225231   6.632   2.433  10.022 -0.6897  1.8861  1.4683
  346TIP3   OH225232   4.152   4.556   9.763  0.0247  0.4026 -0.4454
  346TIP3    H125233   4.194   4.619   9.822  0.3497 -0.3334  0.1253
  346TIP3    H225234   4.178   4.470   9.797 -2.9698 -0.1561  0.7692
  347TIP3   OH225235   2.339   5.352   9.463 -0.0771  0.5719 -0.0790
  347TIP3    H125236   2.324   5.351   9.558 -3.1611 -0.0196 -0.4547
  347TIP3    H225237   2.274   5.413   9.429  0.9816  0.7876 -1.8293
  348TIP3   OH225238   5.694   2.438  10.012 -0.1650 -0.2065 -0.0257
  348TIP3    H125239   5.750   2.510   9.983  0.4650 -0.0982  1.3765
  348TIP3    H225240   5.653   2.470  10.092  1.3032 -1.9128  1.4882
  349TIP3   OH225241   4.275   1.906  11.319  0.9616  0.3345 -0.0958
  349TIP3    H125242   4.244   1.933  11.406  2.4025 -0.7761  0.8069
  349TIP3    H225243   4.350   1.963  11.302  1.2712 -0.0950 -0.1765
  350TIP3   OH225244   6.462   2.567  11.650  0.3989  0.0959 -0.0229
  350TIP3    H125245   6.444   2.543  11.740 -1.1248 -0.2122 -0.3897
  350TIP3    H225246   6.424   2.496  11.598 -0.7612  1.3581 -0.9751
  351TIP3   OH225247   4.222   0.070  10.452 -0.2334  0.4790  0.0669
  351TIP3    H125248   4.279   0.147  10.453 -0.9132  0.9969 -0.2397
  351TIP3    H225249   4.194   0.060  10.543  1.0046 -0.2956  0.3886
  352TIP3   OH225250   2.713   1.596  10.617  0.5238  0.8490  0.0525
  352TIP3    H125251   2.784   1.534  10.629  0.7169  1.1219  0.3464
  352TIP3    H225252   2.643   1.563  10.673  0.8669  1.2620  0.7368
  353TIP3   OH225253   2.656   4.172  12.280 -0.2258 -0.7635 -0.0556
  353TIP3    H125254   2.741   4.204  12.312 -0.0910 -1.6608  0.5310
  353TIP3    H225255   2.592   4.228  12.324  0.0713  0.6910 -1.4017
  354TIP3   OH225256   0.964   3.882  10.503 -0.0200 -0.1287  0.0215
  354TIP3    H125257   1.034   3.879  10.568  0.3339  0.4830 -0.3275
  354TIP3    H225258   0.981   3.806  10.447 -0.9810 -1.3390  1.2766
  355TIP3   OH225259   4.255   4.113   9.601 -0.1134 -0.6459 -0.0654
  355TIP3    H125260   4.326   4.177   9.595 -0.6703  0.0122  0.2197
  355TIP3    H225261   4.289   4.046   9.661  0.5309 -0.6996 -0.4761
  356TIP3   OH225262   4.186   0.749  11.838  0.0465  0.5330  0.0894
  356TIP3    H125263   4.100   0.735  11.877 -0.5301 -1.7139 -1.7701
  356TIP3    H225264   4.237   0.672  11.861  0.7256  0.6683 -0.8846
  357TIP3   OH225265   4.791   3.321  11.654 -0.1759 -0.6819  0.6299
  357TIP3    H125266   4.746   3.387  11.706  0.9501 -0.0040  0.7743
  357TIP3    H225267   4.866   3.294  11.708  0.3971 -0.7582 -0.1764
  358TIP3   OH225268   3.029   0.062  11.020  0.1351  0.2297 -0.9389
  358TIP3    H125269   3.049   0.094  10.932  1.1215  0.7173 -0.5560
  358TIP3    H225270   2.983   0.135  11.062 -0.5251 -0.0811 -1.1096
  359TIP3   OH225271   5.000   1.546   9.982 -0.1781  0.5754  0.3867
  359TIP3    H125272   5.056   1.621  10.003  0.5448  0.3433 -0.6316
  359TIP3    H225273   5.024   1.523   9.892 -0.6262 -0.6763  0.5714
  360TIP3   OH225274   0.770   5.565   9.276  0.8550 -0.2069  0.2283
  360TIP3    H125275   0.832   5.552   9.204  2.1281  0.4351  1.1754
  360TIP3    H225276   0.717   5.486   9.277  1.4882 -0.6572 -0.7765
  361TIP3   OH225277   0.126   1.175  10.398  0.2223  0.0352 -0.1510
  361TIP3    H125278   0.211   1.204  10.430 -1.3596  3.3661  1.5022
  361TIP3    H225279   0.105   1.237  10.328 -1.2280 -0.1741  0.0760
  362TIP3   OH225280   0.104   6.221  10.879  0.3681 -0.1418  0.1969
  362TIP3    H125281   0.083   6.199  10.970  2.3355 -2.4540  0.1980
  362TIP3    H225282   0.167   6.292  10.885  1.4771 -1.1282  0.7806
  363TIP3   OH225283   4.748   4.543   9.081  0.1359  0.5885  0.1462
  363TIP3    H125284   4.843   4.549   9.078  0.1846  2.0367  2.2811
  363TIP3    H225285   4.726   4.551   9.174 -2.0553 -0.3012 -0.2283
  364TIP3   OH225286   1.916   2.165  11.597  0.0142 -0.2839  0.3252
  364TIP3    H125287   1.908   2.242  11.542  3.1883 -0.7043 -0.8972
  364TIP3    H225288   1.956   2.197  11.678 -0.3713 -0.4044  0.5701
  365TIP3   OH225289   4.263   2.996   9.096  0.0919 -0.0627  0.2433
  365TIP3    H125290   4.309   2.964   9.018 -0.7110  0.2192 -0.3661
  365TIP3    H225291   4.249   3.090   9.078 -2.7527 -0.5493 -0.7054
  366TIP3   OH225292   2.930   5.608   8.726  0.7829  0.6876  0.3046
  366TIP3    H125293   2.888   5.615   8.639  1.0340  1.4864  0.2406
  366TIP3    H225294   2.876   5.664   8.782  3.0499  3.7009 -0.2853
  367TIP3   OH225295   2.925   1.472  10.703 -0.2094 -0.4709  0.1701
  367TIP3    H125296   2.976   1.544  10.667 -0.3496  0.4715  1.7228
  367TIP3    H225297   2.928   1.486  10.798 -3.2359 -0.4085  0.3745
  368TIP3   OH225298   3.427   2.221   9.298  0.4752 -0.1341  0.7843
  368TIP3    H125299   3.346   2.209   9.248  0.3745 -1.2067  1.1674
  368TIP3    H225300   3.471   2.295   9.256 -0.4396  0.1007  0.2213
  369TIP3   OH225301   3.264   2.348   8.676 -0.5030  0.1295  0.6267
  369TIP3    H125302   3.185   2.349   8.731 -0.0484 -2.1939  1.4433
  369TIP3    H225303   3.250   2.274   8.617  0.3061  0.8092 -0.4428
  370TIP3   OH225304   3.991   2.779  10.433 -0.2854 -0.1146  0.2831
  370TIP3    H125305   4.014   2.827  10.512 -0.2318 -0.7957  0.6859
  370TIP3    H225306   3.936   2.707  10.464 -1.0874  0.1754 -0.4107
  371TIP3   OH225307   5.202   5.115   9.786 -0.0857 -0.4296  0.5570
  371TIP3    H125308   5.167   5.064   9.712 -1.8312  0.0780  0.9826
  371TIP3    H225309   5.166   5.203   9.774  3.5065  1.0392 -0.5905
  372TIP3   OH225310   1.846   5.745  11.552  0.1483 -0.5632 -0.5004
  372TIP3    H125311   1.874   5.671  11.606 -1.8474 -0.1800  1.1836
  372TIP3    H225312   1.918   5.807  11.558 -0.0705 -0.4538  1.9606
  373TIP3   OH225313   1.901   2.468   9.933  0.6036  0.0984  0.4611
  373TIP3    H125314   1.934   2.470  10.023 -1.0831  0.1306  1.1036
  373TIP3    H225315   1.807   2.484   9.941  0.3385 -0.3920 -1.2756
  374TIP3   OH225316   3.822   2.356   9.424 -0.6052 -0.0594 -0.5928
  374TIP3    H125317   3.801   2.264   9.442 -2.1195  0.5105  0.7581
  374TIP3    H225318   3.739   2.402   9.431  0.2756  1.5674 -0.2676
  375TIP3   OH225319   0.206   6.074  12.180  0.0395 -0.0836 -0.1903
  375TIP3    H125320   0.189   6.168  12.184  0.8408  0.0728  4.2308
  375TIP3    H225321   0.121   6.033  12.191 -0.3259  0.0090 -2.2256
  376TIP3   OH225322   2.121   4.038  10.733 -0.0151 -0.0464 -0.2725
  376TIP3    H125323   2.114   3.961  10.789 -0.9922  0.5582  0.4584
  376TIP3    H225324   2.039   4.041  10.684  0.6670 -0.3493 -1.4826
  377TIP3   OH225325   1.814   0.778  10.104 -0.0198  0.1551  0.1305
  377TIP3    H125326   1.906   0.767  10.079 -0.6675 -3.1398 -1.2776
  377TIP3    H225327   1.775   0.826  10.031 -0.1389 -1.9564 -1.2824
  378TIP3   OH225328   3.830   1.349   9.585  0.0935 -0.4175 -0.3745
  378TIP3    H125329   3.861   1.291   9.516 -0.8746 -2.7010  0.9789
  378TIP3    H225330   3.738   1.366   9.563 -0.4264 -1.7272  0.6213
  379TIP3   OH225331   1.106   0.059  10.091  0.0834 -0.2281  0.2490
  379TIP3    H125332   1.049   0.095  10.158 -0.9380  0.0901 -0.7545
  379TIP3    H225333   1.171   0.127  10.075 -0.3013  0.1315  0.1826
  380TIP3   OH225334   5.871   5.696  11.099  0.0016 -0.0047  0.9170
  380TIP3    H125335   5.876   5.689  11.003 -1.0685  2.4946  0.6033
  380TIP3    H225336   5.810   5.627  11.125 -0.8080  0.1899 -0.3750
  381TIP3   OH225337   4.324   0.090  12.427 -0.1065  0.7999  0.1411
  381TIP3    H125338   4.251   0.048  12.472 -0.1164  1.0991  0.4064
  381TIP3    H225339   4.282   0.144  12.360 -0.1116  0.6967  0.0611
  382TIP3   OH225340   2.349   1.746   8.425 -0.0142 -0.2431  0.4126
  382TIP3    H125341   2.314   1.696   8.352  0.4640 -0.7024  0.4906
  382TIP3    H225342   2.444   1.742   8.414  0.0252  0.9609  0.2178
  383TIP3   OH225343   1.667   3.850  12.571 -0.8276 -0.4627  0.1263
  383TIP3    H125344   1.592   3.901  12.540 -0.7066 -0.0756  0.4629
  383TIP3    H225345   1.628   3.784  12.630 -1.0702 -1.2801 -0.9223
  384TIP3   OH225346   6.555   3.993  12.322  0.1865 -0.0284  0.7393
  384TIP3    H125347   6.607   4.056  12.371  1.6113  0.1473 -0.9253
  384TIP3    H225348   6.614   3.918  12.309 -0.4318 -0.4017  0.0117
  385TIP3   OH225349   0.257   1.524  10.810  0.3092  0.0291  0.6150
  385TIP3    H125350   0.232   1.435  10.785 -2.4897  0.3335  1.9034
  385TIP3    H225351   0.314   1.554  10.740 -0.2446 -2.0989 -0.8330
  386TIP3   OH225352   5.064   2.856  11.579 -0.4146 -0.2344 -0.4478
  386TIP3    H125353   5.001   2.841  11.650 -1.6670 -1.2531 -1.6992
  386TIP3    H225354   5.036   2.938  11.539  0.5834  0.5892  0.5017
  387TIP3   OH225355   5.525   5.126  10.291  0.1405 -0.2356 -0.2742
  387TIP3    H125356   5.479   5.202  10.256 -0.1617 -0.7122 -0.9323
  387TIP3    H225357   5.482   5.051  10.250 -0.0911 -0.8093  0.9634
  388TIP3   OH225358   6.241   4.396  12.042  0.5127 -0.4800 -0.0057
  388TIP3    H125359   6.165   4.455  12.049 -0.1112 -1.1005 -1.1890
  388TIP3    H225360   6.305   4.433  12.103  0.3561  1.7742 -1.0672
  389TIP3   OH225361   2.409   0.063   9.697  0.0273 -0.0702  0.0289
  389TIP3    H125362   2.319   0.060   9.731  0.4144  0.0462  1.1114
  389TIP3    H225363   2.415   0.148   9.653  0.1081  0.7322  1.5001
  390TIP3   OH225364   1.102   5.152   9.305 -0.1723 -0.3613  0.2042
  390TIP3    H125365   1.017   5.173   9.343  0.1734  0.3292  0.6300
  390TIP3    H225366   1.083   5.088   9.238 -1.0308 -0.2307  0.3055
  391TIP3   OH225367   2.539   3.223   9.128 -0.3546  0.1560 -0.3108
  391TIP3    H125368   2.561   3.208   9.220  1.1995 -0.7010 -0.7758
  391TIP3    H225369   2.478   3.153   9.106 -1.2266  0.7271  0.1947
  392TIP3   OH225370   3.567   6.500  11.789 -0.0742  0.2072 -0.0177
  392TIP3    H125371   3.610   6.414  11.784  0.0937  0.2839  0.1123
  392TIP3    H225372   3.636   6.562  11.767 -0.3488  0.2720 -0.7524
  393TIP3   OH225373   3.244   6.295  11.369 -0.0754 -0.1716  0.1858
  393TIP3    H125374   3.158   6.281  11.329 -0.8926 -0.2610  1.9168
  393TIP3    H225375   3.226   6.311  11.461  1.6646  1.3862  0.3162
  394TIP3   OH225376   5.082   4.897   9.629 -0.0174  0.4302  0.2298
  394TIP3    H125377   5.152   4.831   9.631  0.4931  0.9502  2.0966
  394TIP3    H225378   5.085   4.932   9.540  1.6054 -0.0981  0.0340
  395TIP3   OH225379   3.552   2.271   8.321 -0.3349  0.0860 -0.8430
  395TIP3    H125380   3.554   2.347   8.263  0.1592  1.0215  0.3418
  395TIP3    H225381   3.533   2.308   8.407  0.2458 -1.0949 -0.1815
  396TIP3   OH225382   2.273   2.410  10.319 -0.2165  0.6678 -0.0580
  396TIP3    H125383   2.285   2.416  10.414 -0.6917 -1.2148  0.1639
  396TIP3    H225384   2.360   2.423  10.283 -0.2895  3.1807  0.4801
  397TIP3   OH225385   3.491   6.250   9.488  0.3485  0.0921  0.5229
  397TIP3    H125386   3.520   6.182   9.548  0.1506  0.4670  1.0440
  397TIP3    H225387   3.554   6.247   9.416  0.5815 -0.3595  0.7466
  398TIP3   OH225388   2.642   2.922  10.812 -0.4987 -0.5255  0.3579
  398TIP3    H125389   2.651   2.946  10.904  1.6934 -0.4668  0.1784
  398TIP3    H225390   2.703   2.850  10.800 -2.0624 -1.7505 -0.6754
  399TIP3   OH225391   1.188   6.012  11.363  0.1625 -0.2677  0.1757
  399TIP3    H125392   1.216   5.951  11.431  0.8082 -0.5744 -0.3549
  399TIP3    H225393   1.186   6.097  11.407 -0.1157 -0.5659  0.7579
  400TIP3   OH225394   2.717   3.838  12.404  0.7276  0.0289 -0.0325
  400TIP3    H125395   2.641   3.897  12.409  1.3757  0.8707  0.1686
  400TIP3    H225396   2.755   3.856  12.318  1.3665  0.4608  0.3345
  401TIP3   OH225397   5.271   4.428  11.747 -0.2004  0.4206  0.2875
  401TIP3    H125398   5.302   4.339  11.729  0.0759  0.8541 -1.6631
  401TIP3    H225399   5.292   4.477  11.667  0.0421  2.3499  1.4702
  402TIP3   OH225400   5.944   5.585   9.899 -0.6914  0.4963  0.4804
  402TIP3    H125401   5.911   5.593   9.809 -0.7170 -0.1919  0.4230
  402TIP3    H225402   5.879   5.532   9.944  0.5150 -1.2585  0.2536
  403TIP3   OH225403   0.573   2.300  11.509  0.1409 -0.3924  0.0288
  403TIP3    H125404   0.532   2.255  11.583 -0.7245 -1.6086 -1.1519
  403TIP3    H225405   0.513   2.372  11.488  0.9656  0.6990  1.1922
  404TIP3   OH225406   6.505   5.330  10.796 -0.2649 -0.7286 -0.0661
  404TIP3    H125407   6.600   5.340  10.790 -0.2380  0.0613  1.2247
  404TIP3    H225408   6.488   5.241  10.766  0.6781 -0.3476 -1.9329
  405TIP3   OH225409   6.535   4.030  11.374 -0.0144 -0.3043 -0.3484
  405TIP3    H125410   6.483   4.045  11.296 -0.3676  1.7863  0.2035
  405TIP3    H225411   6.547   4.118  11.412 -0.3218 -1.2693  2.2157
  406TIP3   OH225412   0.890   4.305  10.053 -0.2024  0.6418  0.1932
  406TIP3    H125413   0.916   4.255   9.976  1.8953  0.8123  0.7294
  406TIP3    H225414   0.909   4.248  10.127 -1.6424  0.7032  0.6303
  407TIP3   OH225415   4.919   3.286  11.341  0.2623  0.0230 -0.4304
  407TIP3    H125416   4.894   3.344  11.269  1.4325 -0.0028 -0.8794
  407TIP3    H225417   4.910   3.198  11.304 -0.7111 -0.0668 -0.0122
  408TIP3   OH225418   3.984   1.029  11.560  0.5763  0.3289 -0.1289
  408TIP3    H125419   3.915   1.047  11.496  0.9180  0.6293 -0.4177
  408TIP3    H225420   4.045   0.973  11.513  1.5395  1.6715 -0.5393
  409TIP3   OH225421   3.873   5.315  11.891 -0.2977  0.4661 -0.0640
  409TIP3    H125422   3.836   5.236  11.930 -0.5293  0.3684 -0.4772
  409TIP3    H225423   3.831   5.387  11.938  0.3353  0.3477  0.7054
  410TIP3   OH225424   0.042   2.808   9.713  0.2423 -0.0664 -0.0488
  410TIP3    H125425   0.090   2.882   9.749 -0.7546 -0.1838  1.6191
  410TIP3    H225426   0.032   2.829   9.620  1.0682  1.2630  0.1319
  411TIP3   OH225427   5.847   1.761  11.548 -0.4546 -0.0368 -0.5169
  411TIP3    H125428   5.923   1.736  11.601  0.6993  1.0166 -1.6030
  411TIP3    H225429   5.776   1.768  11.611  0.3206 -1.1222  0.5283
  412TIP3   OH225430   5.432   5.160   9.946  0.3609  0.6462  0.5814
  412TIP3    H125431   5.437   5.080   9.998  1.3838  0.3891  0.1095
  412TIP3    H225432   5.348   5.155   9.901  0.6037 -0.3655  0.2323
  413TIP3   OH225433   4.894   4.533   9.482 -0.4144 -0.1644  0.1017
  413TIP3    H125434   4.916   4.551   9.390 -1.1787  0.9649  0.1279
  413TIP3    H225435   4.814   4.481   9.477 -0.3414 -0.2807  0.1313
  414TIP3   OH225436   3.130   5.222  10.814  0.5754 -0.3164 -0.2222
  414TIP3    H125437   3.042   5.255  10.794  1.2119  1.7036  0.1567
  414TIP3    H225438   3.166   5.197  10.729  0.3662  0.7560 -0.6412
  415TIP3   OH225439   3.706   5.602   8.940 -0.2873  0.7141  0.2211
  415TIP3    H125440   3.757   5.586   8.860  1.6598 -2.2453  1.8883
  415TIP3    H225441   3.771   5.599   9.011 -2.2801  0.6398  2.1476
  416TIP3   OH225442   5.686   3.133  11.118  0.4247 -0.5145 -0.2275
  416TIP3    H125443   5.698   3.045  11.084  0.7580 -1.0300  1.1406
  416TIP3    H225444   5.735   3.134  11.201 -1.2251  0.2984  0.7980
  417TIP3   OH225445   1.036   5.730   9.366 -0.0695  0.3097  0.2567
  417TIP3    H125446   1.049   5.635   9.357 -0.3171  0.3456 -0.6247
  417TIP3    H225447   1.083   5.753   9.445 -0.5926 -0.6671  0.8843
  418TIP3   OH225448   3.046   3.277  10.556  0.2054 -0.0610 -0.2068
  418TIP3    H125449   3.116   3.296  10.618  0.2206 -0.4197 -0.1164
  418TIP3    H225450   3.020   3.363  10.523  0.6225  0.0802 -0.1716
  419TIP3   OH225451   6.332   0.931  11.209  0.2578 -0.5645 -0.5093
  419TIP3    H125452   6.378   0.976  11.279 -0.6506  0.2657 -0.4327
  419TIP3    H225453   6.356   0.978  11.129  1.0496 -1.3205 -0.7390
  420TIP3   OH225454   0.559   2.598   9.628 -0.5142  0.1429 -0.3226
  420TIP3    H125455   0.470   2.628   9.610 -0.2645 -0.2572 -2.4942
  420TIP3    H225456   0.595   2.665   9.687 -2.2792  0.1945  0.7841
  421TIP3   OH225457   0.821   6.346  12.359 -0.3875  0.0047 -0.2118
  421TIP3    H125458   0.746   6.404  12.352 -0.6886 -0.3321  0.1575
  421TIP3    H225459   0.818   6.292  12.280 -0.5626 -0.0433 -0.1712
  422TIP3   OH225460   0.888   0.028  12.192  0.2257 -0.3811 -0.1119
  422TIP3    H125461   0.912  -0.015  12.274  0.9459  1.9346  0.9842
  422TIP3    H225462   0.969   0.071  12.163 -0.6486  0.9826 -0.6266
  423TIP3   OH225463   0.075   4.970  10.213 -0.2323 -0.6438  0.0299
  423TIP3    H125464   0.116   4.972  10.299 -0.7711  0.8090  0.2829
  423TIP3    H225465   0.138   5.012  10.155 -0.9284  0.7765  0.2493
  424TIP3   OH225466   5.533   2.505   8.631  0.7035  0.3182 -0.1581
  424TIP3    H125467   5.557   2.564   8.702  0.4808 -0.4099  0.5274
  424TIP3    H225468   5.457   2.457   8.664  0.9761 -0.4691 -0.6467
  425TIP3   OH225469   4.747   3.641  10.912  0.0286 -0.3197  0.2564
  425TIP3    H125470   4.691   3.705  10.868  0.8320 -0.3626 -0.9019
  425TIP3    H225471   4.784   3.689  10.986  2.3903  1.4211 -1.8367
  426TIP3   OH225472   0.073   4.287   8.556  0.1726 -0.4069  0.1786
  426TIP3    H125473   0.017   4.364   8.550  1.3393  0.4094 -0.9998
  426TIP3    H225474   0.137   4.309   8.624 -0.4934 -1.0427  1.0247
  427TIP3   OH225475   5.693   6.211  10.015 -0.7042 -0.5274 -0.4018
  427TIP3    H125476   5.713   6.219  10.109 -3.9094 -1.3127  0.4891
  427TIP3    H225477   5.756   6.147   9.982 -0.5192 -1.4701  1.6190
  428TIP3   OH225478   0.661   3.983  10.315  0.4880 -0.4420  0.3654
  428TIP3    H125479   0.603   3.985  10.239 -0.2100 -0.5314  0.8897
  428TIP3    H225480   0.702   3.896  10.312 -0.5510 -0.9545  0.8413
  429TIP3   OH225481   2.308   5.136  12.148  0.6435  0.2018  0.3748
  429TIP3    H125482   2.302   5.065  12.211  1.2398 -0.6293 -0.4647
  429TIP3    H225483   2.221   5.175  12.147  0.2440 -0.6484  0.7135
  430TIP3   OH225484   3.342   5.130   9.872  0.6392  0.1627 -0.1290
  430TIP3    H125485   3.304   5.103   9.955 -1.5355  1.7917 -0.5021
  430TIP3    H225486   3.321   5.223   9.864  0.6432  0.0382 -2.5604
  431TIP3   OH225487   0.556   0.497  11.377 -0.7532  0.6200  0.9539
  431TIP3    H125488   0.585   0.479  11.466 -0.1814  1.6753  1.0012
  431TIP3    H225489   0.540   0.592  11.375 -0.2068  0.7145 -0.2130
  432TIP3   OH225490   4.811   5.815   8.769 -0.6269 -0.1118 -0.0683
  432TIP3    H125491   4.901   5.813   8.799 -0.2268  0.6410 -1.1662
  432TIP3    H225492   4.763   5.860   8.839  0.4877  2.6280 -0.9459
  433TIP3   OH225493   2.350   1.624  10.709 -0.3378 -0.0511 -0.4886
  433TIP3    H125494   2.421   1.685  10.729 -0.4937  0.1408 -0.5097
  433TIP3    H225495   2.387   1.537  10.724  0.1608  0.0067 -1.3062
  434TIP3   OH225496   4.715   3.189  10.197 -0.2398 -0.1909 -0.5319
  434TIP3    H125497   4.691   3.261  10.256 -1.2938 -1.3861  0.5578
  434TIP3    H225498   4.674   3.211  10.114  0.4741  1.0628 -0.5730
  435TIP3   OH225499   3.796   1.826   9.525 -0.1773  0.3152  0.5531
  435TIP3    H125500   3.711   1.795   9.496  0.3836  0.8933 -1.9364
  435TIP3    H225501   3.859   1.776   9.473  0.8738  2.2394 -0.1292
  436TIP3   OH225502   0.713   5.688  11.790 -0.2434 -0.2168 -0.2533
  436TIP3    H125503   0.629   5.688  11.836  0.0734 -0.1496  0.3358
  436TIP3    H225504   0.768   5.749  11.840 -0.4466  1.2864 -1.7755
  437TIP3   OH225505   0.101   5.121  11.854  0.6862 -0.1053 -0.0639
  437TIP3    H125506   0.147   5.094  11.774  0.6201  2.0074 -0.8660
  437TIP3    H225507   0.029   5.058  11.862 -0.2611  0.5189 -2.5895
  438TIP3   OH225508   0.753   4.619  10.266 -0.4807  0.4099  0.1323
  438TIP3    H125509   0.709   4.612  10.351  0.0926  2.4970  0.6592
  438TIP3    H225510   0.699   4.680  10.216  0.3755  0.9386 -0.1707
  439TIP3   OH225511   4.004   3.632  11.308 -0.3607  0.1681 -0.1922
  439TIP3    H125512   4.011   3.724  11.334  2.3321 -0.3212  1.1926
  439TIP3    H225513   4.058   3.625  11.229 -0.6258 -0.2028 -0.3424
  440TIP3   OH225514   3.819   6.521   8.951  0.0181  0.3797  0.2118
  440TIP3    H125515   3.822   6.443   8.896  1.0467  0.8100 -0.3867
  440TIP3    H225516   3.905   6.524   8.992 -0.0533  1.1304  0.3188
  441TIP3   OH225517   2.096   1.174  12.170  0.0256 -0.5542  0.1529
  441TIP3    H125518   2.109   1.228  12.092  0.3664 -0.6002  0.1778
  441TIP3    H225519   2.106   1.084  12.139  1.2007 -0.5383  0.4414
  442TIP3   OH225520   4.568   2.673   9.059  0.0643 -0.2024  0.6510
  442TIP3    H125521   4.531   2.728   9.128 -1.0427 -0.1143  0.0147
  442TIP3    H225522   4.568   2.730   8.982 -0.1070 -0.7690  0.2316
  443TIP3   OH225523   3.805   6.207   9.718 -0.2046  0.3934  0.1065
  443TIP3    H125524   3.738   6.179   9.656 -1.4062 -1.6030  2.1432
  443TIP3    H225525   3.836   6.126   9.758  1.5309  1.4992  1.1025
  444TIP3   OH225526   0.316   0.433  12.093  0.4116  0.1946 -0.0660
  444TIP3    H125527   0.222   0.443  12.108 -0.1287 -0.3592 -2.5221
  444TIP3    H225528   0.355   0.511  12.131 -0.7429 -0.5253  2.8412
  445TIP3   OH225529   5.518   1.263  11.755 -0.5580 -0.6800 -0.8371
  445TIP3    H125530   5.473   1.237  11.674 -2.3660  0.0382 -0.1000
  445TIP3    H225531   5.461   1.234  11.825 -1.4533  2.7792  0.0935
  446TIP3   OH225532   1.432   1.170   6.737 -0.1939  0.2039  0.1055
  446TIP3    H125533   1.345   1.139   6.760 -0.0136  0.8365  1.7967
  446TIP3    H225534   1.491   1.101   6.767 -0.1413 -1.1839 -2.8554
  447TIP3   OH225535   5.660   2.979  12.240  0.1985  0.4042  1.0046
  447TIP3    H125536   5.705   3.058  12.209 -0.7105  0.5528  0.0019
  447TIP3    H225537   5.729   2.927  12.282  0.8279  1.6935  1.6191
  448TIP3   OH225538   4.151   3.972  10.398 -0.3700  0.4372  0.0197
  448TIP3    H125539   4.243   3.957  10.376 -0.8492 -1.2616 -1.0206
  448TIP3    H225540   4.105   3.897  10.361 -1.9068 -0.0375  2.6112
  449TIP3   OH225541   4.319   2.866   9.887  0.2879  0.8655 -0.1531
  449TIP3    H125542   4.374   2.942   9.905  0.8295  0.4737 -0.1217
  449TIP3    H225543   4.359   2.824   9.811  0.7529 -0.0837  0.5814
  450TIP3   OH225544   1.109   1.719  11.449  0.2904 -0.3496 -0.2996
  450TIP3    H125545   1.180   1.770  11.411  0.4272 -0.1981  0.1532
  450TIP3    H225546   1.037   1.727  11.387 -0.1455  1.4997  0.4095
  451TIP3   OH225547   4.713   6.437  10.203  0.1411  0.2192  0.6245
  451TIP3    H125548   4.737   6.417  10.294  1.4797  2.1367  0.7559
  451TIP3    H225549   4.773   6.507  10.177  1.4064 -1.8473 -2.5679
  452TIP3   OH225550   4.493   1.973  10.491  0.2276 -0.3785 -0.2489
  452TIP3    H125551   4.556   1.919  10.443  3.1016  0.5051  2.1970
  452TIP3    H225552   4.495   2.058  10.446  2.0797  0.1169  0.6529
  453TIP3   OH225553   3.461   5.127   9.248 -0.0917  0.0085 -0.1522
  453TIP3    H125554   3.546   5.091   9.224  0.6906  1.3904  0.3736
  453TIP3    H225555   3.444   5.195   9.183 -1.2444 -0.8483 -0.7801
  454TIP3   OH225556   0.406   3.110  10.562 -0.2587  0.6649  0.3539
  454TIP3    H125557   0.439   3.057  10.490 -0.6683  0.7645  0.0874
  454TIP3    H225558   0.470   3.181  10.571 -0.3766  0.8408 -0.1377
  455TIP3   OH225559   3.638   1.829   9.814 -0.2205 -0.2228  0.3724
  455TIP3    H125560   3.574   1.900   9.819  0.1389  0.0548  1.1018
  455TIP3    H225561   3.661   1.810   9.905  0.1370 -0.8672  0.1565
  456TIP3   OH225562   4.193   5.935  11.341 -0.9285 -0.2632 -0.3849
  456TIP3    H125563   4.266   5.993  11.318 -0.3199 -1.2932 -1.1114
  456TIP3    H225564   4.160   5.970  11.424 -0.2486  0.8148 -0.5537
  457TIP3   OH225565   0.227   3.793  11.854  0.2513  0.2361  0.7308
  457TIP3    H125566   0.249   3.854  11.784  1.4715  0.4267  1.2625
  457TIP3    H225567   0.164   3.733  11.814 -0.8872  1.7485  0.1776
  458TIP3   OH225568   0.050   2.545  10.426  0.6043  0.4421 -0.6530
  458TIP3    H125569  -0.024   2.605  10.433  0.3634  0.1190 -0.3940
  458TIP3    H225570   0.105   2.582  10.357  0.7564  1.2736 -0.0998
  459TIP3   OH225571   1.509   4.024  12.232  0.5426  0.0282 -0.2238
  459TIP3    H125572   1.524   3.931  12.216 -1.4380 -0.5070  0.6594
  459TIP3    H225573   1.547   4.040  12.318 -3.5389 -1.3921  2.1607
  460TIP3   OH225574   0.982   6.452  10.040  0.3658  0.3757 -0.2180
  460TIP3    H125575   1.045   6.525  10.047 -0.2627  1.0560 -1.4607
  460TIP3    H225576   0.910   6.477  10.098  0.6415  0.1910  0.2187
  461TIP3   OH225577   3.194   0.181   9.390 -0.1822  0.4093  0.1556
  461TIP3    H125578   3.124   0.243   9.410  0.6823  1.7991 -0.8933
  461TIP3    H225579   3.271   0.216   9.436  0.1400 -0.3390  0.2077
  462TIP3   OH225580   1.602   4.439  12.293  0.3025  0.0657 -0.8039
  462TIP3    H125581   1.666   4.369  12.277  0.3993  0.6443 -3.3453
  462TIP3    H225582   1.517   4.395  12.286  0.3191 -0.5430  1.7806
  463TIP3   OH225583   3.285   3.635  10.874  0.1872 -0.3792  0.3968
  463TIP3    H125584   3.314   3.608  10.787  0.3694 -1.4592  0.7841
  463TIP3    H225585   3.352   3.697  10.903  0.3674 -0.3651 -0.0374
  464TIP3   OH225586   2.455   0.125  11.539  0.2921 -0.0593 -0.0802
  464TIP3    H125587   2.413   0.211  11.542 -0.1078 -0.2805  1.0264
  464TIP3    H225588   2.417   0.082  11.463 -1.3356 -0.1651  0.7572
  465TIP3   OH225589   2.913   4.935  12.007  0.2883 -0.0540 -0.2569
  465TIP3    H125590   2.826   4.937  11.967  0.7302  2.2693 -1.2807
  465TIP3    H225591   2.972   4.917  11.934  0.8972  1.7515 -0.2590
  466TIP3   OH225592   6.218   2.777  11.663 -0.5684 -0.1013  0.2912
  466TIP3    H125593   6.289   2.820  11.710  1.1216 -0.7838 -1.4801
  466TIP3    H225594   6.228   2.684  11.685 -0.4530 -0.2875 -0.5098
  467TIP3   OH225595   1.652   2.475   9.219 -0.0881 -0.0973  0.5252
  467TIP3    H125596   1.688   2.557   9.252 -2.3741  1.9635 -1.6592
  467TIP3    H225597   1.596   2.443   9.289  0.0864  0.7225  1.0495
  468TIP3   OH225598   5.819   4.523  10.213 -0.3910 -0.3271  0.6305
  468TIP3    H125599   5.825   4.609  10.256 -1.6277 -0.3850  0.9545
  468TIP3    H225600   5.751   4.535  10.147 -0.5630 -1.0586  0.6745
  469TIP3   OH225601   5.477   3.192   9.909  0.4943  0.5039 -0.6547
  469TIP3    H125602   5.507   3.256   9.845 -1.3191  1.0379 -1.0289
  469TIP3    H225603   5.492   3.234   9.994 -1.6130  1.9232 -0.9244
  470TIP3   OH225604   0.878   3.281  12.026  0.0776  0.0599  0.4122
  470TIP3    H125605   0.893   3.358  11.972 -1.4892  1.9446  2.4623
  470TIP3    H225606   0.964   3.259  12.061  0.4975  1.1742  0.1258
  471TIP3   OH225607   0.453   1.167  12.168  0.2353  0.1904 -0.0167
  471TIP3    H125608   0.422   1.190  12.081  0.4186  0.5256  0.0047
  471TIP3    H225609   0.454   1.250  12.216 -0.0036 -0.0102  0.3499
  472TIP3   OH225610   2.707   0.809  12.511 -0.2559  0.1699 -0.4112
  472TIP3    H125611   2.616   0.782  12.506 -0.1378 -0.7061  1.5566
  472TIP3    H225612   2.703   0.904  12.521 -0.9693  0.1115 -0.0797
  473TIP3   OH225613   2.838   4.880  10.771 -0.1751  0.4160  0.3465
  473TIP3    H125614   2.767   4.844  10.718  0.5713 -1.4672  0.5266
  473TIP3    H225615   2.918   4.854  10.725  0.4833 -1.0185  2.1526
  474TIP3   OH225616   5.058   3.105   9.393  0.6254  0.7558 -0.2431
  474TIP3    H125617   5.146   3.133   9.416 -0.3752  3.5632  0.6035
  474TIP3    H225618   5.037   3.155   9.315 -0.3962  0.5123 -0.1368
  475TIP3   OH225619   0.140   2.636  11.502  0.3134 -0.4821 -1.1956
  475TIP3    H125620   0.144   2.694  11.579 -0.4810 -2.3060  0.3041
  475TIP3    H225621   0.048   2.634  11.478  0.4685 -0.4442 -1.8093
  476TIP3   OH225622   1.499   0.289  10.506 -0.0081 -0.2599  0.0673
  476TIP3    H125623   1.484   0.243  10.589 -1.7758  0.9003  0.4358
  476TIP3    H225624   1.464   0.230  10.440 -0.5669 -0.2579  0.3571
  477TIP3   OH225625   1.539   0.276  11.405  0.2046  0.3058  0.3780
  477TIP3    H125626   1.524   0.276  11.500 -0.4148 -1.0664  0.3086
  477TIP3    H225627   1.547   0.183  11.383  1.2385  0.6568 -0.7926
  478TIP3   OH225628   3.228   6.098  11.763 -0.4256  0.6052  0.4029
  478TIP3    H125629   3.268   6.015  11.736 -0.9612 -0.0219  1.4676
  478TIP3    H225630   3.290   6.165  11.735 -1.3093  0.1491 -3.1927
  479TIP3   OH225631   3.527   2.447  10.343  0.0381  0.0041 -0.2340
  479TIP3    H125632   3.519   2.463  10.437 -1.9639  0.4871 -0.4440
  479TIP3    H225633   3.442   2.471  10.307  0.9796  0.5196 -2.2823
  480TIP3   OH225634   3.342   3.532  11.213 -0.3799  0.0829  0.2748
  480TIP3    H125635   3.283   3.457  11.212 -0.2279 -0.0436  0.5383
  480TIP3    H225636   3.416   3.505  11.157  0.0244 -0.2566  0.9633
  481TIP3   OH225637   3.922   4.344  11.033  0.6135 -0.2623 -0.0666
  481TIP3    H125638   3.978   4.271  11.006  1.6053  0.7198 -0.7576
  481TIP3    H225639   3.852   4.346  10.968  1.1548  0.0187 -0.6589
  482TIP3   OH225640   1.430   3.814  10.350 -0.0197  0.8217 -0.1320
  482TIP3    H125641   1.390   3.889  10.394 -1.9532  0.2861 -0.8328
  482TIP3    H225642   1.393   3.737  10.394  1.8216  0.2335  0.4847
  483TIP3   OH225643   3.672   6.448   9.708 -0.1450 -0.1204  0.3644
  483TIP3    H125644   3.725   6.501   9.648 -2.9195 -0.6670 -2.9042
  483TIP3    H225645   3.723   6.367   9.718  0.6453  0.1730 -0.9272
  484TIP3   OH225646   6.602   3.904  10.070  0.4428 -0.2388  0.8482
  484TIP3    H125647   6.550   3.916  10.150 -1.7291 -2.6573 -0.0673
  484TIP3    H225648   6.594   3.987  10.024 -0.9152  0.1484  1.7177
  485TIP3   OH225649   1.203   0.697  10.000 -1.0556 -0.0415 -0.0368
  485TIP3    H125650   1.165   0.696  10.088 -0.8668 -2.4144  0.0837
  485TIP3    H225651   1.157   0.628   9.953 -0.3645  0.4317 -1.4580
  486TIP3   OH225652   1.754   5.282   9.541  0.1474  0.4567 -0.0682
  486TIP3    H125653   1.791   5.276   9.453 -0.1950 -0.0528 -0.1873
  486TIP3    H225654   1.664   5.313   9.526  0.3324  1.1195  0.1671
  487TIP3   OH225655   6.509   4.535   9.889  0.2351  0.1740  0.1379
  487TIP3    H125656   6.441   4.559   9.953  0.0200 -2.8563  1.2254
  487TIP3    H225657   6.577   4.601   9.901 -1.4021  1.8438  0.8240
  488TIP3   OH225658   6.426   0.751  11.500  0.1800  0.9396 -0.2958
  488TIP3    H125659   6.454   0.836  11.464 -0.2500  1.1647 -0.1049
  488TIP3    H225660   6.331   0.751  11.491  0.1886  0.4050 -0.4428
  489TIP3   OH225661   0.417   3.717   8.722  0.1922 -0.7224  0.3546
  489TIP3    H125662   0.507   3.731   8.752 -0.2907  1.1352  1.0243
  489TIP3    H225663   0.423   3.638   8.668  2.2695 -0.5124  0.1779
  490TIP3   OH225664   0.767   0.564  12.745  0.0256 -0.2097  0.2362
  490TIP3    H125665   0.717   0.486  12.722  0.1309 -0.0744 -0.5039
  490TIP3    H225666   0.827   0.577  12.671 -2.0382  2.2918 -1.1635
  491TIP3   OH225667   6.120   3.789  10.337  0.0726 -0.3636 -0.0487
  491TIP3    H125668   6.112   3.874  10.379 -0.2063 -0.8797  0.9539
  491TIP3    H225669   6.064   3.796  10.259 -0.1735  0.2676  0.1769
  492TIP3   OH225670   2.007   3.782  10.575  0.2327  0.0282  0.1852
  492TIP3    H125671   1.943   3.853  10.576  1.3658  1.0804 -0.3205
  492TIP3    H225672   1.979   3.723  10.645 -0.1220  1.5138  1.3416
  493TIP3   OH225673   1.264   1.084  11.335 -0.1451 -0.0118 -0.2879
  493TIP3    H125674   1.293   1.124  11.253  0.4168  0.5566  0.1792
  493TIP3    H225675   1.224   1.156  11.384 -0.7603 -0.4150 -0.1858
  494TIP3   OH225676   4.594   0.657  10.801  0.1757 -0.0234  0.0353
  494TIP3    H125677   4.520   0.640  10.859 -0.3330  0.1619 -0.5432
  494TIP3    H225678   4.657   0.704  10.856 -0.6821  0.9714  0.2084
  495TIP3   OH225679   3.106   2.854   9.546 -0.0503  0.2482  0.1746
  495TIP3    H125680   3.182   2.907   9.566 -1.1975  1.6515  0.9728
  495TIP3    H225681   3.049   2.911   9.493 -1.6080  0.1095  1.6210
  496TIP3   OH225682   6.500   1.804  11.950 -0.1861  0.2863 -0.3941
  496TIP3    H125683   6.568   1.751  11.991 -0.4243  0.6504  0.4913
  496TIP3    H225684   6.545   1.882  11.920 -0.1197  0.2837 -0.2988
  497TIP3   OH225685   3.652   0.080  10.259  0.2203 -0.0216  0.0283
  497TIP3    H125686   3.714   0.009  10.276  1.0805  0.3894 -1.2059
  497TIP3    H225687   3.697   0.135  10.195 -0.7520  1.2164  0.3848
  498TIP3   OH225688   0.379   4.941  10.134  0.1989 -0.0336  0.3209
  498TIP3    H125689   0.472   4.962  10.148  0.5773 -1.2526 -0.2729
  498TIP3    H225690   0.372   4.921  10.041 -0.3138 -1.5467  0.6565
  499TIP3   OH225691   4.644   2.275   8.910 -0.6477 -0.2273 -0.2742
  499TIP3    H125692   4.655   2.289   8.816  0.7698  0.7628  0.0041
  499TIP3    H225693   4.575   2.209   8.916 -0.1279 -1.0056 -2.0400
  500TIP3   OH225694   1.004   4.363   9.711  0.1376 -0.7007  0.0859
  500TIP3    H125695   1.060   4.323   9.777  1.4986  1.3374  0.2395
  500TIP3    H225696   1.009   4.457   9.728 -2.4098 -0.3453 -0.6607
  501TIP3   OH225697   2.026   5.305  11.234  0.4581  0.2097  0.3943
  501TIP3    H125698   2.020   5.245  11.159 -1.5616  0.6376  0.1521
  501TIP3    H225699   2.042   5.248  11.309  1.8390 -0.2903 -0.2276
  502TIP3   OH225700   1.969   4.188  11.357  0.1887  0.1605  0.1628
  502TIP3    H125701   2.000   4.150  11.439 -3.9442 -1.4115  1.2862
  502TIP3    H225702   1.967   4.115  11.296 -2.4994 -0.2814  0.6428
  503TIP3   OH225703   2.487   0.691   8.902 -0.0846 -0.3913 -0.1416
  503TIP3    H125704   2.540   0.726   8.974 -0.5304 -1.7350  0.8791
  503TIP3    H225705   2.397   0.700   8.931 -0.7179  3.3586 -2.5270
  504TIP3   OH225706   3.069   0.002  11.288 -0.0529  0.7178 -0.5103
  504TIP3    H125707   3.097   0.009  11.197 -0.4307 -2.3370 -0.9582
  504TIP3    H225708   2.991   0.057  11.294 -0.1314  0.8065 -2.0866
  505TIP3   OH225709   0.645   4.436  10.054  0.2022 -0.1327  0.0817
  505TIP3    H125710   0.635   4.499   9.982  1.9082 -0.7580 -0.7654
  505TIP3    H225711   0.739   4.417  10.055 -0.0525 -1.4499  1.3717
  506TIP3   OH225712   3.063   1.250  10.933  1.0511 -0.6682 -0.1107
  506TIP3    H125713   3.123   1.318  10.964 -0.6518  1.2573 -0.8417
  506TIP3    H225714   2.977   1.292  10.932 -0.2472 -3.1081  0.2194
  507TIP3   OH225715   0.333   0.223   8.822 -0.0648  0.3104  0.2006
  507TIP3    H125716   0.335   0.311   8.783 -1.0169 -0.2879 -1.3186
  507TIP3    H225717   0.279   0.233   8.900 -2.2209  0.6591 -1.2441
  508TIP3   OH225718   3.732   5.500  12.048 -0.1635  0.8436  0.1763
  508TIP3    H125719   3.671   5.558  12.094 -0.2554 -0.1364  1.3179
  508TIP3    H225720   3.796   5.475  12.114  0.5882  0.6107 -0.6263
  509TIP3   OH225721   5.155   2.480  10.450 -0.5413 -0.2920 -0.3819
  509TIP3    H125722   5.246   2.510  10.459 -0.7543 -0.0799  1.3920
  509TIP3    H225723   5.162   2.384  10.453 -0.4082 -0.2683  0.4402
  510TIP3   OH225724   5.267   0.887  12.630 -0.2754  0.5322  0.0591
  510TIP3    H125725   5.334   0.820  12.616 -0.9935 -0.0693 -0.5852
  510TIP3    H225726   5.312   0.970  12.616  0.6727  0.1980  1.0462
  511TIP3   OH225727   3.120   0.745  11.251 -0.3295  0.0794  0.2590
  511TIP3    H125728   3.176   0.697  11.311 -1.6288  0.4107  1.8188
  511TIP3    H225729   3.160   0.733  11.165  2.4952  0.8586  1.3561
  512TIP3   OH225730   3.925   2.143  10.816  0.3263  0.6258 -0.0917
  512TIP3    H125731   3.931   2.218  10.757  0.8372  0.8266  0.2034
  512TIP3    H225732   3.863   2.170  10.883 -0.6875  0.1820 -0.8360
  513TIP3   OH225733   2.234   0.390  10.702  0.7116  0.0724  0.0472
  513TIP3    H125734   2.149   0.356  10.674  1.1446 -0.1766 -1.0050
  513TIP3    H225735   2.271   0.321  10.757  0.6516 -0.2504 -0.3109
  514TIP3   OH225736   4.767   1.873   9.887  0.2886 -0.3943 -0.4662
  514TIP3    H125737   4.813   1.941   9.936  0.4688  0.7586 -2.1585
  514TIP3    H225738   4.815   1.866   9.804 -0.1905 -2.0526 -0.6580
  515TIP3   OH225739   0.802   4.735   9.862  0.5626 -0.2323  0.8019
  515TIP3    H125740   0.719   4.726   9.910 -0.1807  0.0339 -0.3833
  515TIP3    H225741   0.868   4.696   9.920 -0.8375 -3.3740  0.4442
  516TIP3   OH225742   2.735   3.996  10.686 -0.5022 -0.1472  0.0984
  516TIP3    H125743   2.642   4.004  10.662 -0.6944  0.5947  1.0251
  516TIP3    H225744   2.768   3.926  10.630 -2.1256 -1.8713  1.1784
  517TIP3   OH225745   1.320   4.350  12.338 -0.1789 -0.3944 -0.2760
  517TIP3    H125746   1.327   4.255  12.335  1.1446 -0.3243  0.0283
  517TIP3    H225747   1.313   4.370  12.432  0.4931 -0.1456 -0.2741
  518TIP3   OH225748   1.710   2.742   9.279  0.0368 -0.5981 -0.4015
  518TIP3    H125749   1.770   2.796   9.332  0.7303 -0.5730 -1.2014
  518TIP3    H225750   1.631   2.796   9.271 -0.0450 -0.5547  0.5023
  519TIP3   OH225751   5.498   1.155  10.362  0.3863  0.4337 -0.1674
  519TIP3    H125752   5.588   1.173  10.388  0.8807 -1.0089 -0.7397
  519TIP3    H225753   5.477   1.072  10.404 -1.1849  1.4061  1.0691
  520TIP3   OH225754   6.400   4.112  11.990  0.2482 -0.1491 -0.5676
  520TIP3    H125755   6.366   4.084  12.076  0.0042 -1.3251 -1.0229
  520TIP3    H225756   6.416   4.206  12.000  1.3181 -0.4583  1.1303
  521TIP3   OH225757   1.172   3.426  10.943  0.2041 -0.0609 -0.2429
  521TIP3    H125758   1.246   3.388  10.989  0.5215  0.2478 -0.4937
  521TIP3    H225759   1.166   3.515  10.978 -0.5910 -0.3627  0.4129
  522TIP3   OH225760   0.640   0.326  10.556 -0.2999  0.4573 -0.1897
  522TIP3    H125761   0.643   0.268  10.479 -0.9734  1.0319 -0.6670
  522TIP3    H225762   0.727   0.320  10.594 -0.3104 -0.7444 -0.3212
  523TIP3   OH225763   2.571   6.000  12.420 -0.0215 -0.6177  0.4185
  523TIP3    H125764   2.548   6.072  12.480 -0.2669 -0.3485  0.0059
  523TIP3    H225765   2.498   5.938  12.428  0.2371 -0.8693  0.8470
  524TIP3   OH225766   3.776   3.092  11.795  0.0656  0.4257  0.6259
  524TIP3    H125767   3.747   3.001  11.806  0.2515  0.1386 -0.9566
  524TIP3    H225768   3.863   3.094  11.836  1.2646 -0.8809 -1.6401
  525TIP3   OH225769   6.535   0.301  10.481  0.4407 -0.2160  0.2570
  525TIP3    H125770   6.477   0.301  10.557  1.3984  0.7606  1.0113
  525TIP3    H225771   6.561   0.210  10.470  2.6700 -0.0318  3.0007
  526TIP3   OH225772   0.464   4.511  11.486 -0.1987 -0.0363 -0.4826
  526TIP3    H125773   0.462   4.419  11.460 -0.0986  0.2889 -1.6860
  526TIP3    H225774   0.463   4.559  11.403 -1.5162  1.0668  0.1344
  527TIP3   OH225775   5.212   5.626  11.517  0.0761  0.3852 -0.8955
  527TIP3    H125776   5.187   5.705  11.565 -0.3302  0.6654 -1.5544
  527TIP3    H225777   5.132   5.597  11.474  0.5554  0.4753 -1.8773
  528TIP3   OH225778   6.026   3.109  11.108  0.1504  0.2034 -0.0821
  528TIP3    H125779   5.958   3.110  11.176  0.3135 -0.7942  0.1163
  528TIP3    H225780   5.980   3.084  11.028 -0.4163  3.2988 -0.8189
  529TIP3   OH225781   4.541   4.550  10.029  0.1978  0.2319 -0.4052
  529TIP3    H125782   4.565   4.510  10.112  0.1637  0.3874 -0.3204
  529TIP3    H225783   4.569   4.641  10.037  0.6478  0.1251 -0.7543
  530TIP3   OH225784   5.403   3.980   9.694  0.2106  0.7192  0.4477
  530TIP3    H125785   5.342   4.013   9.629  1.2281  1.8015  0.0099
  530TIP3    H225786   5.462   4.053   9.712  3.2396 -1.0772 -1.3456
  531TIP3   OH225787   2.887   5.102  10.480 -0.0134  0.4818  0.3569
  531TIP3    H125788   2.945   5.028  10.463 -0.6147  0.4183 -1.7088
  531TIP3    H225789   2.904   5.163  10.408 -2.2099  0.5928 -0.1469
  532TIP3   OH225790   0.462   4.634  11.757 -0.2004 -0.1784  0.1496
  532TIP3    H125791   0.488   4.618  11.667 -0.3562  0.8223 -0.0839
  532TIP3    H225792   0.533   4.597  11.810  0.5628  0.4219 -0.4260
  533TIP3   OH225793   0.475   2.057  12.164 -0.2169  0.3601 -0.9985
  533TIP3    H125794   0.505   2.029  12.078 -1.6101  0.4306 -1.5436
  533TIP3    H225795   0.381   2.035  12.164  0.0366 -0.9155  1.0203
  534TIP3   OH225796   2.540   6.455   9.325  0.0211 -0.1083  0.0806
  534TIP3    H125797   2.557   6.445   9.232  2.6789  2.2718  0.1927
  534TIP3    H225798   2.455   6.499   9.329  0.1986  0.3978 -1.2557
  535TIP3   OH225799   4.505   6.242  10.913  0.6208 -0.3062  0.2321
  535TIP3    H125800   4.552   6.251  10.995  0.9532  4.4889 -0.1996
  535TIP3    H225801   4.571   6.216  10.849  0.8788 -1.4921  0.9440
  536TIP3   OH225802   4.579   3.276   9.989 -0.2854  0.2478  0.0920
  536TIP3    H125803   4.585   3.359   9.942 -0.2956  0.9418  1.2736
  536TIP3    H225804   4.486   3.265  10.007 -0.6356 -1.3182 -2.2423
  537TIP3   OH225805   3.789   4.538  10.686 -0.6336 -0.0058 -0.2260
  537TIP3    H125806   3.792   4.634  10.687 -0.2352 -0.0136  1.0797
  537TIP3    H225807   3.730   4.517  10.614 -0.3149  1.2081 -0.8792
  538TIP3   OH225808   3.990   5.003  12.284  0.0303  0.0363  0.0719
  538TIP3    H125809   3.966   4.963  12.201  0.7241 -1.1325  0.4098
  538TIP3    H225810   3.907   5.031  12.322 -0.8111 -3.0088  0.7664
  539TIP3   OH225811   4.989   3.388  10.506  0.0069  0.6602  0.5433
  539TIP3    H125812   4.997   3.374  10.412 -0.7261 -1.7964  0.7893
  539TIP3    H225813   5.075   3.367  10.541  0.3477  1.7966  0.4471
  540TIP3   OH225814   5.282   0.063  10.675 -0.0435  0.0153 -0.5407
  540TIP3    H125815   5.202   0.048  10.625 -0.1657  2.5287 -1.2242
  540TIP3    H225816   5.263   0.026  10.761 -1.2989 -0.9053 -1.1847
  541TIP3   OH225817   3.326   1.730  12.028 -0.1898 -0.2669 -0.6310
  541TIP3    H125818   3.271   1.719  12.106 -0.7707  1.9032 -0.6755
  541TIP3    H225819   3.414   1.704  12.057 -0.1485  1.5932  1.1606
  542TIP3   OH225820   1.764   4.567  11.768 -0.3389 -0.0951 -0.1103
  542TIP3    H125821   1.859   4.574  11.782 -0.4223 -1.5021  1.5172
  542TIP3    H225822   1.751   4.596  11.678  1.2232  3.1006  0.5400
  543TIP3   OH225823   0.680   5.333  10.082 -0.2229  0.4185 -0.8104
  543TIP3    H125824   0.613   5.374  10.027  0.0838  0.1767 -1.3772
  543TIP3    H225825   0.715   5.404  10.136 -0.3517  0.7073 -1.1065
  544TIP3   OH225826   2.234   6.146   9.508 -0.2323  0.2638  0.6426
  544TIP3    H125827   2.145   6.134   9.542 -0.2339 -0.6012  0.3345
  544TIP3    H225828   2.259   6.234   9.538 -0.8268  0.1382  1.5535
  545TIP3   OH225829   1.397   3.742  11.874  0.0542 -0.2507  0.2322
  545TIP3    H125830   1.455   3.681  11.829 -0.8507 -1.5693  0.8013
  545TIP3    H225831   1.335   3.770  11.806 -1.1291 -2.0103  0.5314
  546TIP3   OH225832   4.842   1.872   9.620  0.1264 -0.4878 -0.7132
  546TIP3    H125833   4.818   1.781   9.603  1.7381 -1.1130  0.1967
  546TIP3    H225834   4.928   1.882   9.580  0.0572  0.5811 -0.6117
  547TIP3   OH225835   2.755   5.837  10.450 -0.3441 -0.1393  0.2070
  547TIP3    H125836   2.808   5.893  10.507 -0.9334 -0.2273  0.8537
  547TIP3    H225837   2.819   5.788  10.399  0.2486  2.3461 -1.6717
  548TIP3   OH225838   0.950   4.565  10.020  0.4157  0.0818  1.0935
  548TIP3    H125839   0.925   4.473  10.028  0.7697 -0.4088 -2.2578
  548TIP3    H225840   0.976   4.590  10.109 -1.0427 -2.6003  2.3945
  549TIP3   OH225841   1.990   1.699  12.008 -0.4295  0.2497 -0.1073
  549TIP3    H125842   1.988   1.723  11.916  0.3296  0.9925  0.0568
  549TIP3    H225843   1.912   1.644  12.020 -0.9019  0.6822 -1.0359
  550TIP3   OH225844   5.592   0.589  12.071  0.0417 -0.3863 -0.4696
  550TIP3    H125845   5.661   0.523  12.060  1.0995  0.5618  0.2507
  550TIP3    H225846   5.633   0.671  12.043 -0.6406  0.2669  0.3994
  551TIP3   OH225847   4.651   2.401  11.478 -0.2908  0.0459 -0.0451
  551TIP3    H125848   4.731   2.453  11.486  1.1219 -2.0390 -0.0797
  551TIP3    H225849   4.602   2.443  11.408  2.2459 -0.4378 -2.2406
  552TIP3   OH225850   4.658   0.511   9.916  0.2343  0.5086  0.6726
  552TIP3    H125851   4.740   0.462   9.908 -0.2839 -0.3098  0.3903
  552TIP3    H225852   4.615   0.502   9.832 -0.5165  0.2854  1.0742
  553TIP3   OH225853   5.663   3.708  10.571 -0.5486  0.4585  0.0967
  553TIP3    H125854   5.570   3.686  10.569 -0.1716 -1.2563 -0.8818
  553TIP3    H225855   5.668   3.796  10.535 -1.8373  0.7835  0.6646
  554TIP3   OH225856   1.988   3.558  11.460  0.3974  0.0441 -0.2455
  554TIP3    H125857   1.959   3.619  11.528  0.9060  0.1201 -0.0920
  554TIP3    H225858   1.907   3.525  11.421  0.1057  1.7801 -1.2192
  555TIP3   OH225859   6.021   0.389   9.691  0.1478  0.3933  0.5145
  555TIP3    H125860   6.016   0.298   9.720  1.4266 -0.6604 -2.2049
  555TIP3    H225861   6.098   0.392   9.635 -0.2407  3.0241 -0.0068
  556TIP3   OH225862   1.759   0.107  11.511  0.1601  0.0091  0.1104
  556TIP3    H125863   1.752   0.013  11.525 -0.0164  0.2318  1.7731
  556TIP3    H225864   1.850   0.122  11.486  0.0738 -0.6387 -0.6227
  557TIP3   OH225865   6.541   0.309   9.612  0.0741 -0.1465 -0.0899
  557TIP3    H125866   6.489   0.387   9.595 -0.4863 -0.3890  0.4838
  557TIP3    H225867   6.632   0.340   9.611 -0.1652  0.6244  0.7271
  558TIP3   OH225868   4.391   4.296  12.054  0.7771 -0.1177  0.1451
  558TIP3    H125869   4.425   4.383  12.037  0.2537  0.1383  0.3755
  558TIP3    H225870   4.466   4.245  12.083  1.4588 -0.2305 -1.6830
  559TIP3   OH225871   4.833   1.522   9.701  0.3832 -0.4493  0.1995
  559TIP3    H125872   4.791   1.464   9.637 -0.9709  0.4993  0.1911
  559TIP3    H225873   4.762   1.550   9.759  1.5711 -1.2379  2.1251
  560TIP3   OH225874   5.649   1.537   9.650  0.1596  0.1037 -0.0425
  560TIP3    H125875   5.717   1.546   9.583 -0.0407 -2.3045 -0.6898
  560TIP3    H225876   5.589   1.472   9.613 -1.8598  1.2728  1.0250
  561TIP3   OH225877   0.032   5.784   9.892  0.0994  0.1103 -0.2857
  561TIP3    H125878  -0.002   5.705   9.851  1.3427 -0.6781  0.1492
  561TIP3    H225879   0.125   5.787   9.867  0.4088  0.6656  0.8328
  562TIP3   OH225880   6.071   2.097  12.121 -0.3592 -0.4487  0.8219
  562TIP3    H125881   6.127   2.029  12.084 -0.9679 -0.1386 -0.7600
  562TIP3    H225882   6.051   2.154  12.047 -1.3325  0.4268  1.7312
  563TIP3   OH225883   6.144   2.821   9.326  0.3842  0.4490  0.5986
  563TIP3    H125884   6.101   2.907   9.325  1.3223  0.9289  0.3201
  563TIP3    H225885   6.167   2.806   9.418 -1.9708 -0.6566  1.0812
  564TIP3   OH225886   3.657   6.617  11.159 -0.0988 -0.6970  0.4076
  564TIP3    H125887   3.699   6.679  11.219  0.6173 -0.1458 -0.6254
  564TIP3    H225888   3.712   6.618  11.081 -1.1795 -1.1505 -0.3908
  565TIP3   OH225889   4.988   1.059  10.566  0.5653 -0.2345 -0.0695
  565TIP3    H125890   4.914   1.095  10.616  0.4070  0.8056 -1.0104
  565TIP3    H225891   4.947   1.004  10.499  0.6364  0.2157 -0.4916
  566TIP3   OH225892   1.531   5.280  10.539  0.2963  0.7922 -0.1150
  566TIP3    H125893   1.587   5.238  10.473 -0.3408 -1.2791  0.5722
  566TIP3    H225894   1.588   5.345  10.580  0.8685  1.7536 -2.2872
  567TIP3   OH225895   3.028   6.251  11.846  0.6676  0.1858  0.3487
  567TIP3    H125896   3.057   6.342  11.860 -0.5713  0.8075 -0.9756
  567TIP3    H225897   3.108   6.204  11.823  1.0056  1.4186 -1.1166
  568TIP3   OH225898   0.609   0.219  12.406 -0.3700 -0.1464  0.4264
  568TIP3    H125899   0.514   0.229  12.399 -0.3599 -1.2242 -2.7837
  568TIP3    H225900   0.624   0.125  12.408  0.6589  0.0012  0.5151
  569TIP3   OH225901   0.038   4.971   9.221 -0.0796 -0.1538  0.8204
  569TIP3    H125902   0.045   5.058   9.262 -0.2285 -0.0312  0.5844
  569TIP3    H225903   0.108   4.969   9.157 -0.3036 -0.0667  0.5685
  570TIP3   OH225904   6.244   2.066  11.420 -0.3864 -0.1182  0.0488
  570TIP3    H125905   6.290   2.024  11.493 -2.1187 -1.8436  0.2366
  570TIP3    H225906   6.261   2.009  11.345  0.2228  0.8719 -0.5798
  571TIP3   OH225907   6.044   0.068  10.720 -0.2039  0.0865 -0.2621
  571TIP3    H125908   6.071  -0.021  10.696 -0.4154  0.3449 -1.5206
  571TIP3    H225909   6.107   0.094  10.787 -0.0375 -0.9493  0.0131
  572TIP3   OH225910   0.116   0.730  10.230 -0.3324 -0.1473  0.3046
  572TIP3    H125911   0.195   0.731  10.285 -0.7638 -0.2466  0.9266
  572TIP3    H225912   0.148   0.702  10.144  0.1470 -1.1790  0.8010
  573TIP3   OH225913   4.263   4.544  10.034 -0.0462 -0.2032 -0.2111
  573TIP3    H125914   4.243   4.453  10.056 -0.1262 -0.4115 -1.1308
  573TIP3    H225915   4.358   4.547  10.028 -0.0342 -0.1849 -0.0316
  574TIP3   OH225916   6.568   3.308  10.954 -0.3723 -0.4121  0.2234
  574TIP3    H125917   6.572   3.214  10.941 -0.0365 -0.4642  0.6683
  574TIP3    H225918   6.623   3.324  11.031 -1.3262  0.0115  0.8307
  575TIP3   OH225919   5.053   0.265   9.421  0.3850 -0.0187 -0.0959
  575TIP3    H125920   5.066   0.178   9.459 -0.1578 -0.7300 -1.4769
  575TIP3    H225921   5.105   0.265   9.341 -0.2877  0.6243 -0.5509
  576TIP3   OH225922   5.281   5.688  11.009 -0.1609 -0.5010  0.1764
  576TIP3    H125923   5.343   5.753  10.975 -1.5765  0.5933 -0.4172
  576TIP3    H225924   5.258   5.635  10.932  1.7749 -2.4453  0.8564
  577TIP3   OH225925   1.396   2.266  10.332 -0.0433  0.1302 -0.4760
  577TIP3    H125926   1.329   2.332  10.340  1.0162  1.0990  0.7396
  577TIP3    H225927   1.442   2.267  10.415  0.2481 -1.8907 -0.5518
  578TIP3   OH225928   4.136   4.164  11.406 -0.3281 -0.3901 -0.2931
  578TIP3    H125929   4.069   4.149  11.472 -0.0536 -0.4612 -0.0253
  578TIP3    H225930   4.191   4.233  11.443 -1.5263  1.2569 -1.4660
  579TIP3   OH225931   0.227   4.642  12.396 -0.7089  0.0315 -0.2576
  579TIP3    H125932   0.269   4.566  12.436 -0.4157  1.3184  2.0319
  579TIP3    H225933   0.283   4.663  12.321  1.2217  0.0382  1.1145
  580TIP3   OH225934   2.323   5.832  11.207 -0.2538 -0.1067 -1.1904
  580TIP3    H125935   2.352   5.920  11.227  2.5869 -1.0771 -0.6099
  580TIP3    H225936   2.294   5.796  11.291 -0.4132 -0.0807 -1.2328
  581TIP3   OH225937   1.482   4.454  10.079  0.2723  0.0346  0.3811
  581TIP3    H125938   1.465   4.545  10.057 -1.7422 -0.1419  0.9457
  581TIP3    H225939   1.479   4.408   9.995 -1.3277  0.1687  0.3360
  582TIP3   OH225940   2.942   1.857   8.885 -0.0404  0.3853  0.4053
  582TIP3    H125941   2.877   1.788   8.869 -0.5878  0.9861  0.0308
  582TIP3    H225942   2.953   1.858   8.980 -0.6302  0.3318  0.4750
  583TIP3   OH225943   2.289   4.183   8.922 -0.4572  0.5073  0.2617
  583TIP3    H125944   2.251   4.167   8.835 -0.8378 -1.5047  0.7382
  583TIP3    H225945   2.367   4.236   8.904  0.2639 -1.0037 -1.5319
  584TIP3   OH225946   3.384   5.280  12.271 -0.1786  0.3131  0.0894
  584TIP3    H125947   3.411   5.196  12.308  3.7208  0.9879 -0.7728
  584TIP3    H225948   3.374   5.263  12.177 -0.6867  0.5627  0.0937
  585TIP3   OH225949   0.604   3.874  12.197  0.1565 -0.0081  0.9622
  585TIP3    H125950   0.528   3.871  12.138  0.8519  0.0289  0.0319
  585TIP3    H225951   0.671   3.921  12.146  0.8001 -0.0451  1.7663
  586TIP3   OH225952   0.041   5.322  11.638 -0.4424 -0.1113  0.2690
  586TIP3    H125953   0.036   5.258  11.709 -0.4779  0.8995  1.2064
  586TIP3    H225954   0.134   5.345  11.633 -0.1658 -1.3698 -1.1365
  587TIP3   OH225955   1.479   3.132  10.148 -0.0688  0.5298 -0.5007
  587TIP3    H125956   1.457   3.042  10.169 -1.6431  0.9507 -0.2115
  587TIP3    H225957   1.506   3.129  10.056 -2.4487  0.0713 -1.2595
  588TIP3   OH225958   4.688   3.533  11.790 -0.0651 -0.2923 -0.0289
  588TIP3    H125959   4.768   3.557  11.836 -0.7250 -0.5228  1.2633
  588TIP3    H225960   4.643   3.615  11.775  0.6593 -0.0872 -1.3053
  589TIP3   OH225961   0.025   1.951   8.922  0.6331  0.6366 -0.0241
  589TIP3    H125962   0.065   2.036   8.939  1.2877  0.3699 -0.2179
  589TIP3    H225963   0.057   1.895   8.993 -0.8663  0.8801  0.8969
  590TIP3   OH225964   2.549   2.382  10.885  0.0566 -0.3008  0.0247
  590TIP3    H125965   2.638   2.386  10.921  0.5153  0.4940 -1.1353
  590TIP3    H225966   2.492   2.382  10.962  1.0357  0.1609  0.7721
  591TIP3   OH225967   1.627   2.333  10.177  0.2842  0.2035 -0.1596
  591TIP3    H125968   1.686   2.260  10.197 -1.5598 -1.8493 -1.6835
  591TIP3    H225969   1.551   2.319  10.233  0.0923  1.2684 -0.1317
  592TIP3   OH225970   2.094   3.313  11.489 -0.1168  0.0304  0.0223
  592TIP3    H125971   2.101   3.407  11.507  0.7410 -0.0674  0.2689
  592TIP3    H225972   2.119   3.304  11.397 -1.6848  0.2051 -0.4384
  593TIP3   OH225973   5.119   3.846  10.117  0.0291  0.1120  0.7912
  593TIP3    H125974   5.135   3.765  10.166 -2.4465 -0.6910  0.4185
  593TIP3    H225975   5.043   3.885  10.159  0.6481  1.8273  0.4033
  594TIP3   OH225976   5.008   4.353  11.623  0.3262  0.1556  0.4037
  594TIP3    H125977   5.087   4.374  11.674  0.2743 -1.2257  1.1065
  594TIP3    H225978   4.959   4.435  11.620 -0.0956  0.1352  3.4198
  595TIP3   OH225979   0.645   0.825  10.556 -0.1423 -0.1674 -0.3302
  595TIP3    H125980   0.697   0.834  10.636 -0.6454  0.4182 -0.0592
  595TIP3    H225981   0.554   0.834  10.586 -0.2748  1.8330 -1.1762
  596TIP3   OH225982   2.189   0.973   9.735 -0.1082  0.2906  0.1101
  596TIP3    H125983   2.159   1.041   9.796  2.1161  1.4121  0.0460
  596TIP3    H225984   2.228   1.021   9.662  0.9673 -1.0509 -0.2388
  597TIP3   OH225985   5.007   3.525  11.471  0.1252 -0.7826  0.5968
  597TIP3    H125986   4.982   3.558  11.385 -1.1026 -0.2406  1.1329
  597TIP3    H225987   4.987   3.431  11.468 -2.8022 -0.2958  1.1955
  598TIP3   OH225988   1.352   0.796  11.517  0.2137 -0.4664 -0.0995
  598TIP3    H125989   1.270   0.804  11.469 -0.1263 -1.6729  0.2371
  598TIP3    H225990   1.415   0.847  11.467 -0.9306  1.2073  0.1080
  599TIP3   OH225991   6.449   4.748   9.223  0.3090  0.1948 -0.9662
  599TIP3    H125992   6.514   4.818   9.223  0.5756  0.0357  1.3315
  599TIP3    H225993   6.366   4.793   9.202  0.5107  1.2020  0.2434
  600TIP3   OH225994   0.989   0.224  10.739  0.0900  0.2004 -0.2401
  600TIP3    H125995   1.048   0.218  10.664 -0.1416  0.2213 -0.4256
  600TIP3    H225996   0.986   0.136  10.775  1.4690  0.5085  0.7262
  601TIP3   OH225997   5.102   5.354   9.662  0.2292  0.0410 -0.1707
  601TIP3    H125998   5.093   5.362   9.567  1.5775  0.5228 -0.2773
  601TIP3    H225999   5.017   5.322   9.691  0.0407 -0.8766 -1.6246
  602TIP3   OH226000   4.049   5.835  10.672  0.5192  0.2813  0.0992
  602TIP3    H126001   4.126   5.820  10.727  1.0828 -0.4949 -0.8620
  602TIP3    H226002   3.978   5.789  10.718  0.6456  0.8754  0.9154
  603TIP3   OH226003   4.431   2.174  10.004 -0.2883 -0.5107  0.2035
  603TIP3    H126004   4.401   2.161   9.914  1.6678 -1.2858 -0.4114
  603TIP3    H226005   4.487   2.252  10.000 -0.5830 -0.2592  0.8534
  604TIP3   OH226006   5.865   2.100  10.635 -0.5448 -0.4185  0.0874
  604TIP3    H126007   5.944   2.055  10.606  0.0041  0.7899 -0.3442
  604TIP3    H226008   5.824   2.132  10.555 -0.0273  1.2878  0.4682
  605TIP3   OH226009   1.773   5.234  11.507 -1.0441 -0.3352  0.4695
  605TIP3    H126010   1.798   5.242  11.600 -0.2503 -0.1629  0.2505
  605TIP3    H226011   1.807   5.149  11.480 -1.1198 -0.3104  0.2956
  606TIP3   OH226012   4.865   3.819  11.109  0.3301  0.0759  0.1279
  606TIP3    H126013   4.775   3.828  11.141 -0.6300 -0.0832 -2.3355
  606TIP3    H226014   4.886   3.905  11.072  0.2031 -0.5958 -1.5920
  607TIP3   OH226015   1.980   2.664   9.735  0.1070  0.2282  0.3925
  607TIP3    H126016   1.927   2.616   9.798  1.3600 -0.7717  0.7187
  607TIP3    H226017   1.980   2.610   9.657  0.6654  0.1991  0.4084
  608TIP3   OH226018   0.989   0.317  11.029  0.1930 -0.0370 -0.2271
  608TIP3    H126019   0.915   0.280  11.077 -0.7761  0.5451 -1.2121
  608TIP3    H226020   0.962   0.313  10.937  0.5665  1.9191 -0.4756
  609TIP3   OH226021   4.937   2.348   9.599 -0.0031 -0.1986 -0.3471
  609TIP3    H126022   4.859   2.394   9.569  0.9871  3.3565  1.9368
  609TIP3    H226023   4.906   2.284   9.663 -1.0730  1.7047  1.1194
  610TIP3   OH226024   3.788   1.466  10.003 -0.1150  0.5765 -0.1032
  610TIP3    H126025   3.752   1.478  10.090  2.9468  0.3932  1.3479
  610TIP3    H226026   3.789   1.371   9.991  0.6308  0.5262  0.2665
  611TIP3   OH226027   5.049   5.443  11.362 -0.1741  0.9646  0.1508
  611TIP3    H126028   5.102   5.364  11.349 -2.1521 -0.6805  1.2881
  611TIP3    H226029   5.035   5.447  11.457 -0.9020  2.1202  0.0168
  612TIP3   OH226030   5.741   2.097  12.079 -0.2475  0.2634 -0.3615
  612TIP3    H126031   5.732   2.002  12.083 -1.3294  0.3799  0.8243
  612TIP3    H226032   5.692   2.129  12.155 -0.4581  1.8065 -1.0938
  613TIP3   OH226033   3.136   2.040   9.484  0.3218 -0.5423  0.1696
  613TIP3    H126034   3.215   1.986   9.494  0.2444 -0.6384  0.2672
  613TIP3    H226035   3.072   1.999   9.542  0.1485 -0.5622 -0.0390
  614TIP3   OH226036   2.936   1.781  11.438  0.2938 -0.2530  0.3797
  614TIP3    H126037   2.853   1.793  11.482  1.2592 -0.4944  2.3799
  614TIP3    H226038   2.998   1.760  11.508  2.6515  2.6267 -0.6295
  615TIP3   OH226039   1.319   2.376  11.454  0.2430  0.3747 -0.1886
  615TIP3    H126040   1.228   2.406  11.446 -0.1838 -0.8757 -0.4121
  615TIP3    H226041   1.366   2.421  11.385 -0.2408  0.9473 -0.1500
  616TIP3   OH226042   6.439   3.228   9.419  0.0947 -0.1330 -0.1649
  616TIP3    H126043   6.440   3.181   9.503  0.2624  0.0894 -0.0438
  616TIP3    H226044   6.433   3.158   9.353 -0.3222 -0.2966  0.0408
  617TIP3   OH226045   2.945   0.369  11.974  0.5867 -0.2527  0.1925
  617TIP3    H126046   3.019   0.322  11.934 -0.4172  1.0413 -3.6096
  617TIP3    H226047   2.983   0.412  12.051  2.9246 -2.3365  0.3456
  618TIP3   OH226048   5.525   0.502  12.362  0.5843  0.1508 -0.0110
  618TIP3    H126049   5.545   0.540  12.276 -0.8106 -0.4357 -0.6251
  618TIP3    H226050   5.445   0.451  12.348  1.1160 -1.1169  1.3194
  619TIP3   OH226051   3.897   0.185  10.825 -0.1923  0.6457 -0.3298
  619TIP3    H126052   3.859   0.164  10.911  2.5191 -1.4693  0.5237
  619TIP3    H226053   3.923   0.277  10.832 -0.2954  0.5939  0.9985
  620TIP3   OH226054   0.363   2.789  10.312  0.2231 -0.0317  0.0709
  620TIP3    H126055   0.326   2.798  10.400 -0.3947  1.2180 -0.2887
  620TIP3    H226056   0.457   2.793  10.325  0.1959 -1.2529  0.8075
  621TIP3   OH226057   0.409   1.696  11.529 -1.1058  0.2507 -0.3342
  621TIP3    H126058   0.490   1.745  11.520 -1.1076  0.1688 -0.8231
  621TIP3    H226059   0.435   1.614  11.571 -0.9002  0.1320 -0.6894
  622TIP3   OH226060   2.267   3.405  11.695 -0.4032 -0.3127 -0.3120
  622TIP3    H126061   2.308   3.344  11.758  0.6955 -1.4959 -2.0760
  622TIP3    H226062   2.200   3.352  11.652 -0.3104  0.1027 -0.9730
  623TIP3   OH226063   2.273   2.085  10.802 -0.3229  0.4150 -0.4445
  623TIP3    H126064   2.338   2.047  10.861 -0.8944 -0.8965 -0.6252
  623TIP3    H226065   2.224   2.146  10.856  1.7105  2.2655 -0.5554
  624TIP3   OH226066   1.222   4.008   9.959  0.1273  0.6996 -0.0709
  624TIP3    H126067   1.296   3.967   9.914 -0.1860  0.8741 -0.7573
  624TIP3    H226068   1.260   4.049  10.036  0.5344 -0.3884  0.3210
  625TIP3   OH226069   5.968   0.526  11.715  0.3971  0.3377 -0.0341
  625TIP3    H126070   5.880   0.494  11.735  0.4682 -0.5817 -1.0941
  625TIP3    H226071   6.024   0.448  11.720  0.7077  0.3979 -1.9269
  626TIP3   OH226072   4.687   5.265  10.176  0.6183  0.0617  0.0658
  626TIP3    H126073   4.769   5.257  10.128 -0.0221  0.3490 -1.0990
  626TIP3    H226074   4.682   5.357  10.200 -0.2165  0.4266 -1.4409
  627TIP3   OH226075   1.949   6.390  10.163  0.8407 -0.3055 -0.0120
  627TIP3    H126076   1.917   6.378  10.253  1.7299 -0.4278  0.3055
  627TIP3    H226077   1.906   6.469  10.132  1.6927  0.6390  1.0958
  628TIP3   OH226078   3.189   5.336   9.268  0.0862 -0.3684 -0.2214
  628TIP3    H126079   3.103   5.296   9.256 -0.0893  0.2109 -0.9612
  628TIP3    H226080   3.242   5.302   9.196 -0.3451  1.4300 -1.4736
  629TIP3   OH226081   2.124   1.392   9.342  0.6011  0.3175  0.0641
  629TIP3    H126082   2.039   1.426   9.316  1.0658  1.6132  0.1723
  629TIP3    H226083   2.104   1.316   9.397 -0.4614  0.4480 -0.1206
  630TIP3   OH226084   6.349   3.518  11.608  0.3630  0.3525  0.0563
  630TIP3    H126085   6.398   3.589  11.649 -0.6507  1.3352 -0.3837
  630TIP3    H226086   6.387   3.438  11.645  0.0325  1.1671  2.3239
  631TIP3   OH226087   6.446   6.591  12.406  0.2068  0.2699 -0.1539
  631TIP3    H126088   6.456   6.686  12.410 -1.7497  0.5109  0.4782
  631TIP3    H226089   6.390   6.570  12.481 -1.4360 -1.0434 -1.6551
  632TIP3   OH226090   4.776   0.930  11.419  0.1986  0.4760  0.2753
  632TIP3    H126091   4.740   0.861  11.363  1.0548  0.5567 -0.3974
  632TIP3    H226092   4.699   0.976  11.453 -0.4045  2.0277 -2.8097
  633TIP3   OH226093   3.515   3.468  10.809 -0.3325 -0.4731  0.0251
  633TIP3    H126094   3.596   3.416  10.814  1.7711  2.6317  1.5661
  633TIP3    H226095   3.478   3.462  10.897 -0.7167 -0.2831 -0.1227
  634TIP3   OH226096   3.466   6.201  10.432  0.0457 -0.5948  0.2946
  634TIP3    H126097   3.383   6.235  10.401 -0.4133 -2.0160 -0.1180
  634TIP3    H226098   3.521   6.278  10.445 -0.5873  0.2201 -1.5886
  635TIP3   OH226099   2.483   0.179  10.191  0.9899  0.0549 -0.5274
  635TIP3    H126100   2.532   0.241  10.244 -0.1082  0.2383  0.3004
  635TIP3    H226101   2.506   0.093  10.227 -0.2555  0.2109  0.7336
  636TIP3   OH226102   0.593   2.714  10.429  0.0043  0.6778  0.0631
  636TIP3    H126103   0.597   2.757  10.514  0.1436  0.0207  0.3960
  636TIP3    H226104   0.669   2.655  10.428 -1.0781 -0.7989  0.3166
  637TIP3   OH226105   6.144   1.430  11.094 -0.7322 -0.3685 -0.8018
  637TIP3    H126106   6.072   1.411  11.033  0.8454 -1.8368 -2.3227
  637TIP3    H226107   6.222   1.437  11.038  0.5362 -0.1636  0.9065
  638TIP3   OH226108   5.971   3.979  11.095 -0.2100  0.3683 -0.4137
  638TIP3    H126109   5.946   4.064  11.130  0.2552  0.1936  0.3671
  638TIP3    H226110   6.003   3.997  11.007  2.7669  1.4373  0.7894
  639TIP3   OH226111   0.556   3.608  12.463  0.2894 -0.0103 -0.0711
  639TIP3    H126112   0.646   3.582  12.446  0.2579  0.3366 -0.7979
  639TIP3    H226113   0.563   3.692  12.508  0.3035  0.8326 -1.6126
  640TIP3   OH226114   6.569   2.170  12.281 -0.3085 -0.0808  0.2566
  640TIP3    H126115   6.616   2.229  12.223 -0.9940 -0.7577 -1.0225
  640TIP3    H226116   6.480   2.203  12.282 -0.4769 -0.5259  0.2985
  641TIP3   OH226117   1.729   2.507  12.453  0.2949 -0.4088 -0.1430
  641TIP3    H126118   1.646   2.485  12.411 -0.2921  0.2594  0.6366
  641TIP3    H226119   1.729   2.603  12.458  0.2129 -0.4666  1.5829
  642TIP3   OH226120   3.351   0.907  11.749 -0.4489  0.3983  0.0084
  642TIP3    H126121   3.347   0.910  11.845  0.1684  1.5975  0.0084
  642TIP3    H226122   3.368   0.997  11.723  0.2207 -0.0575 -1.1972
  643TIP3   OH226123   0.299   2.183  11.502 -0.2759 -0.1639  0.0159
  643TIP3    H126124   0.278   2.138  11.584  0.6780  1.3198  1.1281
  643TIP3    H226125   0.215   2.192  11.457 -1.0101 -0.0274  1.3603
  644TIP3   OH226126   1.116   3.172   9.385  0.2698 -0.1541 -0.6342
  644TIP3    H126127   1.044   3.208   9.333  1.3992  0.9888 -1.4750
  644TIP3    H226128   1.180   3.243   9.390  0.8627 -0.7562  1.0523
  645TIP3   OH226129   2.299   1.841   9.232  0.0508 -0.0204  0.1251
  645TIP3    H126130   2.319   1.913   9.172  0.1414  0.2103  0.4340
  645TIP3    H226131   2.207   1.821   9.216  0.1051 -0.0381 -0.1742
  646TIP3   OH226132   1.535   4.890   9.580  0.0525 -0.0909  0.0167
  646TIP3    H126133   1.444   4.920   9.573  0.2298  0.2021 -1.2132
  646TIP3    H226134   1.527   4.795   9.594 -0.4440 -0.1063 -0.3186
  647TIP3   OH226135   5.619   2.027  11.172 -0.4189 -0.2976  0.2292
  647TIP3    H126136   5.681   1.967  11.213  2.6974  1.5603 -1.3247
  647TIP3    H226137   5.636   2.019  11.078 -2.4257  0.4552 -0.2401
  648TIP3   OH226138   4.610   0.097  12.039  0.0709  0.5888 -0.1525
  648TIP3    H126139   4.630   0.007  12.015  0.7472  1.0152 -1.2974
  648TIP3    H226140   4.583   0.093  12.130  0.7740 -0.6795  0.0156
  649TIP3   OH226141   3.431   2.929  11.220 -0.2992 -0.6692  0.0916
  649TIP3    H126142   3.404   2.938  11.128 -1.2201  0.6941  0.4597
  649TIP3    H226143   3.353   2.895  11.264 -1.1492  2.1327  0.9588
  650TIP3   OH226144   1.966   3.171   9.872  0.1572  0.8475 -0.6636
  650TIP3    H126145   1.999   3.185   9.783  2.1135  0.1725 -0.0867
  650TIP3    H226146   1.930   3.082   9.870  1.9699  0.0742 -0.3165
  651TIP3   OH226147   1.503   3.189  12.216  0.0521 -0.0180  0.1871
  651TIP3    H126148   1.599   3.191  12.221  0.0062 -0.3273  1.9243
  651TIP3    H226149   1.477   3.280  12.209  0.4827  0.0061 -2.0295
  652TIP3   OH226150   3.795   3.009  11.328  0.5248 -0.4519  0.0256
  652TIP3    H126151   3.760   3.034  11.414  0.7793 -2.2321  0.7023
  652TIP3    H226152   3.801   2.913  11.332  2.3621 -0.4437 -1.2741
  653TIP3   OH226153   5.375   1.130  10.099 -0.8473 -0.1987  0.6653
  653TIP3    H126154   5.452   1.148  10.155  0.4800  0.5497 -1.2942
  653TIP3    H226155   5.339   1.216  10.080  0.0884 -0.1938 -1.3963
  654TIP3   OH226156   5.208   4.402  12.035  0.1852 -0.3802 -0.1178
  654TIP3    H126157   5.238   4.412  11.945  0.8368  0.8620  0.2101
  654TIP3    H226158   5.237   4.314  12.061  2.0535  0.1116 -0.3805
  655TIP3   OH226159   6.522   0.242   9.887  0.6093  0.1865 -0.2319
  655TIP3    H126160   6.439   0.203   9.912  0.6351  0.5962  0.5436
  655TIP3    H226161   6.509   0.273   9.798  0.1688 -0.4007 -0.3706
  656TIP3   OH226162   0.167   5.976  10.747 -0.8383 -0.1177 -0.5963
  656TIP3    H126163   0.138   5.983  10.656 -2.9174 -0.2904 -0.0044
  656TIP3    H226164   0.132   6.054  10.789 -0.9173 -0.6159  0.2914
  657TIP3   OH226165   5.020   1.268   9.560  0.2606  0.2002  0.3646
  657TIP3    H126166   5.020   1.173   9.566  2.5916  0.1638  1.0380
  657TIP3    H226167   5.088   1.288   9.495 -1.4213  1.4124 -1.1300
  658TIP3   OH226168   2.351   6.398   9.588  0.2735  0.1787 -0.6255
  658TIP3    H126169   2.369   6.415   9.681  2.2854  0.9236 -1.0811
  658TIP3    H226170   2.430   6.428   9.543 -0.4487 -0.6295 -2.5501
  659TIP3   OH226171   0.606   2.340   9.795  0.1020 -0.6328  0.3431
  659TIP3    H126172   0.553   2.396   9.852 -0.4609 -0.2213 -0.5711
  659TIP3    H226173   0.578   2.251   9.816  0.3369 -0.5242  1.1406
  660TIP3   OH226174   0.449   2.097   9.927  0.1902  0.0518 -0.0379
  660TIP3    H126175   0.472   2.027   9.866 -1.2466 -0.7995  0.3508
  660TIP3    H226176   0.491   2.072  10.009 -0.6561 -0.5851  0.2088
  661TIP3   OH226177   4.572   5.757  12.290 -0.1332  0.0592 -0.0135
  661TIP3    H126178   4.507   5.695  12.323 -0.4168  0.7153  0.6931
  661TIP3    H226179   4.589   5.815  12.363  2.3320 -0.9333  0.3023
  662TIP3   OH226180   2.924   0.345   9.355  0.3143 -0.1686  0.1783
  662TIP3    H126181   2.860   0.274   9.346 -0.0607  0.2709 -0.8179
  662TIP3    H226182   2.872   0.420   9.382  0.2867  0.3274 -1.1506
  663TIP3   OH226183   6.450   4.199  10.727  0.5928 -0.1890 -0.2006
  663TIP3    H126184   6.546   4.193  10.731  0.5729  0.0670  1.9351
  663TIP3    H226185   6.429   4.275  10.781 -0.9095 -1.7253  1.5283
  664TIP3   OH226186   6.070   0.475  11.065 -0.2130  0.0392 -0.1497
  664TIP3    H126187   5.999   0.412  11.082  0.2321 -0.2963  0.5274
  664TIP3    H226188   6.026   0.551  11.028 -0.9493 -0.1276  0.3458
  665TIP3   OH226189   1.121   4.462  10.858 -0.3875  0.3003  0.0183
  665TIP3    H126190   1.086   4.508  10.934  2.4052  2.0465  0.3853
  665TIP3    H226191   1.097   4.517  10.783  1.6803  1.7382  0.3121
  666TIP3   OH226192   0.754   1.874  10.002 -0.0539  0.6415  0.3035
  666TIP3    H126193   0.671   1.879  10.050 -1.3654 -0.1322 -1.7578
  666TIP3    H226194   0.785   1.785  10.018 -2.4053 -0.9954 -3.0409
  667TIP3   OH226195   2.042   1.210   8.377 -0.3446 -0.5102  0.2024
  667TIP3    H126196   2.112   1.147   8.394 -0.3731 -0.4162  0.6786
  667TIP3    H226197   2.000   1.178   8.298 -1.0272 -1.6973  1.0066
  668TIP3   OH226198   2.437   6.062   9.999 -0.2338  0.4595  0.2845
  668TIP3    H126199   2.489   6.055  10.079 -0.0228  0.4990  0.1501
  668TIP3    H226200   2.441   5.974   9.960  2.0612  1.1428 -1.1786
  669TIP3   OH226201   2.530   4.893  10.190  0.5233  0.1130  0.0772
  669TIP3    H126202   2.462   4.960  10.184 -0.1720 -0.5989 -0.1603
  669TIP3    H226203   2.606   4.939  10.225  0.0928  1.0479 -0.1913
  670TIP3   OH226204   0.428   2.262  10.610 -0.1668  0.1126 -0.1966
  670TIP3    H126205   0.403   2.223  10.694  2.2743  0.9603  1.0149
  670TIP3    H226206   0.356   2.322  10.589  0.0555  1.4434  2.3971
  671TIP3   OH226207   5.940   4.563   9.668 -0.1085 -0.0244  0.8164
  671TIP3    H126208   5.982   4.480   9.647 -0.1580  0.3560 -0.9789
  671TIP3    H226209   5.964   4.621   9.595 -1.9325  0.8416  0.8483
  672TIP3   OH226210   0.772   2.892   8.704 -0.0769  0.1152 -0.7480
  672TIP3    H126211   0.760   2.832   8.629 -0.0840  1.5097 -1.9023
  672TIP3    H226212   0.812   2.970   8.666  2.4592 -0.1060  1.1397
  673TIP3   OH226213   2.043   0.648   9.780 -0.1549 -0.0013 -0.5513
  673TIP3    H126214   1.994   0.717   9.824  0.2008  0.6740 -1.1971
  673TIP3    H226215   2.059   0.583   9.848 -2.6291 -0.6337 -0.5107
  674TIP3   OH226216   2.370   2.958  11.987  0.0960 -0.8589 -0.2955
  674TIP3    H126217   2.375   2.971  12.082 -1.7758  0.0103 -0.2693
  674TIP3    H226218   2.341   2.867  11.977 -2.9798 -0.0540  0.1628
  675TIP3   OH226219   2.386   6.411  11.436  0.1284  0.1970  0.0343
  675TIP3    H126220   2.470   6.453  11.456  0.3973 -0.5288  0.4786
  675TIP3    H226221   2.321   6.466  11.480  0.6913 -1.2993  3.0364
  676TIP3   OH226222   0.123   0.173   9.424  0.4349  0.0873  0.6183
  676TIP3    H126223   0.164   0.254   9.455  0.4794  0.5244 -0.5302
  676TIP3    H226224   0.196   0.117   9.398  0.3665  0.4197 -0.3438
  677TIP3   OH226225   4.053   1.211  10.432 -0.1695 -0.1410  0.1598
  677TIP3    H126226   4.066   1.305  10.446  2.5211 -0.3258 -0.4760
  677TIP3    H226227   3.981   1.205  10.370 -0.6033  1.4934  0.4710
  678TIP3   OH226228   1.451   2.000  10.397 -0.0281 -0.7869  0.0259
  678TIP3    H126229   1.399   2.074  10.366 -0.8299 -0.9286  0.9881
  678TIP3    H226230   1.467   1.948  10.318 -1.1910 -0.6325 -0.3284
  679TIP3   OH226231   2.946   5.303  10.269 -0.3872 -0.3291 -0.1173
  679TIP3    H126232   3.024   5.282  10.217 -0.8428 -2.0097 -0.1680
  679TIP3    H226233   2.967   5.387  10.309  0.3709  0.5523 -2.2344
  680TIP3   OH226234   4.642   1.902  10.800 -0.0176  0.0985 -0.2841
  680TIP3    H126235   4.651   1.934  10.889  0.0492  0.3725 -0.3903
  680TIP3    H226236   4.640   1.806  10.809 -0.7936  0.1375  0.0812
  681TIP3   OH226237   1.665   5.231  11.999 -0.6143  0.5070  0.4029
  681TIP3    H126238   1.730   5.189  12.054  1.2641 -0.0331 -2.0698
  681TIP3    H226239   1.610   5.159  11.967  0.5647  0.2653 -1.2160
  682TIP3   OH226240   4.257   1.600  12.621  0.0100 -0.0173 -0.3883
  682TIP3    H126241   4.203   1.657  12.567  0.4042  0.3349 -0.4165
  682TIP3    H226242   4.205   1.520  12.631 -1.4878  1.1191  1.4498
  683TIP3   OH226243   2.697   3.562   9.069 -0.6514 -0.0397 -0.2335
  683TIP3    H126244   2.613   3.529   9.036 -0.5726  0.4207 -0.9235
  683TIP3    H226245   2.706   3.647   9.027  1.2974 -1.0787 -2.1029
  684TIP3   OH226246   3.802   5.866  11.803 -0.3691 -0.4902  0.0772
  684TIP3    H126247   3.708   5.887  11.807 -0.5101 -1.1029  0.0235
  684TIP3    H226248   3.845   5.950  11.815 -0.9214 -0.3202  1.0238
  685TIP3   OH226249   5.786   6.324  10.584  0.8053 -0.3206  0.5256
  685TIP3    H126250   5.723   6.390  10.555 -0.7705 -1.5678  0.9433
  685TIP3    H226251   5.850   6.319  10.513  0.1925  0.6603 -0.1258
  686TIP3   OH226252   4.519   4.957  12.669 -0.3594  0.2131  0.4592
  686TIP3    H126253   4.540   4.980  12.760 -2.3589 -0.1367  1.0565
  686TIP3    H226254   4.593   4.989  12.618 -0.5863  3.1944  1.8395
  687TIP3   OH226255   3.464   1.927  11.107  0.9676  0.5739 -0.1207
  687TIP3    H126256   3.425   1.883  11.031  0.0120  2.0191 -0.5036
  687TIP3    H226257   3.519   1.860  11.147 -0.2394 -0.9030 -0.8039
  688TIP3   OH226258   4.266   4.280   9.823 -0.1509  0.6220 -0.0214
  688TIP3    H126259   4.341   4.221   9.831 -0.0815  0.7711  0.5175
  688TIP3    H226260   4.223   4.276   9.909 -0.9233  0.3256 -0.4058
  689TIP3   OH226261   1.129   3.555  11.745 -0.0688 -0.0995  0.2211
  689TIP3    H126262   1.115   3.498  11.670 -0.1844 -0.5173  0.5554
  689TIP3    H226263   1.193   3.508  11.799  0.8969  0.7168 -0.1629
  690TIP3   OH226264   5.273   3.584  10.508  0.4863 -0.3138 -0.2203
  690TIP3    H126265   5.271   3.495  10.545 -0.4247 -0.5671 -0.8369
  690TIP3    H226266   5.236   3.575  10.421  0.6511  0.6346 -0.4027
  691TIP3   OH226267   3.298   2.967  11.614  0.0357  0.6772 -0.0597
  691TIP3    H126268   3.328   3.003  11.697  1.8682 -0.3789 -0.2236
  691TIP3    H226269   3.329   3.029  11.548 -0.5426  0.9833 -0.0577
  692TIP3   OH226270   1.630   4.639   9.881  0.1175 -0.1885  0.6684
  692TIP3    H126271   1.676   4.562   9.916 -2.7962 -1.4125  2.1866
  692TIP3    H226272   1.599   4.611   9.795  0.9546  0.1497  0.2415
  693TIP3   OH226273   1.422   0.625   8.948  0.4280 -0.5283 -0.1561
  693TIP3    H126274   1.409   0.667   8.863  0.4370  0.6426  0.3996
  693TIP3    H226275   1.340   0.579   8.965 -0.0029  0.1701 -0.3005
  694TIP3   OH226276   1.599   1.792  12.152 -0.3994  0.0034 -0.8989
  694TIP3    H126277   1.520   1.845  12.162  0.6023  1.6792 -1.5225
  694TIP3    H226278   1.668   1.841  12.196 -0.0423 -2.5166  1.6650
  695TIP3   OH226279   3.540   5.886  11.726  0.0058  0.3787  0.8068
  695TIP3    H126280   3.548   5.978  11.749 -1.3378  0.6100  0.4730
  695TIP3    H226281   3.454   5.880  11.683 -0.2344 -1.1453  1.4454
  696TIP3   OH226282   1.174   1.975   9.815 -0.5016 -0.7895 -0.1293
  696TIP3    H126283   1.180   2.068   9.796  2.7769 -0.9343 -0.2863
  696TIP3    H226284   1.084   1.951   9.791 -0.9334  1.9679 -1.6032
  697TIP3   OH226285   1.021   3.495   9.853 -0.1094  0.5188  0.2940
  697TIP3    H126286   0.933   3.456   9.858 -0.7925  1.9288 -0.1824
  697TIP3    H226287   1.032   3.516   9.760  0.9303 -0.0374  0.2751
  698TIP3   OH226288   0.531   1.882  10.145  0.1080  0.4875 -0.5945
  698TIP3    H126289   0.516   1.888  10.240  0.2139 -2.6057 -0.2761
  698TIP3    H226290   0.453   1.840  10.111  1.6783 -2.2276 -1.1558
  699TIP3   OH226291   1.760   4.431  10.392 -0.0183 -0.0919 -0.1257
  699TIP3    H126292   1.771   4.392  10.479  0.3207  1.9347  0.7950
  699TIP3    H226293   1.686   4.490  10.401  0.0672  0.2036 -1.2036
  700TIP3   OH226294   0.642   0.895  12.202  0.8475 -0.0673 -0.4755
  700TIP3    H126295   0.655   0.954  12.128 -1.2571 -0.1858 -1.0230
  700TIP3    H226296   0.614   0.952  12.273  3.0929  0.0754  0.3696
  701TIP3   OH226297   3.165   6.506   9.562 -0.7758 -0.5871 -0.0625
  701TIP3    H126298   3.224   6.506   9.637 -0.0888  2.3521 -0.5037
  701TIP3    H226299   3.078   6.520   9.600 -0.5000  0.3517  0.2477
  702TIP3   OH226300   2.507   4.631   8.944 -0.1138 -0.1021  0.6467
  702TIP3    H126301   2.459   4.644   8.863  0.4345  0.4137  0.3981
  702TIP3    H226302   2.541   4.718   8.967  0.3744 -0.3791  1.0145
  703TIP3   OH226303   4.878   6.589   9.761  0.0871 -0.0237  0.1719
  703TIP3    H126304   4.861   6.496   9.778  1.5449 -0.0627  1.7342
  703TIP3    H226305   4.974   6.596   9.764 -0.0012  1.5015 -0.0293
  704TIP3   OH226306   5.015   0.613   9.943  0.5280 -0.1002  0.3102
  704TIP3    H126307   5.016   0.699   9.985 -1.5210  0.2533 -0.2331
  704TIP3    H226308   5.008   0.633   9.849 -0.0508 -0.8371  0.1854
  705TIP3   OH226309   5.173   5.073   9.432 -0.3048  0.3198  0.0104
  705TIP3    H126310   5.234   5.027   9.375 -1.1332 -0.6359 -0.1443
  705TIP3    H226311   5.176   5.164   9.403  1.5298  0.4376  0.4568
  706TIP3   OH226312   5.419   2.381   9.817  0.2926 -0.3043  0.3302
  706TIP3    H126313   5.508   2.357   9.793  0.7259 -0.6649  2.1656
  706TIP3    H226314   5.418   2.476   9.819  0.7861 -0.3075  0.7876
  707TIP3   OH226315   4.940   2.028  10.351  0.2949  0.3668  0.0070
  707TIP3    H126316   5.016   2.040  10.409 -0.8198 -0.3261  1.6716
  707TIP3    H226317   4.865   2.025  10.410 -1.1069  1.3927 -1.6379
  708TIP3   OH226318   5.567   0.076  11.596  0.6416  0.6498 -0.3881
  708TIP3    H126319   5.509   0.114  11.662  0.7879 -1.9396  1.3589
  708TIP3    H226320   5.515   0.078  11.516 -1.1723  0.1085  0.7108
  709TIP3   OH226321   2.788   1.285  10.911  0.5249 -0.4793  0.1694
  709TIP3    H126322   2.757   1.233  10.985 -1.0560  1.1250  0.7141
  709TIP3    H226323   2.777   1.228  10.835 -0.8422 -1.0924  0.7856
  710TIP3   OH226324   6.111   1.123  10.885  0.2722  0.3608  0.2834
  710TIP3    H126325   6.076   1.212  10.878  2.1232  1.1128 -0.0836
  710TIP3    H226326   6.147   1.119  10.973  0.7272  0.1988  0.0934
  711TIP3   OH226327   1.491   6.124   9.735  0.2900  0.2125  0.1899
  711TIP3    H126328   1.456   6.105   9.822  1.5019  0.5607  0.7784
  711TIP3    H226329   1.459   6.211   9.714 -0.4311 -0.0798  0.0531
  712TIP3   OH226330   2.163   1.267   9.103  0.3332 -0.4407  0.6410
  712TIP3    H126331   2.154   1.308   9.189  1.9869 -0.5395  0.9031
  712TIP3    H226332   2.193   1.178   9.122  0.0733 -0.6719 -0.0141
  713TIP3   OH226333   4.624   4.867  10.301  0.1007  0.1094 -0.6031
  713TIP3    H126334   4.625   4.946  10.356 -3.6777 -0.5354  0.7020
  713TIP3    H226335   4.676   4.803  10.350 -0.7628  0.4246  0.7834
  714TIP3   OH226336   0.593   1.127  11.190  0.2712  0.1540  0.0931
  714TIP3    H126337   0.545   1.049  11.160 -0.1138  0.4487 -0.0722
  714TIP3    H226338   0.555   1.199  11.140 -0.7023  0.7284  1.5821
  715TIP3   OH226339   2.092   5.520   9.782 -0.2679 -0.1433 -0.0166
  715TIP3    H126340   2.109   5.603   9.737  0.7640 -0.4451 -0.2045
  715TIP3    H226341   2.035   5.544   9.855 -0.1889  0.6900 -0.2101
  716TIP3   OH226342   0.961   5.611  10.575 -0.0427  0.0056 -0.0810
  716TIP3    H126343   0.982   5.594  10.667 -2.5111  1.1126  0.7886
  716TIP3    H226344   0.929   5.702  10.575 -0.5187 -0.1310 -1.9417
  717TIP3   OH226345   5.891   3.869  10.800  0.4981  0.4933 -0.1873
  717TIP3    H126346   5.827   3.935  10.775  0.7687  0.6993 -0.3500
  717TIP3    H226347   5.928   3.839  10.717  0.5991  0.3624 -0.0955
  718TIP3   OH226348   0.682   2.890   9.100 -0.0151  0.6553  0.0888
  718TIP3    H126349   0.743   2.965   9.100  0.9564 -0.0345  2.7396
  718TIP3    H226350   0.701   2.844   9.181 -3.0438 -0.5164  0.2479
  719TIP3   OH226351   4.593   1.720  11.148  0.3475 -0.2681  0.4711
  719TIP3    H126352   4.601   1.752  11.238 -0.4056  2.3589 -0.3117
  719TIP3    H226353   4.510   1.673  11.146  0.4755 -0.5267  1.2151
  720TIP3   OH226354   4.405   1.675  11.706  0.3056 -0.4155  0.0049
  720TIP3    H126355   4.424   1.605  11.644 -1.9808  1.0418 -2.5575
  720TIP3    H226356   4.416   1.755  11.656 -2.0931  0.8294  1.2760
  721TIP3   OH226357   5.777   1.218  11.573 -0.3394 -0.3153  0.9749
  721TIP3    H126358   5.724   1.144  11.542 -1.5171  1.1531 -0.7261
  721TIP3    H226359   5.823   1.184  11.650  1.0203 -3.5130 -1.0632
  722TIP3   OH226360   2.834   5.172  10.767  0.6528  0.1848  0.2026
  722TIP3    H126361   2.826   5.152  10.674  0.7237  0.9763  0.0186
  722TIP3    H226362   2.858   5.089  10.808  0.2944 -0.2420 -0.4387
  723TIP3   OH226363   2.247   2.433   9.640  0.7463 -0.0121 -0.0357
  723TIP3    H126364   2.214   2.420   9.729 -0.2918 -1.4972 -0.5987
  723TIP3    H226365   2.314   2.366   9.629  1.2264  0.4898 -0.2086
  724TIP3   OH226366   2.991   1.167  11.359 -0.2763 -0.3050 -0.1094
  724TIP3    H126367   3.006   1.261  11.369  2.6404 -0.8397  2.0744
  724TIP3    H226368   2.921   1.148  11.421  0.9416  0.1286  1.4899
  725TIP3   OH226369   0.031   4.162   9.917  0.7115  0.0879 -0.2556
  725TIP3    H126370   0.058   4.103   9.847  0.7964 -0.6794  0.4219
  725TIP3    H226371   0.103   4.161   9.979 -1.5002 -3.6559  2.6676
  726TIP3   OH226372   4.560   1.298   8.580 -0.1986 -0.0622 -0.3835
  726TIP3    H126373   4.543   1.212   8.541 -0.1846  1.0892 -3.1221
  726TIP3    H226374   4.644   1.286   8.626  0.2008 -1.3427 -1.3631
  727TIP3   OH226375   5.415   4.320  10.400 -0.5747  0.2074  0.1001
  727TIP3    H126376   5.482   4.270  10.354 -0.3506  0.6860 -0.0912
  727TIP3    H226377   5.333   4.298  10.355 -0.6628 -0.8772  0.7294
  728TIP3   OH226378   1.114   1.753  10.852  0.3709  0.5442  0.8626
  728TIP3    H126379   1.209   1.751  10.856  0.3976 -1.1446  0.3305
  728TIP3    H226380   1.094   1.750  10.758 -0.2096  1.4653  0.9508
  729TIP3   OH226381   4.648   2.831  12.201 -0.3684  0.3302  0.3566
  729TIP3    H126382   4.567   2.860  12.244 -0.7907 -0.1152 -0.1327
  729TIP3    H226383   4.646   2.735  12.209 -0.2198  0.2770 -0.2515
  730TIP3   OH226384   5.355   6.597  12.223  0.3397 -0.3384 -0.1804
  730TIP3    H126385   5.408   6.667  12.184 -1.1817  1.5932  0.9940
  730TIP3    H226386   5.404   6.571  12.301  0.9322 -0.6063 -0.6377
  731TIP3   OH226387   2.951   2.619   9.582  0.2774 -0.3489 -0.7493
  731TIP3    H126388   2.998   2.548   9.626 -0.8152 -0.6500 -0.0139
  731TIP3    H226389   3.020   2.675   9.546  1.1814 -0.9587 -0.0168
  732TIP3   OH226390   3.452   3.808   9.441 -0.3677  0.0645  0.3186
  732TIP3    H126391   3.444   3.750   9.517 -2.2579  0.2782  0.3318
  732TIP3    H226392   3.397   3.767   9.374 -2.0309  1.9201  0.4334
  733TIP3   OH226393   4.464   3.156   9.344 -0.0471 -0.5756 -0.6780
  733TIP3    H126394   4.388   3.200   9.306 -0.9763  0.2908  1.9732
  733TIP3    H226395   4.429   3.108   9.419  2.1941  1.2888  1.7284
  734TIP3   OH226396   6.218   4.042  10.113 -0.3283 -0.3304  0.4716
  734TIP3    H126397   6.141   4.097  10.127  0.0308  0.5405 -0.7402
  734TIP3    H226398   6.280   4.100  10.068  0.0706 -1.7214 -0.8578
  735TIP3   OH226399   2.702   4.732  11.322  0.3571  0.5699 -0.0379
  735TIP3    H126400   2.696   4.798  11.253 -1.3821 -0.5014 -0.9732
  735TIP3    H226401   2.620   4.741  11.372 -0.4275 -1.5275 -0.8389
  736TIP3   OH226402   1.585   1.808   9.715 -0.2675 -0.2062  0.1156
  736TIP3    H126403   1.554   1.837   9.629  0.3477 -0.2018 -0.1065
  736TIP3    H226404   1.506   1.776   9.759 -0.1870 -2.9547 -1.5070
  737TIP3   OH226405   2.077   2.725   8.554  0.4066 -0.9558  0.3562
  737TIP3    H126406   2.010   2.793   8.551  2.7087  1.4607  0.1150
  737TIP3    H226407   2.094   2.704   8.462  1.6585  0.2863  0.2715
  738TIP3   OH226408   0.554   0.524  11.762  0.1933  0.2836 -0.2686
  738TIP3    H126409   0.490   0.590  11.735 -0.2110 -0.0025 -0.0164
  738TIP3    H226410   0.630   0.575  11.790 -0.3829  0.6770  0.6237
  739TIP3   OH226411   3.037   6.018   9.686  0.0792  0.2460 -0.7255
  739TIP3    H126412   2.964   5.998   9.628  0.3564 -1.8895 -0.4228
  739TIP3    H226413   3.055   5.936   9.732  0.9130  1.4450  1.2150
  740TIP3   OH226414   2.113   6.557  12.132  0.3369  0.2825  0.1186
  740TIP3    H126415   2.093   6.464  12.130  0.3572  0.2542 -2.3909
  740TIP3    H226416   2.063   6.594  12.059  0.0763  2.3145  1.2353
  741TIP3   OH226417   6.590   5.796  11.413 -0.6042 -0.2433  0.0775
  741TIP3    H126418   6.605   5.701  11.416 -0.6635 -0.2224  1.0216
  741TIP3    H226419   6.674   5.834  11.437 -0.3273 -0.0249 -1.1482
  742TIP3   OH226420   3.631   3.928  12.417 -0.4211 -0.0463  0.1869
  742TIP3    H126421   3.649   3.900  12.327 -0.0856  0.2298  0.1673
  742TIP3    H226422   3.714   3.962  12.449 -0.4128 -0.5955  0.7763
  743TIP3   OH226423   6.160   2.484  10.913 -0.4753  0.0614  0.7097
  743TIP3    H126424   6.065   2.480  10.906 -0.4535  1.0791 -0.4906
  743TIP3    H226425   6.178   2.568  10.955 -0.0888  0.4226 -0.1428
  744TIP3   OH226426   4.178   3.112  11.624 -0.0532  0.1456  0.3708
  744TIP3    H126427   4.146   3.201  11.612 -0.5918 -0.2211 -1.0838
  744TIP3    H226428   4.206   3.109  11.715  1.1689  2.1766  0.1263
  745TIP3   OH226429   2.277   1.039   9.469 -0.3621 -0.5219 -0.1629
  745TIP3    H126430   2.343   1.023   9.401 -0.5320 -0.3822 -0.3626
  745TIP3    H226431   2.219   1.105   9.430  0.3477  0.6113  0.6477
  746TIP3   OH226432   2.820   5.733  10.120  0.2077 -0.1517 -0.2345
  746TIP3    H126433   2.862   5.710  10.037 -0.0067  0.6291 -0.5728
  746TIP3    H226434   2.791   5.649  10.156 -0.8409 -0.4107 -1.5706
  747TIP3   OH226435   3.622   1.512   9.432 -0.8802  0.3739  0.2245
  747TIP3    H126436   3.594   1.424   9.455 -1.4123  0.5516  0.2654
  747TIP3    H226437   3.614   1.516   9.337  2.8791 -0.9097 -0.3178
  748TIP3   OH226438   4.577   4.713   9.643 -0.0583 -0.5015 -0.0589
  748TIP3    H126439   4.519   4.755   9.579  0.0619 -0.2279  0.0107
  748TIP3    H226440   4.654   4.769   9.646  0.9111 -1.7062 -1.3222
  749TIP3   OH226441   4.137   3.767  10.842 -0.4871  0.1558 -0.2032
  749TIP3    H126442   4.043   3.770  10.826 -0.2780 -0.2517 -1.5887
  749TIP3    H226443   4.152   3.680  10.879 -0.5115 -0.2255 -1.0630
  750TIP3   OH226444   2.114   2.996  11.320  0.7081 -0.1334 -0.0809
  750TIP3    H126445   2.132   3.077  11.272  0.9731 -0.7311 -1.0034
  750TIP3    H226446   2.036   3.016  11.372  0.3220  0.4767 -0.8753
  751TIP3   OH226447   5.106   4.452   9.995 -0.0792 -0.0524  0.6397
  751TIP3    H126448   5.089   4.448   9.901  1.9079  1.5084  0.1183
  751TIP3    H226449   5.039   4.511  10.029  0.1384  0.6603 -0.1176
  752TIP3   OH226450   2.763   2.651  10.908 -0.1263 -0.4539  0.1061
  752TIP3    H126451   2.679   2.646  10.955 -0.8543 -0.4933 -1.1508
  752TIP3    H226452   2.792   2.560  10.902 -0.3113 -0.5057 -0.0084
  753TIP3   OH226453   1.217   6.573  11.534  0.1652 -0.1642 -0.0696
  753TIP3    H126454   1.306   6.539  11.529  0.5652  0.6680  0.8883
  753TIP3    H226455   1.224   6.647  11.595 -1.3668 -0.6981  0.7836
  754TIP3   OH226456   4.313   3.824   9.442 -0.1124  0.3343 -0.5505
  754TIP3    H126457   4.255   3.752   9.467  0.2395 -0.5056 -1.9775
  754TIP3    H226458   4.318   3.879   9.519 -2.2005  0.0393 -0.1473
  755TIP3   OH226459   4.572   5.712   9.340 -0.0237  0.7090  0.4429
  755TIP3    H126460   4.544   5.635   9.391  0.7828  1.9887  2.9700
  755TIP3    H226461   4.493   5.739   9.293 -0.0631 -2.2918 -1.5192
  756TIP3   OH226462   5.991   3.039  10.463 -0.4784 -0.1988  0.0113
  756TIP3    H126463   6.075   3.060  10.421  1.0782 -1.0904  2.4702
  756TIP3    H226464   6.010   2.965  10.520 -2.9963 -0.4849  0.6179
  757TIP3   OH226465   0.619   4.212  10.850 -0.5016 -0.3555 -0.1888
  757TIP3    H126466   0.693   4.241  10.797  0.2702  0.5148  1.2996
  757TIP3    H226467   0.612   4.118  10.832 -1.5242  0.2105 -3.2706
  758TIP3   OH226468   0.291   4.310  11.808  0.4423  0.5617  0.1002
  758TIP3    H126469   0.244   4.393  11.813  0.1643  0.3825  0.6170
  758TIP3    H226470   0.309   4.297  11.715  0.0572  0.9625 -0.0310
  759TIP3   OH226471   4.078   5.476  11.575  0.1102  0.6063 -0.4121
  759TIP3    H126472   4.082   5.537  11.501 -0.6839  0.4633 -0.5825
  759TIP3    H226473   4.120   5.523  11.647 -0.7789  1.4934 -0.4515
  760TIP3   OH226474   2.306   1.634  12.322 -0.6243  0.4148  0.1973
  760TIP3    H126475   2.218   1.667  12.302 -1.5299 -1.5095  0.7984
  760TIP3    H226476   2.294   1.583  12.402  0.3860 -2.4188 -1.3157
  761TIP3   OH226477   1.830   3.225  10.848 -0.6186 -0.1496  0.0386
  761TIP3    H126478   1.854   3.211  10.757  0.3154  0.5783  0.1658
  761TIP3    H226479   1.901   3.277  10.885 -2.6536  2.7505  0.2369
  762TIP3   OH226480   4.938   1.542  12.463  0.2530  0.0749  0.0708
  762TIP3    H126481   4.985   1.527  12.380  0.1587 -0.7374  0.1511
  762TIP3    H226482   4.846   1.540  12.439  0.0973 -2.7145  0.5110
  763TIP3   OH226483   0.546   0.061  10.094 -0.1491  0.5473  0.2814
  763TIP3    H126484   0.496   0.125  10.043  0.1238  0.1644 -0.4711
  763TIP3    H226485   0.593   0.009  10.029 -0.1109 -0.2095  0.9002
  764TIP3   OH226486   3.410   0.814  10.664 -0.5906  0.3153 -0.3431
  764TIP3    H126487   3.332   0.759  10.661 -0.7237  0.5244 -0.8571
  764TIP3    H226488   3.382   0.898  10.628 -0.6042  1.0066  1.2254
  765TIP3   OH226489   5.844   0.604  10.447  0.2609  0.0157  0.2508
  765TIP3    H126490   5.779   0.634  10.384  0.8627  1.7389  0.3773
  765TIP3    H226491   5.848   0.510  10.436 -0.0273  0.2193 -1.9186
  766TIP3   OH226492   0.275   2.301   9.967 -0.2959 -0.1789  0.0034
  766TIP3    H126493   0.326   2.381   9.983 -0.9321 -0.0170  1.2768
  766TIP3    H226494   0.342   2.234   9.951  0.4667 -0.3037  3.1280
  767TIP3   OH226495   3.340   5.453  10.331 -0.4450  0.0622 -0.0967
  767TIP3    H126496   3.400   5.528  10.335 -1.5105  0.9607 -0.4593
  767TIP3    H226497   3.378   5.389  10.391  0.6133  0.7978  0.0497
  768TIP3   OH226498   5.415   6.196  10.035  0.3667  0.1638 -0.1969
  768TIP3    H126499   5.510   6.205  10.035  0.4847 -0.7808 -1.1619
  768TIP3    H226500   5.384   6.266  10.091  1.7199 -0.5331  1.5113
  769TIP3   OH226501   3.717   2.110   9.480  0.5171 -0.6223  0.2280
  769TIP3    H126502   3.626   2.102   9.450  1.1890 -1.8739 -1.6254
  769TIP3    H226503   3.751   2.021   9.482  2.3290 -0.0370 -1.2463
  770TIP3   OH226504   4.173   2.991   9.661  0.0901 -0.0370 -0.4299
  770TIP3    H126505   4.111   3.019   9.594 -1.3019 -0.1892  0.7420
  770TIP3    H226506   4.151   2.899   9.678 -0.4413  0.3422  1.1032
  771TIP3   OH226507   5.935   3.786   9.246  0.0651  0.4703 -0.4556
  771TIP3    H126508   5.986   3.838   9.184 -0.1233  1.0551 -0.1254
  771TIP3    H226509   5.889   3.722   9.191  0.5344  0.4538 -0.8326
  772TIP3   OH226510   4.780   1.605  10.866  0.3453  0.5626  0.6342
  772TIP3    H126511   4.708   1.609  10.929 -0.6937  0.2411 -0.4954
  772TIP3    H226512   4.804   1.512  10.863 -0.4935  0.3641 -0.3868
  773TIP3   OH226513   3.971   0.711  10.252 -0.2548  1.1774  0.7168
  773TIP3    H126514   4.021   0.791  10.238  0.4935  0.6041 -0.0077
  773TIP3    H226515   4.013   0.669  10.327  1.3847 -0.0291 -0.7687
  774TIP3   OH226516   3.645   2.046  11.453  0.3574 -0.3072 -0.6590
  774TIP3    H126517   3.675   2.102  11.525 -1.9524  0.2441 -0.0530
  774TIP3    H226518   3.598   2.106  11.394 -0.8990 -1.3234 -0.7381
  775TIP3   OH226519   0.566   3.317  10.497 -0.0596  0.0348 -0.2059
  775TIP3    H126520   0.657   3.326  10.526 -0.5742  1.7922  1.0548
  775TIP3    H226521   0.543   3.403  10.463 -1.1832 -0.4487 -0.7198
  776TIP3   OH226522   3.272   0.670  12.381  0.0378 -0.8096 -0.2347
  776TIP3    H126523   3.179   0.674  12.406  0.0426  0.6404 -0.3637
  776TIP3    H226524   3.272   0.688  12.287  0.5682  1.0654  0.0940
  777TIP3   OH226525   3.041   3.834  10.750 -0.1683 -0.1246 -0.3054
  777TIP3    H126526   2.974   3.809  10.687  0.7447  0.4668 -1.5647
  777TIP3    H226527   3.082   3.751  10.775 -0.8204 -0.4071 -0.1564
  778TIP3   OH226528   6.215   6.403  12.006 -0.6245  0.5506  0.0239
  778TIP3    H126529   6.252   6.402  12.095 -2.4998 -2.5429  0.9507
  778TIP3    H226530   6.273   6.347  11.955 -1.6299 -0.8550  0.3758
  779TIP3   OH226531   0.723   2.623  11.942 -0.6703  0.1931  0.0530
  779TIP3    H126532   0.634   2.651  11.959 -1.0047 -1.1000  0.5268
  779TIP3    H226533   0.776   2.703  11.954 -1.7192  0.9135 -0.0059
  780TIP3   OH226534   3.140   3.145   8.414  0.2656  0.7225  0.2146
  780TIP3    H126535   3.111   3.154   8.323 -0.1646 -1.2218  0.1229
  780TIP3    H226536   3.075   3.088   8.454  0.4823  1.5084  1.7585
  781TIP3   OH226537   2.432   4.233  12.116 -0.0590 -0.2595 -0.6982
  781TIP3    H126538   2.464   4.162  12.061  0.6562  0.1219 -0.7887
  781TIP3    H226539   2.505   4.253  12.175 -0.8439 -0.7334  0.4822
  782TIP3   OH226540   3.339   6.021  10.666 -0.7584  0.3163 -0.6677
  782TIP3    H126541   3.336   6.082  10.593 -1.0712 -0.6810 -1.5081
  782TIP3    H226542   3.413   5.964  10.647  0.2248  1.0918  0.6702
  783TIP3   OH226543   2.499   5.576  12.040 -0.2432  0.2595  0.0594
  783TIP3    H126544   2.548   5.544  11.964 -0.1607 -0.1373  0.2763
  783TIP3    H226545   2.541   5.534  12.115 -2.1717 -1.7739  0.1221
  784TIP3   OH226546   4.658   3.380  10.458 -0.1556  0.3576 -0.2772
  784TIP3    H126547   4.700   3.448  10.510  0.5167 -0.8983  0.8987
  784TIP3    H226548   4.568   3.377  10.490  0.5880 -1.3440  1.9498
  785TIP3   OH226549   2.269   4.578  11.669  0.1679  0.3551 -0.1631
  785TIP3    H126550   2.297   4.489  11.648  2.5739  0.6518  1.4678
  785TIP3    H226551   2.318   4.633  11.609  0.8214  0.7168  0.6897
  786TIP3   OH226552   5.187   2.909  12.347  0.3653 -0.2644 -0.2525
  786TIP3    H126553   5.226   2.832  12.387 -0.0899 -0.2680  0.1892
  786TIP3    H226554   5.259   2.952  12.302  0.7538 -0.5923  0.0545
  787TIP3   OH226555   2.433   2.751   8.950 -0.3622 -0.2422 -0.2086
  787TIP3    H126556   2.490   2.677   8.931 -1.5214 -1.6587  1.4734
  787TIP3    H226557   2.348   2.726   8.913 -1.0060 -0.2369  1.1946
  788TIP3   OH226558   6.594   2.369  10.828 -0.4158 -0.2316  0.1277
  788TIP3    H126559   6.643   2.380  10.910  0.1952  0.4745 -0.3220
  788TIP3    H226560   6.547   2.451  10.818 -2.2075 -1.1218  0.8649
  789TIP3   OH226561   3.119   6.509  10.340  0.0450  0.1029 -0.6500
  789TIP3    H126562   3.113   6.570  10.266 -0.8130  0.5088 -0.2649
  789TIP3    H226563   3.037   6.458  10.335 -1.3113  1.8972  1.5089
  790TIP3   OH226564   4.383   3.901   9.746 -0.2754  0.4818  0.3589
  790TIP3    H126565   4.397   3.870   9.836 -0.8124  0.9139  0.5978
  790TIP3    H226566   4.446   3.852   9.693  0.6152  0.8211  1.0861
  791TIP3   OH226567   4.598   2.285   9.335 -0.2978  0.2078  0.0189
  791TIP3    H126568   4.574   2.216   9.274 -0.1495  0.4227 -0.2828
  791TIP3    H226569   4.585   2.366   9.287 -0.4187  0.3899  0.3526
  792TIP3   OH226570   4.389   0.251  10.769  0.4474 -0.4585  0.9453
  792TIP3    H126571   4.361   0.342  10.785  1.8635  0.0984  0.4032
  792TIP3    H226572   4.319   0.214  10.716  1.1312  1.2051 -1.2558
  793TIP3   OH226573   0.331   4.014  10.803 -0.7831 -0.1803 -0.4212
  793TIP3    H126574   0.287   3.953  10.862  1.1428 -1.2721 -0.0347
  793TIP3    H226575   0.418   3.976  10.790 -0.1661  1.5458 -1.6636
  794TIP3   OH226576   2.392   4.523  12.649  0.3144  0.0761  0.0980
  794TIP3    H126577   2.326   4.453  12.649 -1.4392  1.6484  0.5454
  794TIP3    H226578   2.425   4.525  12.739 -0.9418  0.9452  0.5667
  795TIP3   OH226579   2.175   2.401   9.904  0.2917  0.1025  0.3622
  795TIP3    H126580   2.212   2.477   9.949 -1.9886  1.0401  0.8052
  795TIP3    H226581   2.081   2.420   9.898  0.1699 -0.9262 -3.0018
  796TIP3   OH226582   2.799   2.640  12.272  0.5825 -0.1407 -0.2078
  796TIP3    H126583   2.717   2.599  12.243  0.4516 -1.4416  1.7914
  796TIP3    H226584   2.773   2.727  12.301  0.3660  0.3755 -1.8300
  797TIP3   OH226585   0.795   2.331  10.830  0.6320 -0.8432 -0.1860
  797TIP3    H126586   0.872   2.273  10.828  0.3950 -1.1346 -1.5301
  797TIP3    H226587   0.768   2.338  10.739 -1.0161 -0.8470  0.2774
  798TIP3   OH226588   5.599   0.351  10.477  0.4260 -0.0766  0.0556
  798TIP3    H126589   5.569   0.308  10.557  1.0033 -0.5495  0.0275
  798TIP3    H226590   5.674   0.299  10.449 -0.5278 -0.6801 -1.5102
  799TIP3   OH226591   3.126   0.960  10.060 -0.5710  0.5814  0.4371
  799TIP3    H126592   3.200   1.003  10.102 -0.5963  0.5474  0.5170
  799TIP3    H226593   3.051   0.980  10.116 -0.4382 -0.2524  0.9267
  800TIP3   OH226594   0.957   1.547  10.364 -1.0011 -0.4534  0.0987
  800TIP3    H126595   0.943   1.453  10.352  0.0104 -0.3882 -1.9420
  800TIP3    H226596   0.911   1.588  10.290  0.1708  0.5118 -0.1239
  801TIP3   OH226597   3.031   2.066  10.445 -0.1406  0.0322 -0.7684
  801TIP3    H126598   3.040   2.109  10.530 -2.7293 -2.8709  1.2051
  801TIP3    H226599   3.079   1.984  10.454 -1.8006 -1.0745 -1.4006
  802TIP3   OH226600   2.631   0.841  10.976 -0.3330 -0.4490 -0.0447
  802TIP3    H126601   2.600   0.841  10.885  1.7540  0.6329 -0.8287
  802TIP3    H226602   2.709   0.786  10.974  0.4209  0.5633  0.8101
  803TIP3   OH226603   2.685   1.141   9.432 -0.3266  0.6485  0.1476
  803TIP3    H126604   2.773   1.110   9.414  0.0342  0.9969  1.2360
  803TIP3    H226605   2.683   1.231   9.399 -0.2149  0.6988  0.2761
  804TIP3   OH226606   0.428   0.685  12.200  0.3680 -0.0065  0.3575
  804TIP3    H126607   0.355   0.735  12.236  1.0499  1.1372  0.1915
  804TIP3    H226608   0.502   0.746  12.200  1.3463 -1.1443  0.5624
  805TIP3   OH226609   3.095   4.429   9.348 -0.0696 -0.3304  0.3112
  805TIP3    H126610   3.179   4.425   9.394 -0.1419 -0.8400  0.4099
  805TIP3    H226611   3.033   4.386   9.408  0.0232 -1.8836 -0.6641
  806TIP3   OH226612   5.095   0.901  11.662  0.0042 -0.4753  0.0139
  806TIP3    H126613   5.034   0.847  11.712 -1.3076  0.2681 -0.7204
  806TIP3    H226614   5.065   0.991  11.675  0.3947 -0.1626 -1.0729
  807TIP3   OH226615   3.841   2.287   8.952 -0.3165  0.3166  0.0570
  807TIP3    H126616   3.797   2.218   8.903 -0.8341  1.3149 -0.9373
  807TIP3    H226617   3.845   2.255   9.042  1.4195 -1.9509 -0.7511
  808TIP3   OH226618   0.301   0.051  10.409 -0.2655  0.0509 -0.0736
  808TIP3    H126619   0.255  -0.028  10.381 -0.4619  0.3927 -0.7699
  808TIP3    H226620   0.394   0.029  10.402 -0.1321 -1.7897  4.5961
  809TIP3   OH226621   1.389   4.182  12.654 -0.2256 -0.2756  0.0521
  809TIP3    H126622   1.400   4.277  12.642  0.3315 -0.3842 -0.3429
  809TIP3    H226623   1.362   4.173  12.746 -0.6310  0.2881 -0.0044
  810TIP3   OH226624   5.998   3.221   1.695 -0.0911  0.6878  0.1064
  810TIP3    H126625   5.977   3.206   1.602 -1.8587  1.0168  0.4116
  810TIP3    H226626   5.938   3.162   1.742  0.9508  0.3502  1.0525
  811TIP3   OH226627   6.407   3.734  11.015  0.3379 -0.2995  0.2237
  811TIP3    H126628   6.433   3.754  10.925 -0.8090 -1.3073 -0.3613
  811TIP3    H226629   6.412   3.639  11.021 -1.5232 -0.4170  0.5744
  812TIP3   OH226630   3.132   1.784   9.353  0.2214  0.2305 -0.1551
  812TIP3    H126631   3.214   1.755   9.313 -0.0150  0.2255 -0.6417
  812TIP3    H226632   3.156   1.806   9.443  1.0418  1.5543 -0.6685
  813TIP3   OH226633   0.755   2.416  11.258 -0.9069  0.6250 -0.3385
  813TIP3    H126634   0.668   2.446  11.232 -1.2820  0.2396  0.4248
  813TIP3    H226635   0.770   2.457  11.343 -0.2163  0.9234 -0.6046
  814TIP3   OH226636   1.163   2.493   9.724  0.1282  0.1993 -0.8356
  814TIP3    H126637   1.107   2.557   9.769  1.1177  0.4322  0.0952
  814TIP3    H226638   1.203   2.543   9.653  0.5647  0.5108 -0.3751
  815TIP3   OH226639   0.347   2.498   8.879 -0.0692 -0.0634  0.6197
  815TIP3    H126640   0.335   2.435   8.809  0.5732 -0.9989  1.3269
  815TIP3    H226641   0.322   2.451   8.959  2.3175 -0.1365  1.4044
  816TIP3   OH226642   6.059   1.704  11.719  0.1418  0.1210 -0.2678
  816TIP3    H126643   6.044   1.613  11.743 -0.4829  0.2398 -0.1852
  816TIP3    H226644   6.154   1.713  11.716  0.2450 -0.0653  1.4960
  817TIP3   OH226645   2.254   2.215  12.061 -0.4306  0.8451  0.4784
  817TIP3    H126646   2.188   2.145  12.060 -0.7510  1.1427  0.3651
  817TIP3    H226647   2.280   2.222  12.153  1.5495 -1.2024  0.1490
  818TIP3   OH226648   6.502   2.766  10.446 -0.0998  0.3462  0.1963
  818TIP3    H126649   6.479   2.817  10.368 -1.0733 -0.1494  0.1483
  818TIP3    H226650   6.417   2.738  10.482  0.2857  1.0334  1.7544
  819TIP3   OH226651   2.498   5.035  11.554 -0.5951  0.0746  0.2980
  819TIP3    H126652   2.584   4.997  11.572 -0.9725 -0.4431  1.0892
  819TIP3    H226653   2.473   4.998  11.469 -0.3718 -0.3962  0.4291
  820TIP3   OH226654   5.905   3.343   9.844 -0.7780 -0.9161  0.1203
  820TIP3    H126655   5.938   3.413   9.900  0.4781 -0.2314 -1.4029
  820TIP3    H226656   5.948   3.263   9.877 -0.0348 -0.5238  0.1236
  821TIP3   OH226657   0.508   5.655  10.567  0.4735  0.1012  0.3010
  821TIP3    H126658   0.500   5.749  10.582  1.3367  0.3249 -0.5477
  821TIP3    H226659   0.454   5.615  10.635  0.5545  1.1928  1.0288
  822TIP3   OH226660   1.737   2.769  12.401 -0.7729 -0.2517 -0.0562
  822TIP3    H126661   1.664   2.824  12.430 -0.1973  0.0956  0.7549
  822TIP3    H226662   1.800   2.831  12.364 -0.5665 -0.4735 -0.0748
  823TIP3   OH226663   6.120   5.602  10.402  0.3443  0.3766 -0.1172
  823TIP3    H126664   6.169   5.520  10.394 -0.4119 -0.2657  1.4082
  823TIP3    H226665   6.030   5.574  10.419  0.0972  1.5211  0.5500
  824TIP3   OH226666   0.266   5.980  11.929 -0.0030  0.1081 -0.2397
  824TIP3    H126667   0.357   6.008  11.916  0.4661 -0.3335  1.7571
  824TIP3    H226668   0.241   6.017  12.014 -1.1639 -1.0414 -0.0387
  825TIP3   OH226669   0.687   1.286  10.091  0.2882 -0.1983  0.1337
  825TIP3    H126670   0.659   1.351  10.027 -0.6574 -0.9006 -0.1946
  825TIP3    H226671   0.684   1.203  10.043  0.1052 -0.6584  0.9331
  826TIP3   OH226672   3.489   0.249  12.290 -0.4737 -0.3057 -0.0317
  826TIP3    H126673   3.508   0.160  12.320 -2.3602 -0.9679 -0.6593
  826TIP3    H226674   3.394   0.252  12.280 -0.5554  2.0637  0.7402
  827TIP3   OH226675   3.513   1.149  11.225  0.2637 -0.4258 -1.0196
  827TIP3    H126676   3.492   1.214  11.291  1.2554 -1.5975  0.5028
  827TIP3    H226677   3.588   1.102  11.260  1.8554 -0.0802 -3.7091
  828TIP3   OH226678   5.244   0.472  11.300 -0.0680 -0.3796 -0.3474
  828TIP3    H126679   5.225   0.421  11.221  0.0084 -2.0130  0.6287
  828TIP3    H226680   5.235   0.408  11.371 -1.1574  1.2757  1.0643
  829TIP3   OH226681   1.442   4.732  12.631 -0.5830  0.3516  0.5558
  829TIP3    H126682   1.470   4.748  12.541  0.7141 -1.4780  0.5817
  829TIP3    H226683   1.427   4.820  12.667  1.4232  1.2833 -0.6695
  830TIP3   OH226684   2.140   3.538  10.212  0.5208  0.0265 -0.4708
  830TIP3    H126685   2.057   3.563  10.253  0.4415 -2.9283  1.4714
  830TIP3    H226686   2.207   3.581  10.265  0.2969 -0.2142  0.0106
  831TIP3   OH226687   5.834   6.094   9.561  0.5546 -0.0129 -0.0625
  831TIP3    H126688   5.807   6.086   9.653  0.4991  3.9587  0.4425
  831TIP3    H226689   5.929   6.104   9.565  0.6488 -0.6864 -0.5485
  832TIP3   OH226690   3.535   3.673  10.204 -0.2748  0.4965  0.2133
  832TIP3    H126691   3.627   3.679  10.231 -0.8194  1.3432  1.9963
  832TIP3    H226692   3.508   3.763  10.189 -0.4083  0.1588 -1.9944
  833TIP3   OH226693   2.799   2.932  10.217 -0.4946  0.2486  0.0519
  833TIP3    H126694   2.869   2.866  10.216 -0.7046  0.0239  0.1641
  833TIP3    H226695   2.718   2.882  10.219 -0.7438  0.4795 -2.0770
  834TIP3   OH226696   2.094   6.435   9.404 -0.3890 -0.0551 -0.1567
  834TIP3    H126697   2.088   6.423   9.499 -0.1380  2.1315  0.2006
  834TIP3    H226698   2.067   6.351   9.367 -0.7217 -0.8846  1.8408
  835TIP3   OH226699   2.322   5.285  11.767 -0.0899  0.4695 -0.3246
  835TIP3    H126700   2.244   5.236  11.740  0.5774 -0.6259 -0.3021
  835TIP3    H226701   2.340   5.343  11.693 -0.2973 -0.0494 -0.7918
  836TIP3   OH226702   2.840   1.037   9.670  0.1293  0.1614  0.0670
  836TIP3    H126703   2.879   0.993   9.594 -1.3413 -0.7959 -0.1749
  836TIP3    H226704   2.745   1.029   9.656 -0.1708  0.0556  1.9362
  837TIP3   OH226705   3.927   1.359  12.212 -0.3043 -0.2966  0.2242
  837TIP3    H126706   4.009   1.346  12.259 -0.3373  0.3106  0.4485
  837TIP3    H226707   3.878   1.421  12.265 -0.5804 -0.0460 -0.3168
  838TIP3   OH226708   1.234   1.081  10.132 -0.6095 -0.6549  0.3420
  838TIP3    H126709   1.289   1.048  10.203  0.6345  1.1001  0.2594
  838TIP3    H226710   1.277   1.051  10.052 -0.5556 -0.4547  0.2950
  839TIP3   OH226711   2.677   0.742  11.338 -0.0689 -0.0557 -0.0299
  839TIP3    H126712   2.619   0.712  11.267 -2.0204  0.5365  1.2425
  839TIP3    H226713   2.638   0.706  11.418  0.1297  2.0377  1.0866
  840TIP3   OH226714   0.515   3.426   8.960 -0.6803 -0.3297 -0.1191
  840TIP3    H126715   0.605   3.423   8.929 -1.2676  1.1953 -2.1636
  840TIP3    H226716   0.477   3.342   8.933 -0.1065 -0.6271 -0.0052
  841TIP3   OH226717   0.995   2.280   9.713  0.0531  0.0323 -0.3411
  841TIP3    H126718   1.058   2.346   9.685  1.6793 -1.5562 -0.6168
  841TIP3    H226719   0.990   2.290   9.808  1.5794 -0.4920 -0.1719
  842TIP3   OH226720   1.738   0.401  11.741  0.2303 -0.1582  0.4576
  842TIP3    H126721   1.657   0.439  11.709  0.5539 -0.0024 -0.1870
  842TIP3    H226722   1.805   0.468  11.723  0.8656 -1.1197 -0.9562
  843TIP3   OH226723   4.997   0.351  12.297 -0.5734  0.1361  0.0529
  843TIP3    H126724   5.016   0.259  12.276 -0.0202  0.2812 -0.1062
  843TIP3    H226725   5.001   0.395  12.212 -2.5322  0.0330 -0.1262
  844TIP3   OH226726   0.340   0.123   9.872 -0.3930  0.2800  0.2510
  844TIP3    H126727   0.294   0.084   9.947  1.9950  0.0968  1.7294
  844TIP3    H226728   0.303   0.211   9.864 -2.7377 -0.6784 -0.2955
  845TIP3   OH226729   4.906   5.576  11.197  0.6404  0.1844  0.1553
  845TIP3    H126730   4.963   5.522  11.251  1.1768 -1.1082 -1.6212
  845TIP3    H226731   4.931   5.666  11.218  1.8020 -0.3139  1.0030
  846TIP3   OH226732   3.501   6.205  11.393  0.6527 -0.0780  0.1417
  846TIP3    H126733   3.432   6.216  11.328  1.6326 -2.1062 -1.3389
  846TIP3    H226734   3.555   6.283  11.384 -0.6647  0.9025  0.4094
  847TIP3   OH226735   4.096   0.576  11.408 -0.1654  0.4272 -0.0634
  847TIP3    H126736   4.152   0.499  11.421 -0.2054  0.5049  0.6326
  847TIP3    H226737   4.150   0.650  11.435 -0.3463  0.5787 -0.1128
  848TIP3   OH226738   4.396   4.544  11.689 -0.2572  0.2824  0.7442
  848TIP3    H126739   4.348   4.468  11.658  0.3504 -0.3626  1.3673
  848TIP3    H226740   4.482   4.510  11.715 -0.4239  0.9314  2.2744
  849TIP3   OH226741   5.571   6.159  11.253 -0.0591 -0.4235  0.0713
  849TIP3    H126742   5.582   6.198  11.166  1.9089 -0.0114  0.4604
  849TIP3    H226743   5.574   6.064  11.236 -0.8266 -0.3657 -0.4271
  850TIP3   OH226744   0.041   2.798  10.753  0.2309  0.0546 -0.1838
  850TIP3    H126745  -0.008   2.716  10.760  1.0197 -0.2901  3.0659
  850TIP3    H226746   0.118   2.776  10.701 -0.1426 -0.9774 -0.3263
  851TIP3   OH226747   6.009   6.338  10.413  0.5535  0.1224  0.2746
  851TIP3    H126748   5.995   6.388  10.333  0.6331  0.5289  0.5127
  851TIP3    H226749   6.077   6.275  10.391  0.2424 -0.0769 -0.1128
  852TIP3   OH226750   0.249   6.396  10.283  0.3846 -0.0108 -0.3523
  852TIP3    H126751   0.231   6.324  10.343 -0.5286  1.1623  0.8535
  852TIP3    H226752   0.217   6.364  10.198  1.1673 -1.4768 -0.1298
  853TIP3   OH226753   2.269   0.647  10.033  0.7889 -0.6807  0.2208
  853TIP3    H126754   2.307   0.667   9.948 -0.9915 -0.4022 -0.5366
  853TIP3    H226755   2.233   0.730  10.064 -1.0092 -1.3193 -0.0435
  854TIP3   OH226756   4.043   0.000  12.040  0.0197  0.0842  0.1822
  854TIP3    H126757   4.064  -0.066  11.974  1.2243  0.5791  0.0497
  854TIP3    H226758   3.974   0.054  11.999 -0.2912 -0.5012 -0.0762
  855TIP3   OH226759   0.355   3.587  10.171 -0.6531  0.4143 -0.3884
  855TIP3    H126760   0.327   3.656  10.232 -0.9320 -0.2729  0.2831
  855TIP3    H226761   0.303   3.511  10.197 -0.5463  0.0239 -1.2979
  856TIP3   OH226762   6.435   5.564  11.918 -0.1042  0.3310  0.5374
  856TIP3    H126763   6.468   5.501  11.854  2.6559 -1.5679  3.5070
  856TIP3    H226764   6.375   5.513  11.973 -0.2296  1.1242  1.1532
  857TIP3   OH226765   0.675   1.591  11.722 -0.1482 -0.0354  0.3238
  857TIP3    H126766   0.654   1.684  11.722 -0.5325 -0.1205  0.0007
  857TIP3    H226767   0.612   1.552  11.782  0.0100 -0.0916  0.4564
  858TIP3   OH226768   0.283   4.570  10.782 -0.1900 -0.1262 -0.2095
  858TIP3    H126769   0.363   4.584  10.831 -0.7344  0.3542  0.5518
  858TIP3    H226770   0.300   4.490  10.731  0.7366 -0.0653 -0.0039
  859TIP3   OH226771   1.931   1.881   8.925  0.1874  0.1560  0.1647
  859TIP3    H126772   1.861   1.926   8.971 -1.6070 -1.7414 -0.5649
  859TIP3    H226773   1.891   1.851   8.844  1.6723 -1.4675 -0.0265
  860TIP3   OH226774   3.141   5.889  10.990 -0.7550  0.3236  0.3089
  860TIP3    H126775   3.183   5.849  10.914 -0.7338 -0.1969  0.5925
  860TIP3    H226776   3.206   5.951  11.023 -0.7800  0.5799 -0.1191
  861TIP3   OH226777   6.310   2.249  12.209  0.3491  0.3788 -0.5713
  861TIP3    H126778   6.255   2.177  12.239  0.3750  0.9911  1.0206
  861TIP3    H226779   6.259   2.290  12.138  0.9404 -1.9868 -2.5154
  862TIP3   OH226780   2.359   2.954  11.197 -0.2015 -0.0266 -0.4230
  862TIP3    H126781   2.355   3.009  11.119  1.9451  1.2791  0.2927
  862TIP3    H226782   2.282   2.979  11.249 -0.1248  1.1423 -0.8590
  863TIP3   OH226783   3.635   0.498  11.528  0.4038  0.5239  0.3729
  863TIP3    H126784   3.722   0.537  11.534  0.7486 -0.1183 -0.2733
  863TIP3    H226785   3.577   0.562  11.570  1.3739  0.2704  2.2018
  864TIP3   OH226786   6.164   5.994  10.984  0.5078  0.2849 -0.1209
  864TIP3    H126787   6.224   6.063  11.014  1.5994 -0.3392 -0.7819
  864TIP3    H226788   6.204   5.961  10.904 -0.0388 -1.0417  0.1249
  865TIP3   OH226789   1.547   6.154  10.348 -0.0672 -0.7820 -0.5840
  865TIP3    H126790   1.548   6.115  10.436  1.0342  2.3810  0.9523
  865TIP3    H226791   1.634   6.136  10.312  0.9189  1.1519  0.6558
  866TIP3   OH226792   4.517   1.537  10.104  0.2395  0.0897  0.0089
  866TIP3    H126793   4.527   1.631  10.111 -0.4998  0.1433  0.4766
  866TIP3    H226794   4.603   1.501  10.124  0.2105  0.6137  1.1390
  867TIP3   OH226795   1.470   3.890  11.326 -0.0038  0.2026 -0.7403
  867TIP3    H126796   1.544   3.915  11.270 -1.1443  0.8588 -2.0318
  867TIP3    H226797   1.420   3.971  11.337 -0.7966 -0.3305 -0.3084
  868TIP3   OH226798   0.389   3.698   9.288  0.1059  0.5230  0.3497
  868TIP3    H126799   0.304   3.656   9.297 -0.1004  0.6595 -0.7965
  868TIP3    H226800   0.391   3.764   9.357 -0.9750  0.9306  0.0041
  869TIP3   OH226801   2.486   3.121  11.645  0.2468  0.2509  0.0401
  869TIP3    H126802   2.537   3.061  11.700  1.6103  2.0603  0.9012
  869TIP3    H226803   2.548   3.152  11.580 -0.5288  0.4557 -0.6171
  870TIP3   OH226804   5.527   1.528  10.715  0.1814 -0.5813 -0.0369
  870TIP3    H126805   5.452   1.586  10.708  0.1498 -0.6637 -0.3854
  870TIP3    H226806   5.490   1.440  10.710  0.3750 -0.6211 -1.0605
  871TIP3   OH226807   0.506   2.810  11.464 -0.2759 -0.1832  0.2898
  871TIP3    H126808   0.434   2.862  11.501 -0.4765 -0.2480 -0.0086
  871TIP3    H226809   0.531   2.857  11.385 -1.6022 -1.4517 -0.9231
  872TIP3   OH226810   6.010   1.636  11.249 -0.3781  0.3290 -0.4305
  872TIP3    H126811   6.004   1.629  11.345  2.4962  3.3605  0.1520
  872TIP3    H226812   6.038   1.550  11.220  0.3045 -0.2115  1.6609
  873TIP3   OH226813   0.167   2.689  12.176 -0.5993  0.0265 -0.4873
  873TIP3    H126814   0.171   2.749  12.250  0.0332 -2.6654  1.8387
  873TIP3    H226815   0.254   2.695  12.136 -1.0178  1.6656 -1.2241
  874TIP3   OH226816   2.583   0.820  10.017  0.2077 -0.4982 -0.4017
  874TIP3    H126817   2.574   0.837  10.111 -0.9671  0.4187 -0.6564
  874TIP3    H226818   2.634   0.894   9.983  0.4847 -0.7406 -0.5239
  875TIP3   OH226819   4.927   5.171  12.462 -0.3601  0.6134 -0.3295
  875TIP3    H126820   4.855   5.222  12.424 -0.7637  0.4699  0.2151
  875TIP3    H226821   4.954   5.111  12.393 -1.8206 -0.4173 -0.0591
  876TIP3   OH226822   6.507   2.121   9.939 -0.2937 -0.1218 -0.2832
  876TIP3    H126823   6.529   2.031   9.915 -1.0139 -0.2913 -0.3208
  876TIP3    H226824   6.419   2.135   9.905 -0.0963  0.6853 -0.4971
  877TIP3   OH226825   2.290   0.528  10.483 -0.8073  0.1262 -0.4062
  877TIP3    H126826   2.255   0.471  10.552 -0.8666  0.7672  0.1053
  877TIP3    H226827   2.218   0.589  10.464  0.2646  2.0282  1.2833
  878TIP3   OH226828   6.479   4.551  11.373 -0.4174  0.0191  0.2054
  878TIP3    H126829   6.523   4.481  11.325 -0.9671 -1.4337  1.7137
  878TIP3    H226830   6.398   4.511  11.405 -1.0710  1.5491  0.5751
  879TIP3   OH226831   5.008   6.225  12.295  0.7143 -0.4330  0.0029
  879TIP3    H126832   5.091   6.233  12.249  0.2126  0.4742 -0.7774
  879TIP3    H226833   5.024   6.160  12.363  2.3859  0.6152  0.6397
  880TIP3   OH226834   2.861   3.828   8.442 -0.2537  0.1522  0.1036
  880TIP3    H126835   2.930   3.783   8.490  0.4932  0.0557 -1.0312
  880TIP3    H226836   2.897   3.914   8.422 -0.7547  0.3793  0.1607
  881TIP3   OH226837   0.047   1.944  11.516  0.0027  0.3062 -0.5318
  881TIP3    H126838  -0.040   1.933  11.478 -0.0093  0.6794 -0.6165
  881TIP3    H226839   0.056   2.039  11.528  0.4210  0.2734 -0.5790
  882TIP3   OH226840   6.543   6.084  11.691 -0.3731  0.4110 -0.0192
  882TIP3    H126841   6.538   6.179  11.682 -0.0620  0.5945  1.4566
  882TIP3    H226842   6.452   6.056  11.699 -0.4081  0.8918  1.9195
  883TIP3   OH226843   5.807   0.100  12.836  0.0482  0.3478 -0.7231
  883TIP3    H126844   5.762   0.126  12.916 -3.1565 -0.0250 -2.2257
  883TIP3    H226845   5.820   0.182  12.788  1.4824  0.5044 -0.1312
  884TIP3   OH226846   2.845   6.447  11.007 -0.2155 -0.5011  0.0038
  884TIP3    H126847   2.927   6.490  11.032 -0.2582 -0.5433  0.2210
  884TIP3    H226848   2.784   6.519  10.993  0.0069 -0.4408 -0.7161
  885TIP3   OH226849   5.555   2.253  12.296 -0.4068 -0.1115  0.1927
  885TIP3    H126850   5.477   2.209  12.330  0.0929 -1.2243 -0.0449
  885TIP3    H226851   5.523   2.310  12.226 -1.1000  0.0890  0.6670
  886TIP3   OH226852   2.106   3.524   9.951  0.2844  0.0286  0.4498
  886TIP3    H126853   2.158   3.445   9.934 -0.1876 -0.2245  0.1751
  886TIP3    H226854   2.127   3.547  10.041 -0.3001 -0.9654  0.8575
  887TIP3   OH226855   5.071   2.283   9.035  0.1976 -0.4055 -0.8257
  887TIP3    H126856   5.163   2.259   9.028  0.2283 -0.1424 -1.4580
  887TIP3    H226857   5.041   2.287   8.944  0.2731  2.2552 -0.8122
  888TIP3   OH226858   2.629   2.101  10.136  0.0934  0.3913  0.4408
  888TIP3    H126859   2.656   2.139  10.052 -0.9694  2.3543  0.9261
  888TIP3    H226860   2.695   2.131  10.198 -0.6857  1.4308  0.8035
  889TIP3   OH226861   2.481   5.672  10.715  0.2577 -0.9682 -0.0502
  889TIP3    H126862   2.468   5.588  10.760  0.9473 -1.3725 -0.5911
  889TIP3    H226863   2.575   5.676  10.699  0.0958 -0.5613 -0.9423
  890TIP3   OH226864   1.342   1.328  10.977  0.1261  0.2913 -0.3036
  890TIP3    H126865   1.279   1.260  10.998 -1.4751  1.4818 -1.0467
  890TIP3    H226866   1.416   1.281  10.939  0.3286 -1.2608  1.8324
  891TIP3   OH226867   4.084   5.346   9.910  0.1364 -0.5787  0.2339
  891TIP3    H126868   4.111   5.259   9.884 -1.6686 -0.9535 -0.5605
  891TIP3    H226869   3.999   5.333   9.953  0.3682  0.6630  1.1319
  892TIP3   OH226870   0.080   5.095  10.797  0.8917 -0.3699 -0.2696
  892TIP3    H126871   0.081   5.011  10.752  0.3085  1.2720 -3.6660
  892TIP3    H226872   0.172   5.112  10.819  1.3145 -0.9265 -1.5520
  893TIP3   OH226873   3.741   4.816  12.254  0.1637 -0.1172 -0.0150
  893TIP3    H126874   3.711   4.906  12.256 -1.8712 -0.7571  0.5656
  893TIP3    H226875   3.725   4.787  12.164 -0.3021 -0.2459  0.1084
  894TIP3   OH226876   4.276   5.516   9.476  0.0421 -0.2223 -0.0849
  894TIP3    H126877   4.340   5.535   9.544  0.4989 -1.8945  0.0171
  894TIP3    H226878   4.191   5.519   9.521  0.1714  0.5858  0.1075
  895TIP3   OH226879   6.404   5.406  11.344  0.1173 -0.6548  0.6098
  895TIP3    H126880   6.351   5.354  11.404 -0.5658 -0.2491  0.3670
  895TIP3    H226881   6.406   5.355  11.263  2.3483 -1.9758  1.4047
  896TIP3   OH226882   3.598   2.728   9.201 -0.6622  0.1135 -0.0714
  896TIP3    H126883   3.520   2.741   9.146  0.7909  1.2179 -2.0041
  896TIP3    H226884   3.655   2.672   9.147  0.1519 -0.1427  1.0333
  897TIP3   OH226885   4.931   2.540   8.428 -0.2545 -0.2968 -0.1779
  897TIP3    H126886   4.836   2.532   8.433 -0.2023 -0.4143  0.9552
  897TIP3    H226887   4.963   2.458   8.466  0.2983 -0.3817 -0.8214
  898TIP3   OH226888   1.234   6.477  10.802 -0.2867  0.0343  0.0337
  898TIP3    H126889   1.153   6.508  10.843 -0.0418  0.7823 -0.0376
  898TIP3    H226890   1.275   6.423  10.870 -0.3065  0.5636  0.4805
  899TIP3   OH226891   2.619   3.687   8.749 -0.2901 -0.2840  0.3972
  899TIP3    H126892   2.621   3.756   8.682  0.5816 -0.5405  0.1438
  899TIP3    H226893   2.542   3.635   8.729 -0.1362 -0.2460 -0.2930
  900TIP3   OH226894   4.792   5.612  12.446  0.0769 -0.0282  0.1420
  900TIP3    H126895   4.839   5.666  12.508 -1.5631 -0.7363  2.1085
  900TIP3    H226896   4.732   5.672  12.402 -0.5125  0.0638  1.0611
  901TIP3   OH226897   5.383   3.447   9.650 -0.6754 -0.8005  0.1662
  901TIP3    H126898   5.477   3.438   9.631 -0.5910  0.7585 -0.2833
  901TIP3    H226899   5.379   3.516   9.717 -1.4440 -1.6177  0.9863
  902TIP3   OH226900   2.477   4.088  10.952 -0.7064 -0.5532  0.1086
  902TIP3    H126901   2.401   4.106  11.007  0.2464 -1.4282  1.8302
  902TIP3    H226902   2.486   4.165  10.895 -1.8385  0.3388  1.0957
  903TIP3   OH226903   3.092   5.834   9.879  0.0562  0.1437  0.1799
  903TIP3    H126904   3.014   5.780   9.868 -0.0458  0.2570  0.3448
  903TIP3    H226905   3.147   5.786   9.941  0.0599  0.1285  0.1647
  904TIP3   OH226906   4.476   5.462  11.300  0.0886 -0.9673  0.0943
  904TIP3    H126907   4.506   5.524  11.367 -1.3870  2.1816 -1.8945
  904TIP3    H226908   4.401   5.418  11.340 -0.5899  0.6260  0.6875
  905TIP3   OH226909   1.035   6.469   9.765  0.1823 -0.3896  0.1296
  905TIP3    H126910   1.034   6.432   9.853 -2.3985  1.2620  0.9264
  905TIP3    H226911   0.979   6.410   9.713 -1.8991  0.8724  0.7885
  906TIP3   OH226912   1.877   6.083   8.928 -0.1646 -0.0468 -0.0721
  906TIP3    H126913   1.907   5.994   8.947 -0.8621 -0.5952 -1.3916
  906TIP3    H226914   1.806   6.098   8.991  1.7036  0.6610  1.9918
  907TIP3   OH226915   4.618   6.281   9.123 -0.3026  0.5398 -0.4546
  907TIP3    H126916   4.573   6.326   9.051 -1.1227  0.7439  0.1725
  907TIP3    H226917   4.629   6.347   9.191 -0.6788  0.0340  0.1075
  908TIP3   OH226918   4.137   3.424  10.647 -0.1592 -0.4109 -0.1443
  908TIP3    H126919   4.110   3.403  10.737  1.1077 -2.4236 -0.1730
  908TIP3    H226920   4.212   3.367  10.631  2.2753  2.7660 -1.0953
  909TIP3   OH226921   1.591   5.626  12.408  0.5143 -0.7844  0.3750
  909TIP3    H126922   1.589   5.555  12.344 -1.8206 -0.0555 -0.4728
  909TIP3    H226923   1.567   5.584  12.491 -1.1597 -1.0168 -0.1764
  910TIP3   OH226924   1.493   0.351  11.128 -0.2355 -0.1431 -0.0973
  910TIP3    H126925   1.407   0.384  11.102 -0.8248 -2.9243 -2.1566
  910TIP3    H226926   1.478   0.305  11.210 -0.2092  1.2073  0.6934
  911TIP3   OH226927   1.965   3.135  10.579  0.0152 -0.2475 -0.2361
  911TIP3    H126928   1.883   3.085  10.579 -0.3451  0.3360  0.3799
  911TIP3    H226929   2.023   3.086  10.636 -0.8093  0.7617  1.5540
  912TIP3   OH226930   2.158   0.381   9.017 -0.0335  0.0212 -0.2437
  912TIP3    H126931   2.172   0.340   9.102  1.9339 -0.6083 -0.8226
  912TIP3    H226932   2.235   0.357   8.965 -1.5257 -0.2617 -2.4827
  913TIP3   OH226933   4.089   1.054  10.670 -0.5065  0.6503 -0.1171
  913TIP3    H126934   4.083   0.961  10.647  2.6691  0.2193  0.2953
  913TIP3    H226935   4.068   1.100  10.588  3.1052 -0.6633 -2.0259
  914TIP3   OH226936   5.723   3.242  11.684 -0.3222  0.1322  0.2105
  914TIP3    H126937   5.812   3.268  11.710  0.0085  0.3641 -1.0584
  914TIP3    H226938   5.667   3.274  11.754  0.5859 -0.0046  1.0321
  915TIP3   OH226939   1.606   0.595   9.800  0.4957  1.0004  0.2022
  915TIP3    H126940   1.584   0.678   9.841 -0.2917  0.5752  0.6724
  915TIP3    H226941   1.606   0.532   9.873 -0.7268  0.2672 -0.3863
  916TIP3   OH226942   2.203   1.985   8.913  0.1034 -0.4123  0.4899
  916TIP3    H126943   2.114   1.951   8.915 -0.0311 -0.2817 -1.4465
  916TIP3    H226944   2.253   1.919   8.864  0.8992 -0.0848  0.8404
  917TIP3   OH226945   1.722   4.934  10.908 -0.5178  0.3404 -0.3195
  917TIP3    H126946   1.816   4.925  10.924 -0.5193 -1.5466 -1.1202
  917TIP3    H226947   1.711   5.024  10.878  0.8261  0.9737  0.9733
  918TIP3   OH226948   2.915   2.155  12.612  0.1030 -0.1081  0.1019
  918TIP3    H126949   2.874   2.070  12.598  0.6777 -0.1029 -1.9025
  918TIP3    H226950   2.864   2.215  12.557  1.0593  0.4006 -0.2527
  919TIP3   OH226951   0.364   5.196  10.897 -0.2378 -0.3551 -0.0534
  919TIP3    H126952   0.389   5.111  10.861 -0.2643 -1.1294  1.6628
  919TIP3    H226953   0.447   5.237  10.921 -0.2931 -0.5929  0.5772
  920TIP3   OH226954   3.841   3.959  10.529  0.3487  0.2795 -0.6930
  920TIP3    H126955   3.825   3.973  10.436 -0.2781  0.7031 -0.5301
  920TIP3    H226956   3.882   3.872  10.534 -0.5261 -0.1831 -1.2782
  921TIP3   OH226957   4.129   3.685  11.918 -0.1300 -0.1961 -0.0438
  921TIP3    H126958   4.167   3.740  11.849 -1.2418 -0.4179 -0.8567
  921TIP3    H226959   4.169   3.717  11.999  0.2635  0.8961 -0.6494
  922TIP3   OH226960   5.097   1.293  10.483  0.1246  0.0644  0.0887
  922TIP3    H126961   5.060   1.226  10.539  0.1434  0.0688  0.1064
  922TIP3    H226962   5.115   1.248  10.400 -1.7727  0.4924 -0.6160
  923TIP3   OH226963   2.924   4.459  10.456  0.5353  0.7343  0.0403
  923TIP3    H126964   2.950   4.425  10.371  0.8959 -0.6743  0.6730
  923TIP3    H226965   2.907   4.380  10.509 -1.9125  1.5351  0.6204
  924TIP3   OH226966   0.521   1.517  10.326  0.2856  0.2373 -0.5013
  924TIP3    H126967   0.573   1.436  10.319  0.3932  0.2903 -0.3378
  924TIP3    H226968   0.565   1.567  10.395  0.1991  0.4212 -0.5802
  925TIP3   OH226969   0.053   3.953  10.970 -0.4558  0.1245  0.4677
  925TIP3    H126970   0.076   3.901  11.048  1.5712 -0.1208 -0.2439
  925TIP3    H226971  -0.002   3.895  10.918  0.6410 -0.8230  0.3381
  926TIP3   OH226972   5.778   0.961  12.557  1.0760  0.5684 -0.3017
  926TIP3    H126973   5.714   0.949  12.486  0.0272  1.8534  0.3811
  926TIP3    H226974   5.789   1.056  12.562  2.0213  0.4208  0.4915
  927TIP3   OH226975   2.221   4.505   9.631  0.4300  0.2303  0.2352
  927TIP3    H126976   2.154   4.546   9.577 -0.4701 -0.3454  0.8779
  927TIP3    H226977   2.292   4.568   9.634 -0.4228  1.2144  0.1972
  928TIP3   OH226978   2.922   0.425  11.557 -0.4649  0.0523  0.1072
  928TIP3    H126979   2.855   0.421  11.625 -1.3180  2.4493 -0.4606
  928TIP3    H226980   2.911   0.344  11.507 -0.3221 -1.3935  2.3040
  929TIP3   OH226981   3.419   1.712  11.631  0.3503 -0.2659 -0.0806
  929TIP3    H126982   3.378   1.697  11.546  1.3991  1.4305 -0.9282
  929TIP3    H226983   3.345   1.729  11.690 -0.3922 -1.4721 -0.6116
  930TIP3   OH226984   4.718   2.085   8.672 -0.4420 -0.1046 -0.2941
  930TIP3    H126985   4.692   2.148   8.606 -1.3154  0.2235  0.3452
  930TIP3    H226986   4.698   1.999   8.634 -1.4730  0.1030 -0.2373
  931TIP3   OH226987   1.402   6.234  12.384  0.3317  0.2089 -0.0234
  931TIP3    H126988   1.310   6.245  12.409  0.4072  0.0792  0.3188
  931TIP3    H226989   1.447   6.302  12.434  0.7274 -1.1964  1.6289
  932TIP3   OH226990   5.192   0.609  11.566  0.6173  0.1358 -0.4068
  932TIP3    H126991   5.118   0.669  11.565 -0.0629 -0.6798 -1.6168
  932TIP3    H226992   5.236   0.624  11.482  1.5340  0.2485  0.0778
  933TIP3   OH226993   3.800   0.141  12.250  0.2894 -0.1280 -0.4193
  933TIP3    H126994   3.781   0.071  12.313 -0.6429 -0.6722 -1.2942
  933TIP3    H226995   3.746   0.215  12.279  0.4413 -0.1255 -0.1396
  934TIP3   OH226996   0.863   2.676   9.622 -0.0937  0.4287  0.3255
  934TIP3    H126997   0.826   2.629   9.696 -1.6105  1.1526  0.0701
  934TIP3    H226998   0.905   2.753   9.660  1.2090 -0.4088  0.6214
  935TIP3   OH226999   0.367   2.854   9.163  0.0155 -0.2715  0.2337
  935TIP3    H127000   0.378   2.908   9.085  0.2291  1.0104  1.1082
  935TIP3    H227001   0.426   2.780   9.150 -0.1200 -0.1913 -0.9020
  936TIP3   OH227002   1.190   2.987  11.374  0.4678  0.0729  0.4145
  936TIP3    H127003   1.156   2.914  11.425  0.0720  0.1055  0.1993
  936TIP3    H227004   1.166   3.065  11.425  2.3505 -0.0020  1.5119
  937TIP3   OH227005   3.415   4.995  12.087 -0.3591 -0.1843  0.0469
  937TIP3    H127006   3.385   4.932  12.153 -0.7760 -1.3481 -1.2041
  937TIP3    H227007   3.337   5.016  12.037  0.5727 -2.5602 -2.6937
  938TIP3   OH227008   0.173   5.126  10.413 -0.4600 -0.5020 -0.5003
  938TIP3    H127009   0.093   5.177  10.425 -0.1334  0.1269 -0.9326
  938TIP3    H227010   0.243   5.183  10.447 -0.3221 -1.5753  1.1406
  939TIP3   OH227011   0.927   2.921   9.716 -0.4439  0.1486  0.1030
  939TIP3    H127012   0.964   3.000   9.677  1.7037 -0.4296  0.8617
  939TIP3    H227013   0.881   2.953   9.795  1.1481  0.5797  0.8895
  940TIP3   OH227014   5.325   5.892  10.813  0.2028  0.0976  0.0321
  940TIP3    H127015   5.334   5.983  10.843  0.3285 -0.1074  0.6330
  940TIP3    H227016   5.412   5.869  10.780  0.8675 -0.5436  2.0368
  941TIP3   OH227017   3.879   6.062  12.413 -0.1752  0.6781 -0.2269
  941TIP3    H127018   3.786   6.043  12.416  0.0216 -0.2237  0.8878
  941TIP3    H227019   3.917   5.989  12.365 -0.0572  1.1844 -0.9256
  942TIP3   OH227020   2.352   3.968   9.489 -0.1436  0.3470 -0.1008
  942TIP3    H127021   2.336   3.880   9.455  0.3557  0.6345 -1.1199
  942TIP3    H227022   2.431   3.998   9.443  0.4886  0.8109  1.2287
  943TIP3   OH227023   1.805   3.628   8.803  0.1477  0.5220 -0.3935
  943TIP3    H127024   1.890   3.659   8.835  0.8964 -2.0540  0.3566
  943TIP3    H227025   1.764   3.589   8.881 -0.9751  0.1771 -1.1410
  944TIP3   OH227026   0.736   6.309  10.965  0.1219 -0.0967  0.6983
  944TIP3    H127027   0.681   6.231  10.958 -0.4246  0.4395 -1.8825
  944TIP3    H227028   0.705   6.353  11.045 -1.3372 -1.1974  0.7680
  945TIP3   OH227029   3.027   0.546  12.153  0.2360  0.2245  0.7307
  945TIP3    H127030   2.975   0.589  12.085 -0.7465 -0.2989  1.1296
  945TIP3    H227031   3.117   0.558  12.125 -0.0574  1.6124  0.2805
  946TIP3   OH227032   4.056   1.446  10.164 -0.6042  0.1711  0.3001
  946TIP3    H127033   4.083   1.488  10.082 -0.6049  1.8368  1.1118
  946TIP3    H227034   3.962   1.465  10.170 -0.5524  0.2792  0.7949
  947TIP3   OH227035   2.310   3.337  12.261  0.5949 -0.0994  0.1254
  947TIP3    H127036   2.300   3.421  12.217  0.6527  0.1689  0.6187
  947TIP3    H227037   2.247   3.339  12.333 -0.2383 -0.9637 -0.5703
  948TIP3   OH227038   3.743   3.447  10.449  0.0662 -0.5837 -0.4353
  948TIP3    H127039   3.828   3.488  10.430 -0.4669  0.2604 -1.1086
  948TIP3    H227040   3.762   3.353  10.453  1.1744 -0.3497  0.2562
  949TIP3   OH227041   4.509   2.413   9.103  0.3392  0.0677 -0.5859
  949TIP3    H127042   4.555   2.375   9.028 -0.1817 -1.5536 -0.1303
  949TIP3    H227043   4.526   2.507   9.096  0.0024  0.0326 -2.9629
  950TIP3   OH227044   0.061   0.296  11.810  0.5809  0.1201  0.1212
  950TIP3    H127045   0.150   0.262  11.796  0.4793 -0.4006  0.7174
  950TIP3    H227046   0.074   0.390  11.826  0.7614  0.6625 -2.6902
  951TIP3   OH227047   3.482   4.564   9.098 -0.4273  0.4475 -0.2337
  951TIP3    H127048   3.555   4.567   9.037  1.3225  1.7344  1.7526
  951TIP3    H227049   3.474   4.472   9.123  0.4562  0.2707 -0.5795
  952TIP3   OH227050   0.685   1.099  12.399  0.3369 -0.0089 -0.2510
  952TIP3    H127051   0.641   1.040  12.460  0.6522 -2.1414 -1.9762
  952TIP3    H227052   0.618   1.162  12.374 -0.4647 -0.5341  0.5282
  953TIP3   OH227053   1.290   1.247   9.577  0.2352  0.1683  0.9154
  953TIP3    H127054   1.341   1.279   9.502  0.4659  0.7312  1.2982
  953TIP3    H227055   1.293   1.152   9.570  0.9463  0.2030  0.6629
  954TIP3   OH227056   5.029   0.889  10.017 -0.3484 -0.3362  0.2591
  954TIP3    H127057   5.118   0.909   9.987 -0.7074 -1.0028 -1.3823
  954TIP3    H227058   4.973   0.949   9.967 -1.0639 -2.1957 -1.2781
  955TIP3   OH227059   4.288   3.917  11.169  0.3026 -0.2926 -0.1290
  955TIP3    H127060   4.332   3.999  11.150  1.2720 -0.6229  0.6314
  955TIP3    H227061   4.307   3.900  11.262  0.3304 -1.4905 -0.3370
  956TIP3   OH227062   5.650   3.679  10.843  0.3065 -0.1352  0.0901
  956TIP3    H127063   5.557   3.690  10.822 -0.0329 -0.8626  1.0982
  956TIP3    H227064   5.697   3.719  10.770 -0.8034  0.8247 -0.1255
  957TIP3   OH227065   2.649   1.482  11.873  0.1537  0.2634 -0.7776
  957TIP3    H127066   2.671   1.507  11.963  0.8355 -2.4887 -0.0871
  957TIP3    H227067   2.561   1.444  11.879 -0.2590  1.0691 -1.4978
  958TIP3   OH227068   0.603   5.512  12.107 -0.2847  0.4081  0.2074
  958TIP3    H127069   0.578   5.593  12.063  2.3070  0.5997 -1.1011
  958TIP3    H227070   0.536   5.449  12.081 -0.1295  1.1263 -2.1426
  959TIP3   OH227071   5.060   4.012   9.797  0.2019 -0.0098 -0.3414
  959TIP3    H127072   5.079   3.920   9.817 -0.8288 -0.1356  0.0996
  959TIP3    H227073   5.026   4.048   9.879 -0.8116  0.3730 -0.9155
  960TIP3   OH227074   6.082   3.582  11.496 -0.0970 -0.3144 -0.2690
  960TIP3    H127075   6.169   3.573  11.535  0.4603 -1.4957 -1.7240
  960TIP3    H227076   6.097   3.628  11.413 -0.6880 -1.4639 -1.0400
  961TIP3   OH227077   6.086   1.961  10.565 -0.5413  0.0405  0.1462
  961TIP3    H127078   6.103   1.928  10.653 -0.0985 -1.2859 -0.4053
  961TIP3    H227079   6.173   1.971  10.525 -0.6734  1.7771  0.2351
  962TIP3   OH227080   4.029   2.759   9.651  0.1264  0.2917  0.3891
  962TIP3    H127081   3.947   2.782   9.695  0.0922  4.4906 -1.3967
  962TIP3    H227082   4.002   2.700   9.580 -1.8050  2.7132 -1.0950
  963TIP3   OH227083   6.234   4.667   9.776 -0.0011 -0.1320  0.3412
  963TIP3    H127084   6.292   4.705   9.842 -1.3800 -1.1246  2.2400
  963TIP3    H227085   6.152   4.715   9.786 -0.2593 -0.3516 -0.6232
  964TIP3   OH227086   1.608   5.950  11.497  0.4156 -0.5784  0.2311
  964TIP3    H127087   1.680   5.891  11.520 -0.6775 -2.6495 -1.3266
  964TIP3    H227088   1.631   5.984  11.411  0.4211  0.3135  0.5735
  965TIP3   OH227089   5.629   6.359  11.035  0.3905 -0.1220  0.4255
  965TIP3    H127090   5.580   6.342  10.954  2.1382 -0.7100 -0.5488
  965TIP3    H227091   5.716   6.324  11.018  0.1183 -2.7212  3.5307
  966TIP3   OH227092   6.081   5.316  10.021 -0.4626  0.0426 -0.1170
  966TIP3    H127093   6.147   5.250  10.044 -0.6359  0.5451  2.1307
  966TIP3    H227094   6.017   5.310  10.092 -1.8040  0.9132 -1.2203
  967TIP3   OH227095   4.097   3.576  11.567 -0.0177 -0.1695  0.1663
  967TIP3    H127096   4.036   3.539  11.503 -2.2705  2.2770  0.7034
  967TIP3    H227097   4.086   3.523  11.646  0.0965 -0.9893 -0.3587
  968TIP3   OH227098   5.680   2.604  11.058  0.6279 -0.4578 -0.8995
  968TIP3    H127099   5.665   2.606  11.153  3.3867  0.5834 -0.3897
  968TIP3    H227100   5.641   2.521  11.030  0.0441 -0.9744  1.1807
  969TIP3   OH227101   3.610   0.460   9.638  0.0787 -0.3582  0.6822
  969TIP3    H127102   3.619   0.376   9.593 -0.5655 -0.2879  0.4044
  969TIP3    H227103   3.600   0.524   9.568  0.9786  0.0111  0.8803
  970TIP3   OH227104   0.780   5.291  11.180  0.0809  0.7120 -0.2497
  970TIP3    H127105   0.784   5.383  11.207 -0.9348  1.3518 -2.0781
  970TIP3    H227106   0.714   5.252  11.237  0.2357  1.2156  0.2797
  971TIP3   OH227107   1.053   2.078   9.525  0.1491  0.4160 -0.3313
  971TIP3    H127108   1.003   2.108   9.601 -0.9934  0.3978 -1.0564
  971TIP3    H227109   1.023   1.988   9.510  0.4303  0.3886 -0.7552
  972TIP3   OH227110   6.355   4.459   9.078  0.5715 -0.1074 -0.2190
  972TIP3    H127111   6.391   4.455   9.167 -0.6099 -1.9566  0.2267
  972TIP3    H227112   6.266   4.491   9.090  0.4011 -0.3746 -0.7475
  973TIP3   OH227113   4.570   5.618   9.893 -0.1288  0.4785  0.5931
  973TIP3    H127114   4.505   5.659   9.836  1.2514 -0.1653 -1.5414
  973TIP3    H227115   4.588   5.533   9.852 -0.8416 -1.1260  3.3463
  974TIP3   OH227116   1.083   5.259  10.155 -0.0572 -0.1136  0.3011
  974TIP3    H127117   1.008   5.212  10.192  0.5896 -0.0743  1.7467
  974TIP3    H227118   1.148   5.190  10.137  0.2782  0.0367  0.8968
  975TIP3   OH227119   1.734   0.015  10.957 -0.5162 -0.3170  0.6876
  975TIP3    H127120   1.641  -0.008  10.957 -1.2466  2.1157 -1.3896
  975TIP3    H227121   1.736   0.104  10.992  0.9688 -0.2243  0.4150
  976TIP3   OH227122   3.338   4.832   9.062 -0.1631  0.2630  0.3170
  976TIP3    H127123   3.361   4.741   9.079 -0.6611 -0.2715 -1.6669
  976TIP3    H227124   3.364   4.847   8.971 -2.0204  1.4419 -0.0770
  977TIP3   OH227125   1.668   0.811  11.060  0.2809  0.0597  0.1990
  977TIP3    H127126   1.613   0.789  11.136 -0.5315 -3.6954 -1.2537
  977TIP3    H227127   1.757   0.792  11.089  0.1596  0.2009  0.6877
  978TIP3   OH227128   2.417   1.364  11.947 -0.5642  0.5330 -0.1538
  978TIP3    H127129   2.410   1.329  12.036  1.1764 -0.6264 -0.4183
  978TIP3    H227130   2.351   1.433  11.943 -2.1594 -0.7998  1.3468
  979TIP3   OH227131   0.628   6.496   9.921 -0.5272 -0.5309  0.1640
  979TIP3    H127132   0.599   6.507   9.831  1.7676 -1.4281 -0.7789
  979TIP3    H227133   0.717   6.461   9.913  1.3089  2.9426  2.7357
  980TIP3   OH227134   2.324   2.342  12.347  0.4544 -0.0900 -0.1609
  980TIP3    H127135   2.273   2.347  12.428  0.2653 -1.7938 -0.1323
  980TIP3    H227136   2.295   2.417  12.296  0.0467  0.6095  1.0461
  981TIP3   OH227137   5.253   3.335  10.608 -0.1368 -0.3666  0.1062
  981TIP3    H127138   5.282   3.322  10.698 -0.5595 -1.2408  0.1279
  981TIP3    H227139   5.320   3.291  10.555 -1.4577 -2.6018  0.1681
  982TIP3   OH227140   3.935   5.945  10.088 -0.1403 -0.1614 -0.3684
  982TIP3    H127141   4.000   5.916  10.152  0.7039  1.7369 -0.2703
  982TIP3    H227142   3.854   5.952  10.138  0.3825  0.7424  0.3937
  983TIP3   OH227143   3.948   0.573  12.585 -0.1407 -0.0925 -0.6327
  983TIP3    H127144   3.993   0.653  12.612 -0.5236 -0.5953  1.7218
  983TIP3    H227145   3.957   0.514  12.659 -0.9893 -1.7805 -1.8026
  984TIP3   OH227146   1.961   5.561  11.732 -0.0908 -0.6895  1.2767
  984TIP3    H127147   2.046   5.591  11.766  0.1814  0.5463 -0.3806
  984TIP3    H227148   1.943   5.480  11.780  2.3427 -1.3414  1.1968
  985TIP3   OH227149   2.272   0.929  10.652 -0.4390 -0.0995 -0.4239
  985TIP3    H127150   2.249   1.019  10.629 -0.7068  1.7928  5.4092
  985TIP3    H227151   2.192   0.879  10.634 -1.4757  1.5794 -0.7200
  986TIP3   OH227152   2.595   3.187  12.313 -0.5015 -0.1034  0.1153
  986TIP3    H127153   2.671   3.236  12.345 -0.3602  0.9381 -1.7071
  986TIP3    H227154   2.520   3.237  12.344 -0.3578  1.3470 -1.7276
  987TIP3   OH227155   4.203   1.187  10.083  0.3772  0.2784  0.0754
  987TIP3    H127156   4.137   1.251  10.111  1.0074  0.9965 -0.0526
  987TIP3    H227157   4.184   1.172   9.990 -0.8118 -1.0087  0.4983
  988TIP3   OH227158   3.362   0.759  10.015  0.1726  0.4491  0.5932
  988TIP3    H127159   3.343   0.670   9.985  1.4379  0.3226  0.1056
  988TIP3    H227160   3.387   0.748  10.106 -1.5407  0.5621  1.1056
  989TIP3   OH227161   1.235   1.493  11.274 -0.4330  0.8353  0.4773
  989TIP3    H127162   1.197   1.559  11.332 -0.1354  0.9130  0.5879
  989TIP3    H227163   1.326   1.484  11.304 -0.0072  1.5363 -0.5319
  990TIP3   OH227164   5.666   6.194  12.357  0.2379 -0.9996 -0.0725
  990TIP3    H127165   5.741   6.138  12.377  1.4586  0.7930  0.6179
  990TIP3    H227166   5.597   6.164  12.416  1.2390 -1.0277  1.1160
  991TIP3   OH227167   6.141   2.418  12.025  0.1544 -0.1305 -0.2659
  991TIP3    H127168   6.087   2.425  12.104 -0.8211 -0.7002 -0.8563
  991TIP3    H227169   6.078   2.428  11.953  0.7293 -1.4100 -0.9794
  992TIP3   OH227170   1.371   0.068  10.380 -0.5293  0.3269  0.3329
  992TIP3    H127171   1.382   0.059  10.286 -2.8679 -2.0913  0.1774
  992TIP3    H227172   1.421  -0.005  10.417 -0.5662  0.5828  0.8926
  993TIP3   OH227173   1.077   4.227  11.892 -0.7170  0.5112 -0.2128
  993TIP3    H127174   0.998   4.274  11.863 -0.5293  0.8661 -0.1499
  993TIP3    H227175   1.044   4.142  11.924 -1.0536  0.5910 -0.3479
  994TIP3   OH227176   1.138   2.608  10.576  0.0924 -0.0528  0.1004
  994TIP3    H127177   1.088   2.587  10.655 -0.4536 -1.9872 -0.6922
  994TIP3    H227178   1.208   2.666  10.606 -1.3895  1.0497  1.6004
  995TIP3   OH227179   2.733   6.495  10.522  0.1818 -0.0354 -0.2947
  995TIP3    H127180   2.696   6.444  10.594 -0.7439 -1.0096 -1.4229
  995TIP3    H227181   2.788   6.434  10.474  0.7166  0.5765 -0.4758
  996TIP3   OH227182   0.409   4.170   9.675 -0.3103  0.5582  0.4199
  996TIP3    H127183   0.493   4.129   9.692 -1.2299 -1.1833  1.0607
  996TIP3    H227184   0.386   4.214   9.757 -0.4231  0.2555  0.5533
  997TIP3   OH227185   4.940   4.091  11.054 -0.4157  0.6571 -0.4301
  997TIP3    H127186   4.960   4.106  10.962  1.3247  0.8103 -0.0494
  997TIP3    H227187   5.025   4.091  11.098 -1.2108  0.5569  1.1775
  998TIP3   OH227188   3.735   0.301  10.120  0.5308  0.0489  0.0875
  998TIP3    H127189   3.727   0.382  10.171 -0.4610  0.5488 -0.8292
  998TIP3    H227190   3.730   0.329  10.029 -1.5090 -1.1683 -0.2403
  999TIP3   OH227191   3.843   5.717  11.094 -0.2641 -0.1197 -0.3995
  999TIP3    H127192   3.879   5.645  11.146 -0.3962 -0.1861 -0.3981
  999TIP3    H227193   3.918   5.771  11.072  0.0845 -1.0864 -1.6973
 1000TIP3   OH227194   2.799   6.403  11.911 -0.0463  0.0203 -0.4922
 1000TIP3    H127195   2.813   6.445  11.996 -0.7766 -1.0682  0.2023
 1000TIP3    H227196   2.841   6.317  11.920  0.2374  0.0571 -1.3846
 1001TIP3   OH227197   2.516   5.120   9.940 -0.5200 -0.3583 -0.2397
 1001TIP3    H127198   2.541   5.069   9.863 -1.8713 -1.9810  0.3295
 1001TIP3    H227199   2.421   5.116   9.942 -0.5168 -0.4190  1.5245
 1002TIP3   OH227200   0.524   4.220  12.350  0.7782  0.1708 -0.0612
 1002TIP3    H127201   0.473   4.140  12.363  0.8845 -0.0676 -1.0696
 1002TIP3    H227202   0.604   4.190  12.307  0.3066  0.9475 -1.5377
 1003TIP3   OH227203   2.889   4.025  10.904  0.4064  0.1316  0.5991
 1003TIP3    H127204   2.814   4.022  10.845 -1.3725 -2.2878  2.7657
 1003TIP3    H227205   2.956   3.971  10.861  0.7330  1.6922 -0.9902
 1004TIP3   OH227206   1.996   2.743  11.677 -0.8891  0.3421 -0.5341
 1004TIP3    H127207   2.085   2.710  11.663 -0.7316  0.9609 -1.0120
 1004TIP3    H227208   2.008   2.831  11.713 -1.2621  1.6488 -3.3681
 1005TIP3   OH227209   1.508   0.993  11.395 -0.7214  0.7926  0.7418
 1005TIP3    H127210   1.419   1.020  11.374 -1.2012 -0.4229  1.1211
 1005TIP3    H227211   1.553   1.073  11.421 -2.7150  0.9993  4.1672
 1006TIP3   OH227212   1.469   2.031  11.408 -0.4058 -0.1998  0.0226
 1006TIP3    H127213   1.477   1.936  11.408 -0.9338 -0.2563 -0.8354
 1006TIP3    H227214   1.382   2.048  11.444 -0.2322 -0.0289  0.3651
 1007TIP3   OH227215   0.107   0.721   9.949 -0.4077 -0.2385 -0.2016
 1007TIP3    H127216   0.198   0.707   9.922  0.0180  1.6680  0.0784
 1007TIP3    H227217   0.055   0.686   9.877  0.5292 -1.3224 -0.3844
 1008TIP3   OH227218   4.215   4.070   9.326 -0.6885  0.0895  0.1793
 1008TIP3    H127219   4.241   3.979   9.342  2.5845  1.0122  0.8324
 1008TIP3    H227220   4.218   4.112   9.412 -1.2684  1.0531 -0.2460
 1009TIP3   OH227221   1.644   5.916  12.261  0.1971 -0.4608  0.6331
 1009TIP3    H127222   1.584   5.861  12.211  0.1031  0.5203 -0.3796
 1009TIP3    H227223   1.635   6.003  12.222  1.1318  0.0478  1.4872
 1010TIP3   OH227224   0.515   1.588  10.030  0.5430 -0.1661  0.7872
 1010TIP3    H127225   0.462   1.667  10.027 -0.0587 -0.5832 -1.9342
 1010TIP3    H227226   0.513   1.561  10.122 -1.4552  1.4917  1.2915
 1011TIP3   OH227227   2.720   2.384   9.694 -0.0922 -0.0146  0.3170
 1011TIP3    H127228   2.706   2.457   9.634 -1.2428  1.4114  2.1812
 1011TIP3    H227229   2.698   2.306   9.643 -3.2287  1.2622 -0.5631
 1012TIP3   OH227230   0.083   3.024   8.561  0.2554  0.1243  1.1643
 1012TIP3    H127231   0.124   3.052   8.643  0.9136  0.2498  0.7983
 1012TIP3    H227232   0.130   3.071   8.493 -1.1193  1.0003  0.7759
 1013TIP3   OH227233   3.179   4.797  11.158 -0.0584  0.1726  0.3575
 1013TIP3    H127234   3.233   4.734  11.110 -1.6320 -0.9164 -0.0478
 1013TIP3    H227235   3.106   4.815  11.099 -1.5685 -0.4964  1.9535
 1014TIP3   OH227236   5.397   3.752  10.714  0.0001  0.1748 -0.3975
 1014TIP3    H127237   5.363   3.685  10.654  1.1097 -0.2147 -0.6152
 1014TIP3    H227238   5.319   3.802  10.740 -0.8266 -1.0540 -0.3980
 1015TIP3   OH227239   1.678   0.217   9.775  0.0913  0.1998  0.4303
 1015TIP3    H127240   1.743   0.173   9.829  1.4533 -1.0085 -2.0372
 1015TIP3    H227241   1.594   0.188   9.810  0.8364  0.5015  2.6493
 1016TIP3   OH227242   4.601   3.784  10.714  0.3790 -0.2994 -0.0462
 1016TIP3    H127243   4.568   3.695  10.704 -1.3258  0.4344 -1.6226
 1016TIP3    H227244   4.643   3.804  10.630 -0.8482  0.9346 -0.4267
 1017TIP3   OH227245   5.473   1.662  11.121  0.6092  0.1612 -1.0315
 1017TIP3    H127246   5.543   1.656  11.055 -1.6385 -1.8396 -3.4304
 1017TIP3    H227247   5.424   1.741  11.096  0.8511  0.4730 -0.5390
 1018TIP3   OH227248   5.272   2.460  11.819 -0.2719 -0.0538 -0.5164
 1018TIP3    H127249   5.199   2.433  11.763  0.5146  0.4757 -1.8381
 1018TIP3    H227250   5.269   2.556  11.817 -0.2523 -0.0306  0.3805
 1019TIP3   OH227251   3.285   4.775  12.519  0.5380  0.4683 -0.3103
 1019TIP3    H127252   3.360   4.728  12.555 -0.8196 -1.4292  0.1730
 1019TIP3    H227253   3.234   4.709  12.473 -0.0413  2.0242 -2.0441
 1020TIP3   OH227254   0.261   0.025  10.710  0.0793 -0.1863 -0.2031
 1020TIP3    H127255   0.293   0.017  10.620 -0.5890  0.3012 -0.5035
 1020TIP3    H227256   0.292   0.111  10.739 -1.0321  0.3716 -0.5613
 1021TIP3   OH227257   6.137   3.343  11.129  0.4298  0.2263  0.4533
 1021TIP3    H127258   6.077   3.397  11.077  0.8858  0.8089  0.5226
 1021TIP3    H227259   6.100   3.255  11.123 -0.1340  0.4773  0.0496
 1022TIP3   OH227260   0.313   2.727   9.606 -0.3437  0.2194 -0.1979
 1022TIP3    H127261   0.225   2.729   9.644  0.0943  0.6851  0.8232
 1022TIP3    H227262   0.322   2.810   9.561 -1.4081 -0.9069 -2.6897
 1023TIP3   OH227263   0.747   1.050  10.883 -0.1621  0.1683 -0.3704
 1023TIP3    H127264   0.778   0.968  10.843 -1.1143 -0.1763 -0.4338
 1023TIP3    H227265   0.803   1.062  10.959 -0.1895 -0.6934 -0.2016
 1024TIP3   OH227266   3.963   4.692   8.798  0.2780  0.0956  0.3472
 1024TIP3    H127267   4.031   4.649   8.745 -0.5959 -0.2929 -0.4976
 1024TIP3    H227268   3.888   4.700   8.738 -0.3709  0.6481  1.2142
 1025TIP3   OH227269   4.790   4.377  10.009 -0.1194 -0.0097 -0.0576
 1025TIP3    H127270   4.715   4.318  10.006  0.0129 -0.2009  0.2451
 1025TIP3    H227271   4.774   4.441   9.940 -0.2849 -0.3818 -0.3660
 1026TIP3   OH227272   2.862   2.635   7.943 -0.9543 -0.3068  0.1972
 1026TIP3    H127273   2.881   2.705   8.006 -2.4387 -1.2669  1.7947
 1026TIP3    H227274   2.773   2.652   7.914 -1.1609 -1.2561  0.2435
 1027TIP3   OH227275   3.690   2.374   8.637  0.3435 -0.2087  0.3627
 1027TIP3    H127276   3.611   2.404   8.592  1.1925  0.6755 -0.6184
 1027TIP3    H227277   3.662   2.300   8.689 -1.2273  0.3730  0.3983
 1028TIP3   OH227278   2.425   4.318   9.543 -0.2668  0.2079  0.6017
 1028TIP3    H127279   2.351   4.366   9.504  0.1032  0.3451  0.0670
 1028TIP3    H227280   2.411   4.227   9.516 -0.4244  0.1747  0.7889
 1029TIP3   OH227281   6.110   2.081  10.303  0.8896  0.4908 -0.4750
 1029TIP3    H127282   6.197   2.099  10.339  1.0008  1.0052 -0.9764
 1029TIP3    H227283   6.099   1.987  10.313  0.0194  0.8456  2.8229
 1030TIP3   OH227284   4.319   2.445  10.429  0.3550  0.3696 -0.5295
 1030TIP3    H127285   4.376   2.522  10.425  1.6830 -0.5349  0.2830
 1030TIP3    H227286   4.295   2.437  10.521  0.6692 -0.4927 -0.5182
 1031TIP3   OH227287   1.563   4.623  10.423 -0.4372 -0.2993  0.3348
 1031TIP3    H127288   1.475   4.650  10.450 -0.1336  0.1459  0.8928
 1031TIP3    H227289   1.576   4.665  10.338 -1.1106 -1.1031 -0.1830
 1032TIP3   OH227290   5.662   1.204  10.013  0.4359 -0.3691  0.8630
 1032TIP3    H127291   5.753   1.178  10.029  1.2393  1.5099 -0.2347
 1032TIP3    H227292   5.617   1.123   9.993  2.6551 -1.1241 -1.8868
 1033TIP3   OH227293   1.139   5.238  12.656 -0.1072  0.0019  0.5427
 1033TIP3    H127294   1.140   5.332  12.674 -0.0489  0.2267 -0.5675
 1033TIP3    H227295   1.049   5.210  12.674  0.2587 -0.0707  2.4487
 1034TIP3   OH227296   5.931   4.157  10.618  0.0543  0.0339 -0.7256
 1034TIP3    H127297   5.896   4.243  10.640  1.0191  0.4124 -0.6411
 1034TIP3    H227298   5.989   4.135  10.692 -0.8680 -1.0894 -0.3003
 1035TIP3   OH227299   4.893   5.240   9.985 -0.9967 -0.3577 -0.1431
 1035TIP3    H127300   4.869   5.156   9.948 -1.9870  0.2309 -0.9000
 1035TIP3    H227301   4.964   5.221  10.046  0.1664 -1.4489 -1.7913
 1036TIP3   OH227302   4.685   1.536  12.366  0.2752  0.1591  0.3415
 1036TIP3    H127303   4.656   1.446  12.353  2.0964 -0.2825 -1.0544
 1036TIP3    H227304   4.621   1.573  12.427 -2.7066 -0.9477 -1.8492
 1037TIP3   OH227305   2.369   4.110  10.318  0.1997  0.8740 -0.3020
 1037TIP3    H127306   2.336   4.177  10.259 -0.4713  0.0073 -0.9421
 1037TIP3    H227307   2.368   4.030  10.266  0.1072  0.1888  0.7222
 1038TIP3   OH227308   2.864   4.335  10.873  0.4047  0.3664 -1.2091
 1038TIP3    H127309   2.814   4.315  10.794 -0.8727 -0.8943 -0.1407
 1038TIP3    H227310   2.934   4.269  10.875  0.0794  0.0196 -1.0079
 1039TIP3   OH227311   5.925   1.155  10.085 -0.2467 -0.1215  0.2001
 1039TIP3    H127312   6.009   1.175  10.042  1.1569 -1.1274  2.3017
 1039TIP3    H227313   5.950   1.112  10.167 -2.8825 -1.6805  0.2915
 1040TIP3   OH227314   0.718   3.069   9.479 -0.1640  0.3003 -0.1596
 1040TIP3    H127315   0.753   3.099   9.563  1.2988 -1.0271 -0.2431
 1040TIP3    H227316   0.627   3.047   9.498  0.4238 -1.0588  1.4231
 1041TIP3   OH227317   2.994   0.086  12.054 -0.4733 -0.1930  0.0698
 1041TIP3    H127318   2.915   0.127  12.091 -0.1714 -0.4191  1.0021
 1041TIP3    H227319   2.983  -0.007  12.074 -0.8773 -0.5185 -1.5157
 1042TIP3   OH227320   0.834   2.113  10.103  0.4105  0.0649 -0.4576
 1042TIP3    H127321   0.792   2.031  10.080  1.1537 -1.6254  3.4088
 1042TIP3    H227322   0.762   2.175  10.112 -0.6900 -1.3202  0.6965
 1043TIP3   OH227323   1.751   0.229   9.282  0.4696 -0.0526  0.5012
 1043TIP3    H127324   1.773   0.314   9.321  1.1444 -0.3485  0.7833
 1043TIP3    H227325   1.824   0.210   9.222 -0.7036  0.5467 -1.2003
 1044TIP3   OH227326   0.389   5.482  10.266 -0.7455  0.7959  0.1489
 1044TIP3    H127327   0.406   5.389  10.280 -1.9385  0.2071 -1.8481
 1044TIP3    H227328   0.474   5.524  10.277  0.1458 -0.7431 -0.4611
 1045TIP3   OH227329   1.084   1.808   9.330 -0.8097 -0.2606 -0.5276
 1045TIP3    H127330   1.040   1.793   9.414 -1.2407  2.3603 -0.1951
 1045TIP3    H227331   1.143   1.734   9.320 -1.5680 -1.2102  1.5543
 1046TIP3   OH227332   0.563   4.674   9.942  0.0602 -0.3640  0.2041
 1046TIP3    H127333   0.532   4.698   9.854  0.4489 -1.2090 -0.1776
 1046TIP3    H227334   0.483   4.651   9.990 -0.2738  1.1942  0.4458
 1047TIP3   OH227335   2.151   5.534  12.289 -0.0946  0.1500 -0.1917
 1047TIP3    H127336   2.232   5.498  12.326 -0.0406  1.3942  0.9925
 1047TIP3    H227337   2.114   5.587  12.360 -1.0581  0.9864 -1.2799
 1048TIP3   OH227338   1.457   3.068  11.391  0.1753  0.4324  0.2920
 1048TIP3    H127339   1.503   3.075  11.308  0.6284  0.6034  0.5557
 1048TIP3    H227340   1.370   3.034  11.368 -0.0648  1.4578 -0.3610
 1049TIP3   OH227341   2.228   0.877  10.199 -0.4755 -0.4621 -0.2440
 1049TIP3    H127342   2.273   0.948  10.244 -0.4561 -1.4779  1.4567
 1049TIP3    H227343   2.137   0.884  10.228 -0.8294 -0.1251 -1.4086
 1050TIP3   OH227344   5.384   4.882  10.065 -0.6925 -0.4230 -0.4806
 1050TIP3    H127345   5.341   4.837   9.992  1.2709 -2.6513 -0.4180
 1050TIP3    H227346   5.379   4.819  10.137 -0.9214  0.9664  0.7620
 1051TIP3   OH227347   5.658   2.979   9.098  0.3005 -0.1282  0.5388
 1051TIP3    H127348   5.708   2.910   9.055 -0.5694  0.4557 -1.5213
 1051TIP3    H227349   5.721   3.050   9.111  0.2236  0.3968 -1.5387
 1052TIP3   OH227350   5.330   4.645  11.560  0.0424 -0.2265  0.0939
 1052TIP3    H127351   5.397   4.686  11.615  1.6347  1.6087 -2.9601
 1052TIP3    H227352   5.249   4.688  11.586  0.8789  1.1894  0.4953
 1053TIP3   OH227353   0.558   1.392  12.307  0.0853 -0.2088 -0.1544
 1053TIP3    H127354   0.499   1.466  12.292 -1.2708 -1.2961 -0.4533
 1053TIP3    H227355   0.644   1.431  12.318 -0.5195  1.3697 -0.7694
 1054TIP3   OH227356   1.839   5.984  10.817 -0.4468 -0.0459 -0.5357
 1054TIP3    H127357   1.818   5.905  10.867 -4.8838  1.4480  0.4285
 1054TIP3    H227358   1.880   6.042  10.881 -0.9634 -0.1597 -0.0891
 1055TIP3   OH227359   6.263   2.688  11.072  0.0107 -0.0999  0.6117
 1055TIP3    H127360   6.322   2.753  11.033 -0.3216  0.1835  0.5748
 1055TIP3    H227361   6.202   2.740  11.125 -2.1051 -0.0528 -1.6884
 1056TIP3   OH227362   2.686   6.287  10.755  0.2132  0.3844  0.3895
 1056TIP3    H127363   2.710   6.266  10.845  3.3600 -0.7508 -0.5635
 1056TIP3    H227364   2.598   6.252  10.744  0.8731 -2.1288  2.2187
 1057TIP3   OH227365   4.282   4.778  10.288 -0.5306 -0.2618  0.6099
 1057TIP3    H127366   4.267   4.710  10.354  0.7291  0.6865  1.9247
 1057TIP3    H227367   4.369   4.812  10.309 -0.3391  0.4471 -1.2224
 1058TIP3   OH227368   6.397   2.480  10.222  0.6036 -0.4594  0.2932
 1058TIP3    H127369   6.421   2.425  10.297  2.8059  0.0657  0.0502
 1058TIP3    H227370   6.324   2.434  10.181  0.2961 -1.5189  1.9179
 1059TIP3   OH227371   4.576   5.786  10.186 -0.0994 -0.2169 -0.8064
 1059TIP3    H127372   4.536   5.868  10.213  1.4618  0.4537 -0.4174
 1059TIP3    H227373   4.541   5.769  10.099 -1.4852  0.1232 -0.3437
 1060TIP3   OH227374   3.007   3.526  11.261 -0.1960  0.6126  0.2500
 1060TIP3    H127375   2.994   3.455  11.198 -0.0565  0.2420  0.6262
 1060TIP3    H227376   3.037   3.600  11.210  2.2950 -0.3787  0.1721
 1061TIP3   OH227377   2.424   1.204   9.733 -0.4447  0.3742  0.5891
 1061TIP3    H127378   2.461   1.234   9.815  0.4403  1.3158 -0.1208
 1061TIP3    H227379   2.339   1.248   9.728 -0.6933 -0.0286  1.1846
 1062TIP3   OH227380   1.205   1.234   8.053 -0.5077  0.2850 -0.2368
 1062TIP3    H127381   1.119   1.235   8.094  0.5746  2.3508  2.2632
 1062TIP3    H227382   1.228   1.141   8.049 -2.1728 -0.2064  0.5909
 1063TIP3   OH227383   5.993   4.663  10.757 -0.1868  0.1549 -0.0313
 1063TIP3    H127384   6.036   4.578  10.748 -0.2195 -0.0515  1.5252
 1063TIP3    H227385   6.065   4.724  10.774 -0.3043  0.1615  0.4552
 1064TIP3   OH227386   5.199   6.019  10.392 -0.5342 -0.3281 -0.4162
 1064TIP3    H127387   5.115   6.031  10.436 -0.2568 -0.4711  0.1648
 1064TIP3    H227388   5.253   6.093  10.421  0.3783 -1.5732  1.2679
 1065TIP3   OH227389   4.537   3.850   8.555 -0.1075  0.2847  0.2024
 1065TIP3    H127390   4.610   3.912   8.560 -0.5738  0.8208  0.4371
 1065TIP3    H227391   4.488   3.876   8.478 -0.2475  0.1323  0.2387
 1066TIP3   OH227392   4.070   1.466  10.549 -0.1799 -0.4059  0.2930
 1066TIP3    H127393   4.147   1.518  10.526 -0.3633  0.0074  0.5885
 1066TIP3    H227394   4.084   1.442  10.641 -0.7131  0.2404  0.5507
 1067TIP3   OH227395   1.600   1.087  11.983  0.1392  0.0541  0.5731
 1067TIP3    H127396   1.513   1.076  12.020  0.2918 -0.5262  0.7771
 1067TIP3    H227397   1.657   1.032  12.037  0.6996  0.7048  0.6704
 1068TIP3   OH227398   4.908   3.905  10.687  0.6302 -0.0224 -0.2541
 1068TIP3    H127399   4.969   3.855  10.741  0.4462 -0.0561 -0.0794
 1068TIP3    H227400   4.901   3.990  10.732 -1.3012 -0.8131  1.0689
 1069TIP3   OH227401   6.308   3.452  11.898 -0.3205  0.3955 -0.3173
 1069TIP3    H127402   6.263   3.376  11.861 -1.6744  1.0974 -0.1566
 1069TIP3    H227403   6.401   3.429  11.892 -0.5559 -0.2005 -2.6301
 1070TIP3   OH227404   3.817   2.645  11.704 -0.1090  0.1613  0.0689
 1070TIP3    H127405   3.908   2.656  11.677 -0.5934  1.1307 -1.2879
 1070TIP3    H227406   3.817   2.566  11.759  1.3616 -0.4735 -0.8000
 1071TIP3   OH227407   4.053   2.805   8.607 -0.0497  0.1236 -0.3912
 1071TIP3    H127408   4.054   2.899   8.590 -2.3509  0.0985 -0.9935
 1071TIP3    H227409   4.103   2.767   8.534  0.3478  0.8204 -0.4917
 1072TIP3   OH227410   3.134   1.041   9.271  0.0537  0.1920 -0.1935
 1072TIP3    H127411   3.193   1.117   9.267  0.0968  0.5944  3.7614
 1072TIP3    H227412   3.193   0.966   9.268  0.5891  0.5282  1.0369
 1073TIP3   OH227413   1.066   1.965  10.217 -0.3902 -0.1684  0.0271
 1073TIP3    H127414   1.009   2.041  10.203  0.2064  0.3393  0.3374
 1073TIP3    H227415   1.008   1.889  10.203 -1.2613  0.3369  0.7945
 1074TIP3   OH227416   2.661   2.953  11.128 -0.2404 -0.1939 -0.0314
 1074TIP3    H127417   2.676   2.928  11.219 -0.8334 -0.1664  0.0791
 1074TIP3    H227418   2.567   2.970  11.123 -0.1182  0.3924 -0.5030
 1075TIP3   OH227419   3.901   1.046  11.153 -0.3908 -0.0426  0.1442
 1075TIP3    H127420   3.987   1.003  11.160 -0.7593 -0.7325  0.5312
 1075TIP3    H227421   3.866   1.015  11.069 -1.6004 -2.3223  1.3990
 1076TIP3   OH227422   1.204   3.883  11.064 -0.1304  0.5455  0.2569
 1076TIP3    H127423   1.288   3.839  11.079  0.1149 -0.0365 -2.3375
 1076TIP3    H227424   1.175   3.850  10.979 -2.2860  1.8640  0.4215
 1077TIP3   OH227425   4.704   5.513  12.171  0.1830  0.9177  0.4732
 1077TIP3    H127426   4.694   5.419  12.185 -0.0360  0.9243  0.3648
 1077TIP3    H227427   4.715   5.549  12.259 -0.5509  0.8822  0.5908
 1078TIP3   OH227428   2.102   3.510  12.328  0.5900  0.2068 -0.0792
 1078TIP3    H127429   2.040   3.518  12.256  0.9777  0.4620 -0.3902
 1078TIP3    H227430   2.063   3.561  12.399 -0.5638 -1.3451  0.4354
 1079TIP3   OH227431   1.658   5.324  10.852  0.5170 -0.3965 -0.2030
 1079TIP3    H127432   1.684   5.363  10.769  1.3751 -0.5338 -0.0114
 1079TIP3    H227433   1.707   5.374  10.918 -1.3577  0.7804  0.3684
 1080TIP3   OH227434   3.207   0.682  10.425 -0.1486  0.1821 -0.1134
 1080TIP3    H127435   3.299   0.696  10.400 -0.1423 -1.6754 -1.3616
 1080TIP3    H227436   3.175   0.769  10.447  1.6546  1.0231 -0.5617
 1081TIP3   OH227437   3.295   3.341  12.231 -0.0874 -0.4182  0.0967
 1081TIP3    H127438   3.307   3.372  12.321  1.9073  2.2240 -0.9372
 1081TIP3    H227439   3.208   3.301  12.231 -1.1526  1.5847  2.6720
 1082TIP3   OH227440   1.549   2.047  11.110 -0.6041 -0.1815 -0.9752
 1082TIP3    H127441   1.470   2.032  11.059 -1.0138  0.5385 -0.5685
 1082TIP3    H227442   1.605   1.972  11.091 -2.2403 -1.8171  0.3679
 1083TIP3   OH227443   2.709   5.504  10.203  0.1465 -0.1288 -0.4097
 1083TIP3    H127444   2.718   5.457  10.120 -1.7622  0.5584 -1.0671
 1083TIP3    H227445   2.749   5.446  10.268  1.3154 -0.8740 -1.7256
 1084TIP3   OH227446   3.941   6.506  11.035 -0.9144  0.3254  0.6863
 1084TIP3    H127447   3.901   6.428  11.074 -0.5527 -0.1395  0.1481
 1084TIP3    H227448   4.018   6.524  11.089  0.6988 -1.4626 -0.8650
 1085TIP3   OH227449   1.973   5.067  11.415 -0.3419  0.2215 -0.1496
 1085TIP3    H127450   1.923   5.048  11.336  1.2785 -0.8771 -0.9690
 1085TIP3    H227451   2.029   4.991  11.426 -0.2012  0.5664  1.8201
 1086TIP3   OH227452   1.462   4.256  10.426 -0.3163 -0.1295 -0.1713
 1086TIP3    H127453   1.530   4.273  10.361 -1.5480 -0.3968 -1.5771
 1086TIP3    H227454   1.469   4.330  10.487  0.7226  0.2594 -0.7350
 1087TIP3   OH227455   3.870   3.634  12.031  0.2774  0.1553  0.5593
 1087TIP3    H127456   3.896   3.644  12.122  1.4199  1.8899  0.1026
 1087TIP3    H227457   3.946   3.663  11.981  0.2684 -2.2648 -1.0100
 1088TIP3   OH227458   6.003   3.236   9.594  0.5015 -0.4802 -1.1301
 1088TIP3    H127459   5.951   3.259   9.671 -0.2430  0.0357 -1.7741
 1088TIP3    H227460   6.094   3.246   9.623  0.2232  0.8782 -0.6533
 1089TIP3   OH227461   5.466   1.642  10.277  0.0252 -0.7366 -0.2804
 1089TIP3    H127462   5.491   1.687  10.358  2.2305 -0.5887 -0.9599
 1089TIP3    H227463   5.424   1.561  10.306  0.0227 -0.3027  0.9946
 1090TIP3   OH227464   5.223   4.911  10.925  0.0629 -0.0208  0.1298
 1090TIP3    H127465   5.306   4.871  10.948  0.5153 -0.5316 -2.1765
 1090TIP3    H227466   5.237   4.949  10.838 -2.3507 -0.9815 -0.7800
 1091TIP3   OH227467   2.152   6.493  11.565 -0.1455  0.1849  0.0969
 1091TIP3    H127468   2.218   6.514  11.631 -1.5655  1.3040  1.2206
 1091TIP3    H227469   2.070   6.490  11.613 -1.0942  0.0029 -1.4573
 1092TIP3   OH227470   4.139   4.793  10.052 -1.0316  0.3488 -0.1636
 1092TIP3    H127471   4.174   4.805  10.140  0.6613  0.7498 -0.8643
 1092TIP3    H227472   4.194   4.726  10.012 -1.2305  0.7838 -1.2103
 1093TIP3   OH227473   5.665   4.650  11.056  0.1139  0.1344 -0.4466
 1093TIP3    H127474   5.716   4.709  11.112 -0.5046 -0.3033  0.6235
 1093TIP3    H227475   5.709   4.652  10.971 -0.0392  2.3288 -0.5285
 1094TIP3   OH227476   4.049   2.429  12.337  0.3808  0.5381 -0.2291
 1094TIP3    H127477   3.999   2.509  12.319 -0.5262  0.7055  2.5038
 1094TIP3    H227478   4.131   2.460  12.376  1.3042  0.1709 -1.8256
 1095TIP3   OH227479   6.572   3.364   9.072 -0.5143  0.2117 -0.0849
 1095TIP3    H127480   6.609   3.312   9.143  0.8681  0.9423 -0.2258
 1095TIP3    H227481   6.481   3.379   9.098 -0.1609  0.0789  1.3235
 1096TIP3   OH227482   4.637   4.701  10.759 -0.2130 -1.3301 -0.1686
 1096TIP3    H127483   4.686   4.736  10.834 -0.8623  1.2973 -0.8887
 1096TIP3    H227484   4.548   4.690  10.791 -0.5995  0.2495 -0.6375
 1097TIP3   OH227485   2.398   4.999  11.300  0.0489  0.0796 -0.1030
 1097TIP3    H127486   2.373   5.076  11.250  0.1501 -0.7086 -1.4028
 1097TIP3    H227487   2.444   4.943  11.238 -2.1040 -2.1212  0.1118
 1098TIP3   OH227488   2.512   6.379   8.289  0.0470  0.6260  0.3132
 1098TIP3    H127489   2.544   6.451   8.342  1.1248  0.9489 -0.7403
 1098TIP3    H227490   2.567   6.380   8.210 -0.4680 -0.8110 -0.1019
 1099TIP3   OH227491   2.123   2.542  10.762 -0.1303  0.2986  0.4050
 1099TIP3    H127492   2.205   2.578  10.795 -0.3518  1.5319 -0.3364
 1099TIP3    H227493   2.078   2.616  10.722 -0.8389 -0.7031 -0.7329
 1100TIP3   OH227494   4.749   6.450  12.006  0.0442  0.1335  0.3118
 1100TIP3    H127495   4.794   6.373  11.973  2.3888  1.6127 -0.1498
 1100TIP3    H227496   4.791   6.468  12.091 -0.9842  0.4938  0.7652
 1101TIP3   OH227497   0.240   3.262   9.146 -0.6463  0.2075  0.3606
 1101TIP3    H127498   0.290   3.217   9.078 -0.8863 -1.7415  1.3928
 1101TIP3    H227499   0.303   3.279   9.216 -0.7822  0.5200  0.4088
 1102TIP3   OH227500   3.434   4.856   8.491  0.0724 -0.3270  0.2750
 1102TIP3    H127501   3.523   4.892   8.493 -0.1968  0.4307 -0.5337
 1102TIP3    H227502   3.438   4.784   8.428  0.0777 -0.2012  0.1322
 1103TIP3   OH227503   2.643   4.362  11.038 -0.3904  0.2844 -0.6259
 1103TIP3    H127504   2.646   4.313  10.956  0.1195  3.3586 -2.5986
 1103TIP3    H227505   2.734   4.381  11.060 -0.5993  1.3829 -0.6188
 1104TIP3   OH227506   0.039   4.748   9.997  0.0409  0.0198  0.6712
 1104TIP3    H127507   0.036   4.806   9.921  1.1778 -0.9171 -0.1175
 1104TIP3    H227508   0.027   4.807  10.072  1.0144  1.2830 -0.1077
 1105TIP3   OH227509   2.571   2.767   7.871 -0.3626 -0.4654  0.5039
 1105TIP3    H127510   2.507   2.697   7.876 -1.6999  0.7305  0.7343
 1105TIP3    H227511   2.579   2.799   7.962 -2.8484  2.2856 -0.0966
 1106TIP3   OH227512   4.202   5.263  11.899 -0.4667  0.1486  0.4069
 1106TIP3    H127513   4.181   5.230  11.812 -0.9514  0.9650  0.1929
 1106TIP3    H227514   4.126   5.316  11.923 -0.2250  0.1438  1.2171
 1107TIP3   OH227515   3.315   6.072  10.003  0.2578  0.3802  0.4235
 1107TIP3    H127516   3.311   6.031  10.089  0.7334 -0.4180  0.0785
 1107TIP3    H227517   3.224   6.094   9.983  0.2468  1.4174  1.5038
 1108TIP3   OH227518   0.183   1.343   8.952 -0.0037 -0.0201 -0.4334
 1108TIP3    H127519   0.151   1.348   8.862  0.3733  0.6482 -0.5344
 1108TIP3    H227520   0.226   1.427   8.967  1.8610 -0.9255 -0.3634
 1109TIP3   OH227521   4.970   6.157  10.959  0.1824 -0.4790  0.0866
 1109TIP3    H127522   5.023   6.083  10.931  0.5085 -0.3653  0.3938
 1109TIP3    H227523   5.033   6.221  10.991  0.1510  1.1665 -2.8785
 1110TIP3   OH227524   1.477   1.285   9.781  0.8291  0.0021  0.2992
 1110TIP3    H127525   1.425   1.287   9.701  1.5519 -1.3295 -0.2369
 1110TIP3    H227526   1.457   1.367   9.825  0.5203  0.8321 -1.3177
 1111TIP3   OH227527   6.270   2.995   9.750  0.6817  0.3012  0.0233
 1111TIP3    H127528   6.208   3.066   9.734 -0.2416  0.1759  2.5490
 1111TIP3    H227529   6.250   2.930   9.682 -0.6892  1.0651 -0.3486
 1112TIP3   OH227530   6.379   2.914  12.372 -0.1919 -0.2023 -0.5784
 1112TIP3    H127531   6.400   2.821  12.375  0.0618 -0.1517 -0.7779
 1112TIP3    H227532   6.454   2.955  12.330 -0.5635  0.0140 -1.0461
 1113TIP3   OH227533   1.750   6.130  11.315  0.4458  0.0499 -0.1568
 1113TIP3    H127534   1.758   6.212  11.267 -0.1116  0.8718  1.1225
 1113TIP3    H227535   1.768   6.062  11.249 -1.7711  1.0501 -1.9186
 1114TIP3   OH227536   6.156   4.057  11.741 -0.2329  0.2969  0.0762
 1114TIP3    H127537   6.153   4.121  11.812 -1.2677  0.9510 -0.5381
 1114TIP3    H227538   6.244   4.067  11.704  0.3080 -0.0347  1.2239
 1115TIP3   OH227539   4.792   5.122  10.370 -0.7337  0.5492 -0.4067
 1115TIP3    H127540   4.741   5.094  10.446  0.5457 -0.7759  0.0141
 1115TIP3    H227541   4.735   5.183  10.324 -2.7293 -0.9051 -0.0087
 1116TIP3   OH227542   4.163   1.166  12.144 -0.1593 -0.2576  0.7685
 1116TIP3    H127543   4.232   1.106  12.173  1.6267  2.0344  1.5721
 1116TIP3    H227544   4.189   1.192  12.055  0.6379  1.3322  1.4156
 1117TIP3   OH227545   4.736   0.771  10.003  0.2365  0.0076  0.2378
 1117TIP3    H127546   4.824   0.772  10.040 -0.8781 -0.3249  3.1262
 1117TIP3    H227547   4.716   0.678   9.992 -0.1200  0.0454  0.5504
 1118TIP3   OH227548   4.310   3.491  11.320 -0.3049  0.2822  0.4624
 1118TIP3    H127549   4.398   3.486  11.284 -0.8847  0.7450 -1.1117
 1118TIP3    H227550   4.321   3.537  11.404  0.7240  2.2297 -0.6645
 1119TIP3   OH227551   4.442   4.322   9.592 -0.0915 -0.1636 -0.0880
 1119TIP3    H127552   4.399   4.401   9.558 -0.6402 -0.6326 -0.4933
 1119TIP3    H227553   4.449   4.338   9.686 -0.9883  0.0089 -0.0371
 1120TIP3   OH227554   2.758   1.052   8.555  0.3941 -0.2000  0.1199
 1120TIP3    H127555   2.668   1.038   8.526  1.0856 -2.1040 -1.3126
 1120TIP3    H227556   2.768   0.996   8.631  0.8972 -1.5549 -0.9080
 1121TIP3   OH227557   6.045   2.211   8.452 -0.2739  0.4032 -0.3509
 1121TIP3    H127558   6.006   2.245   8.372 -0.7884  1.3354  0.2795
 1121TIP3    H227559   6.107   2.279   8.480  2.2467 -1.2507 -1.5949
 1122TIP3   OH227560   5.354   2.609  12.192 -0.0854 -0.3666  0.2676
 1122TIP3    H127561   5.385   2.674  12.255  1.1362 -1.0056  0.3699
 1122TIP3    H227562   5.354   2.655  12.108  0.1356 -0.0533  0.4383
 1123TIP3   OH227563   3.273   3.311   9.329  1.0571  0.0053  0.1588
 1123TIP3    H127564   3.364   3.341   9.323  0.3379  2.4512  0.4959
 1123TIP3    H227565   3.241   3.316   9.239  0.5982  1.5529  0.3758
 1124TIP3   OH227566   4.317   6.277  12.304  0.3118  0.1308  0.7041
 1124TIP3    H127567   4.254   6.336  12.345  2.0189  0.0183  3.7725
 1124TIP3    H227568   4.308   6.195  12.352  0.6689 -0.9223 -0.9158
 1125TIP3   OH227569   2.129   0.648  11.891  0.2822 -0.1350 -0.2827
 1125TIP3    H127570   2.111   0.602  11.973  0.1213 -1.5246 -1.0717
 1125TIP3    H227571   2.206   0.605  11.855  0.9566  1.1154 -0.4038
 1126TIP3   OH227572   1.215   2.063  11.497  0.7248 -0.0696  0.1819
 1126TIP3    H127573   1.204   2.140  11.552  0.3718  0.7041 -0.9232
 1126TIP3    H227574   1.132   2.016  11.503 -0.3740  1.4568 -1.7643
 1127TIP3   OH227575   1.952   4.731   9.595  0.4551 -0.3386  0.1916
 1127TIP3    H127576   2.007   4.695   9.525  2.6414  0.0907  1.5755
 1127TIP3    H227577   1.870   4.753   9.552  1.3239 -1.0713 -1.9990
 1128TIP3   OH227578   5.614   1.915   9.945 -0.3866 -0.5243  0.0528
 1128TIP3    H127579   5.632   1.873  10.030  0.3941 -0.2383  0.0331
 1128TIP3    H227580   5.696   1.958   9.921 -0.9700  0.4435 -0.2624
 1129TIP3   OH227581   6.162   5.823  12.438 -0.3807  0.2743  0.7625
 1129TIP3    H127582   6.136   5.907  12.475 -1.4096  1.0488 -1.4952
 1129TIP3    H227583   6.081   5.771  12.434 -0.1385 -0.0914  0.4122
 1130TIP3   OH227584   4.549   6.195  12.198 -0.4093  0.3041 -0.1472
 1130TIP3    H127585   4.480   6.236  12.250  0.7623  1.1708  0.7863
 1130TIP3    H227586   4.530   6.222  12.108 -1.2129  0.6260  0.1087
 1131TIP3   OH227587   6.330   1.757  11.702 -0.0668  0.1322  0.0061
 1131TIP3    H127588   6.334   1.841  11.657 -2.8078  0.3895  0.0875
 1131TIP3    H227589   6.345   1.778  11.794  1.4639  0.1660 -0.2209
 1132TIP3   OH227590   3.983   3.211   9.818  0.1936 -0.1307 -0.3733
 1132TIP3    H127591   4.029   3.134   9.851  3.6726  2.2194  0.8327
 1132TIP3    H227592   3.955   3.258   9.897  0.2689  0.9854 -0.9942
 1133TIP3   OH227593   4.905   5.376  11.988 -0.5194  0.3511 -1.0539
 1133TIP3    H127594   4.851   5.437  12.039  0.9304  1.8619 -1.2512
 1133TIP3    H227595   4.842   5.313  11.953 -1.9167  0.9848  0.1936
 1134TIP3   OH227596   1.144   3.257  10.411  0.4249  0.4125  0.4438
 1134TIP3    H127597   1.097   3.208  10.478 -0.4376 -0.3272 -0.6581
 1134TIP3    H227598   1.197   3.192  10.365 -0.6234  0.4963 -0.9452
 1135TIP3   OH227599   3.290   5.281  11.016 -0.3818 -0.3605 -0.8227
 1135TIP3    H127600   3.278   5.346  10.946  1.2025  0.1968 -0.6351
 1135TIP3    H227601   3.261   5.198  10.977  0.2187 -0.0208 -2.0720
 1136TIP3   OH227602   0.210   3.527  10.527  0.1243 -0.1124 -0.4893
 1136TIP3    H127603   0.196   3.473  10.605 -3.3255  1.8492  0.4475
 1136TIP3    H227604   0.173   3.475  10.456 -1.1729  0.0435  0.0422
 1137TIP3   OH227605   0.353   1.226  12.505 -0.0683  0.1861  0.1459
 1137TIP3    H127606   0.431   1.273  12.473 -0.8469  0.3633 -1.6147
 1137TIP3    H227607   0.372   1.134  12.488 -0.4256  0.2690 -0.7332
 1138TIP3   OH227608   3.994   0.423  10.229  0.3845  0.5922  0.1351
 1138TIP3    H127609   4.002   0.512  10.194  3.0832 -0.2995 -1.9804
 1138TIP3    H227610   4.051   0.422  10.306  2.0630  0.2916 -1.0353
 1139TIP3   OH227611   5.752   2.138   9.497  0.5101  0.2858 -0.3419
 1139TIP3    H127612   5.701   2.165   9.573  0.0933  0.0345 -0.5304
 1139TIP3    H227613   5.819   2.079   9.533 -0.4193 -0.7713 -0.3218
 1140TIP3   OH227614   4.081   2.589  11.186  0.5748  0.7888 -0.5167
 1140TIP3    H127615   4.011   2.527  11.165  0.3346  1.4658 -1.7701
 1140TIP3    H227616   4.162   2.543  11.165  0.6012 -0.2478  1.5629
 1141TIP3   OH227617   5.663   5.829  10.256 -0.1405 -0.0751  0.0126
 1141TIP3    H127618   5.571   5.808  10.269 -0.4328  0.9557 -0.3666
 1141TIP3    H227619   5.704   5.806  10.339 -0.3307 -2.5917 -0.4969
 1142TIP3   OH227620   4.025   4.712  12.040  0.9055 -0.1100 -0.2888
 1142TIP3    H127621   4.093   4.696  11.974  0.8811 -0.9767 -0.1083
 1142TIP3    H227622   4.003   4.805  12.029  2.3538  0.2754 -0.1135
 1143TIP3   OH227623   2.465   6.107  12.135 -0.7319 -0.1252 -0.6924
 1143TIP3    H127624   2.463   6.023  12.090  1.2988 -0.6392  0.0851
 1143TIP3    H227625   2.501   6.087  12.222 -2.5523  1.1760  0.4386
 1144TIP3   OH227626   5.089   2.514  10.794  0.4682  0.0187 -0.6316
 1144TIP3    H127627   5.142   2.444  10.833 -0.6265 -0.4738  0.0412
 1144TIP3    H227628   5.125   2.527  10.707 -0.8249 -3.1536 -1.7714
 1145TIP3   OH227629   0.358   0.331  11.821 -0.2101 -0.2335 -0.0565
 1145TIP3    H127630   0.450   0.360  11.820  0.5994 -2.5976 -0.5540
 1145TIP3    H227631   0.327   0.351  11.910  0.7090  0.8056  0.0441
 1146TIP3   OH227632   2.807   3.858   9.163 -0.4190  0.6000 -0.0874
 1146TIP3    H127633   2.797   3.785   9.225 -0.6383  1.8881  1.4705
 1146TIP3    H227634   2.718   3.878   9.134 -0.5143  1.0462  0.4857
 1147TIP3   OH227635   6.608   2.363  11.221  0.7126 -0.1599  0.2088
 1147TIP3    H127636   6.683   2.370  11.163 -0.5318  2.3047 -1.2669
 1147TIP3    H227637   6.550   2.435  11.195 -2.6605 -2.4930  0.5529
 1148TIP3   OH227638   4.462   3.393   9.019 -0.0301  0.7746 -0.2567
 1148TIP3    H127639   4.397   3.356   8.959  1.1364  0.8222 -1.5929
 1148TIP3    H227640   4.546   3.356   8.989  0.4791 -0.1359  2.0724
 1149TIP3   OH227641   3.252   1.058  11.213 -0.2866 -0.3458  0.4927
 1149TIP3    H127642   3.344   1.068  11.237 -0.5884  1.7064  0.9922
 1149TIP3    H227643   3.251   1.073  11.118  0.1919 -3.1515 -0.0566
 1150TIP3   OH227644   2.688   1.834  11.591  0.1616  0.2584 -0.1614
 1150TIP3    H127645   2.625   1.769  11.622  0.2239 -1.0471 -2.5102
 1150TIP3    H227646   2.715   1.882  11.669  0.7794 -3.1077  1.8656
 1151TIP3   OH227647   2.802   3.963   9.964 -0.3059  0.3016 -0.0367
 1151TIP3    H127648   2.734   4.007   9.913  0.2798  0.5904 -0.5718
 1151TIP3    H227649   2.884   3.984   9.920  0.3834  1.6519  1.7480
 1152TIP3   OH227650   3.802   3.525   8.831  0.0483  0.0952 -0.5509
 1152TIP3    H127651   3.883   3.480   8.854  0.3012 -0.1792 -1.9299
 1152TIP3    H227652   3.830   3.610   8.797 -0.0949 -0.5957 -2.5252
 1153TIP3   OH227653   4.379   4.193  10.261 -0.0626  0.4645 -0.7088
 1153TIP3    H127654   4.347   4.203  10.351 -0.2809 -1.7869 -0.4911
 1153TIP3    H227655   4.304   4.219  10.207 -0.2738  0.8470 -0.2415
 1154TIP3   OH227656   2.580   2.223  10.435 -0.5337 -0.0414 -0.1503
 1154TIP3    H127657   2.505   2.238  10.493 -1.2024  0.2350 -1.0647
 1154TIP3    H227658   2.586   2.303  10.383  0.3472 -0.0991 -0.1475
 1155TIP3   OH227659   5.736   4.013   9.787  0.5753  0.1961 -0.2065
 1155TIP3    H127660   5.674   4.085   9.797  0.8932  0.4497 -0.0124
 1155TIP3    H227661   5.751   3.982   9.877 -0.5004 -0.9277 -0.3975
 1156TIP3   OH227662   6.298   6.361   9.556 -0.1120 -0.2991 -0.0626
 1156TIP3    H127663   6.349   6.371   9.475 -0.4638 -2.3100 -0.5803
 1156TIP3    H227664   6.213   6.401   9.536 -0.6471 -1.9126 -1.1763
 1157TIP3   OH227665   3.166   5.391   9.854 -0.0204  0.2875  0.4212
 1157TIP3    H127666   3.172   5.383   9.949 -2.7891  0.0903  0.6587
 1157TIP3    H227667   3.075   5.371   9.834  0.1962  1.4998 -2.1644
 1158TIP3   OH227668   5.021   1.544  12.197 -0.4007 -0.8437 -0.1084
 1158TIP3    H127669   4.949   1.600  12.170  1.0589  0.8802 -0.6255
 1158TIP3    H227670   5.034   1.484  12.124 -1.0575 -0.9251 -0.1627
 1159TIP3   OH227671   6.483   6.061   9.406 -0.0646  0.5559 -0.0893
 1159TIP3    H127672   6.394   6.051   9.372 -0.1428 -0.7531  0.4541
 1159TIP3    H227673   6.537   6.070   9.328 -0.6955  1.7310 -0.4164
 1160TIP3   OH227674   2.965   4.000  11.377 -0.1615  0.0034  0.1542
 1160TIP3    H127675   2.917   3.940  11.433  0.1940 -0.3780  0.0518
 1160TIP3    H227676   2.905   4.019  11.305  0.1779 -1.2097 -0.4688
 1161TIP3   OH227677   0.585   3.438  10.999 -0.2057  0.7274 -0.3501
 1161TIP3    H127678   0.633   3.409  11.077  0.4980  0.6357 -0.8115
 1161TIP3    H227679   0.544   3.359  10.965  0.3874  0.5617 -0.6904
 1162TIP3   OH227680   5.727   5.199   9.248 -0.0529  0.2567  0.3150
 1162TIP3    H127681   5.675   5.138   9.301  0.6152  1.2271  2.1920
 1162TIP3    H227682   5.669   5.274   9.236 -0.3361 -0.1111 -0.6965
 1163TIP3   OH227683   1.312   2.862   9.590  0.1646 -0.1360 -0.0971
 1163TIP3    H127684   1.289   2.873   9.682 -1.4055 -1.5019 -0.2653
 1163TIP3    H227685   1.368   2.784   9.588  2.4132  1.4066 -0.0452
 1164TIP3   OH227686   5.756   2.009  10.915 -0.1960  0.0569 -0.0521
 1164TIP3    H127687   5.777   2.039  10.827  2.4511  0.4602  0.6392
 1164TIP3    H227688   5.776   1.915  10.913  4.2179  0.7526  1.1243
 1165TIP3   OH227689   6.555   3.398  10.516 -0.4033  0.3147  0.2093
 1165TIP3    H127690   6.492   3.337  10.478  0.4188  0.7684 -2.0176
 1165TIP3    H227691   6.584   3.451  10.442  0.7433  1.7694  1.6447
 1166TIP3   OH227692   0.440   2.163  10.291  0.6836  0.0077 -0.1115
 1166TIP3    H127693   0.487   2.079  10.285 -0.9247 -0.8340 -2.7358
 1166TIP3    H227694   0.388   2.156  10.370  3.6422  0.3497  2.0480
 1167TIP3   OH227695   4.423   5.724   9.081 -0.2214 -0.1006  0.1980
 1167TIP3    H127696   4.459   5.797   9.030 -1.4122  0.9795  0.8567
 1167TIP3    H227697   4.328   5.737   9.079 -0.4162 -1.3004  0.8238
 1168TIP3   OH227698   0.565   0.153  11.304 -0.2684  0.1160  0.2609
 1168TIP3    H127699   0.598   0.162  11.394 -0.6254  1.9586  0.2242
 1168TIP3    H227700   0.477   0.116  11.314 -1.0208  1.9689  0.8090
 1169TIP3   OH227701   1.083   2.713   9.902  0.2060 -0.3636 -0.9898
 1169TIP3    H127702   1.067   2.785   9.842  0.5850 -0.2362 -0.9387
 1169TIP3    H227703   1.072   2.751   9.989  1.3454 -0.1226 -0.9318
 1170TIP3   OH227704   1.769   4.890   9.764 -0.0580 -0.0028  0.1673
 1170TIP3    H127705   1.816   4.808   9.747 -1.6698 -1.4631  2.1148
 1170TIP3    H227706   1.701   4.893   9.697  0.8905  0.5227 -0.7894
 1171TIP3   OH227707   1.746   2.763  11.567 -0.1864  0.3336  0.4102
 1171TIP3    H127708   1.827   2.724  11.598  1.0374  1.4455 -1.1942
 1171TIP3    H227709   1.774   2.832  11.507 -2.3233 -0.2075 -1.3534
 1172TIP3   OH227710   1.459   3.699   9.610  0.1993 -0.2802 -0.2154
 1172TIP3    H127711   1.447   3.604   9.601 -0.7813  0.0373 -5.4746
 1172TIP3    H227712   1.371   3.734   9.619  0.3820  0.2361 -0.3670
 1173TIP3   OH227713   1.608   4.972  11.937 -0.3282 -0.3408 -0.6873
 1173TIP3    H127714   1.551   4.917  11.883  0.3845 -1.3442 -0.4481
 1173TIP3    H227715   1.688   4.921  11.946  0.4963  0.9082 -0.7505
 1174TIP3   OH227716   2.638   0.711  10.519  0.1618  0.7037  0.3735
 1174TIP3    H127717   2.577   0.695  10.446 -0.7577  0.9607  1.0592
 1174TIP3    H227718   2.725   0.701  10.480 -0.3025 -0.9732 -0.3433
 1175TIP3   OH227719   0.129   1.530   9.793 -0.7602 -0.2531 -0.0490
 1175TIP3    H127720   0.134   1.588   9.717 -0.7500  0.0667  0.1935
 1175TIP3    H227721   0.185   1.456   9.771  0.8756  0.7835  0.4682
 1176TIP3   OH227722   1.607   5.502   9.881 -0.0701 -0.0772  0.2130
 1176TIP3    H127723   1.697   5.473   9.898  0.2346  0.7251 -0.0000
 1176TIP3    H227724   1.552   5.439   9.928  0.6469  0.0885  1.2931
 1177TIP3   OH227725   4.266   5.779   9.331  0.6487  0.1729 -0.8010
 1177TIP3    H127726   4.257   5.699   9.383  0.5171 -0.4560 -1.7822
 1177TIP3    H227727   4.226   5.758   9.247 -1.2012  1.9099 -0.4108
 1178TIP3   OH227728   5.340   1.884  11.016 -0.0589 -0.1721  0.0598
 1178TIP3    H127729   5.284   1.875  10.939  0.7888  1.0880 -0.7356
 1178TIP3    H227730   5.312   1.967  11.056  1.0744  0.3665 -0.2315
 1179TIP3   OH227731   0.310   1.276  11.975 -0.1860  0.1319 -0.0044
 1179TIP3    H127732   0.223   1.247  12.002 -0.5295  2.0428  1.1925
 1179TIP3    H227733   0.294   1.353  11.920  0.7191 -0.6167 -1.3801
 1180TIP3   OH227734   2.902   0.305   9.698  0.3303 -0.0992 -0.3514
 1180TIP3    H127735   2.872   0.227   9.653 -0.7171  0.4050 -0.5622
 1180TIP3    H227736   2.869   0.295   9.788 -0.7677  0.5882 -0.6555
 1181TIP3   OH227737   2.511   5.146   9.511  0.4071  0.3635  0.4890
 1181TIP3    H127738   2.461   5.221   9.477  0.7271  1.5808  2.5341
 1181TIP3    H227739   2.539   5.099   9.432 -1.0778  1.5301 -0.8278
 1182TIP3   OH227740   3.844   0.338  10.538 -0.4592  0.4153  0.0724
 1182TIP3    H127741   3.893   0.301  10.464 -1.3412  0.0713 -0.3513
 1182TIP3    H227742   3.835   0.265  10.599  0.1697  0.6702  0.4847
 1183TIP3   OH227743   5.212   2.101   8.710  0.3660  0.4124  0.1318
 1183TIP3    H127744   5.241   2.091   8.801 -1.5040  0.4459  0.7691
 1183TIP3    H227745   5.253   2.029   8.663  0.2439 -0.4359  1.3025
 1184TIP3   OH227746   4.655   3.308   8.832  0.2345  0.3353  1.0145
 1184TIP3    H127747   4.621   3.221   8.850  3.3960 -0.9604  1.5205
 1184TIP3    H227748   4.674   3.308   8.738 -1.1496  1.0816  0.7121
 1185TIP3   OH227749   0.277   1.061   9.728 -0.4685 -0.3334  0.1478
 1185TIP3    H127750   0.361   1.033   9.692 -0.6358 -0.5932 -0.0484
 1185TIP3    H227751   0.218   0.988   9.710 -0.9192  0.1507 -0.3812
 1186TIP3   OH227752   1.250   1.522  12.154 -0.5004 -0.1254  0.2351
 1186TIP3    H127753   1.166   1.476  12.165 -0.8044  0.4267  0.2892
 1186TIP3    H227754   1.225   1.609  12.124  0.1567 -0.6703 -2.0739
 1187TIP3   OH227755   4.106   4.556  11.027 -0.8301  0.6158  0.2777
 1187TIP3    H127756   4.058   4.476  11.047  0.6602  0.0458  1.9146
 1187TIP3    H227757   4.119   4.553  10.933 -0.6860 -1.1877  0.3056
 1188TIP3   OH227758   2.002   2.236  11.865  0.8128  0.0979  0.0316
 1188TIP3    H127759   2.019   2.156  11.914  0.6867  0.1392  0.1429
 1188TIP3    H227760   1.975   2.300  11.931  2.9887  0.8831  0.2504
 1189TIP3   OH227761   3.210   6.443   8.614  0.2581  0.1478  0.1948
 1189TIP3    H127762   3.231   6.503   8.686  0.5633 -0.8924  1.0061
 1189TIP3    H227763   3.139   6.487   8.566  1.6120  1.9318 -0.2825
 1190TIP3   OH227764   2.987   3.934  11.677 -0.2427 -0.2756  0.0787
 1190TIP3    H127765   3.029   3.863  11.726  0.2442 -0.8692 -1.1618
 1190TIP3    H227766   3.059   3.975  11.629 -0.4015  1.5276  1.3022
 1191TIP3   OH227767   5.676   1.130  11.277  0.2197 -0.0064  0.1939
 1191TIP3    H127768   5.605   1.177  11.233  0.2400 -0.1353  0.0225
 1191TIP3    H227769   5.637   1.099  11.358  0.0140 -0.2739 -0.0055
 1192TIP3   OH227770   3.476   2.747   8.479 -0.5248  0.1076 -0.0116
 1192TIP3    H127771   3.571   2.748   8.466 -0.2792  0.8886  1.5733
 1192TIP3    H227772   3.442   2.806   8.412  0.0502 -0.5608 -0.9077
 1193TIP3   OH227773   4.856   0.875  12.238 -0.7160 -0.4493 -0.6395
 1193TIP3    H127774   4.812   0.905  12.318  0.3467 -0.8704  0.1252
 1193TIP3    H227775   4.807   0.797  12.212 -1.3718 -0.0267 -0.6846
 1194TIP3   OH227776   1.544   4.801  10.210 -0.1863  0.9920  0.3556
 1194TIP3    H127777   1.450   4.782  10.211  0.1039 -0.5569  1.8364
 1194TIP3    H227778   1.550   4.893  10.236 -1.3330  1.4449 -0.8744
 1195TIP3   OH227779   3.298   1.315   9.550 -0.6324  0.5191  0.0698
 1195TIP3    H127780   3.235   1.327   9.479  0.2039  0.8842 -0.6314
 1195TIP3    H227781   3.285   1.391   9.607  1.0895  2.1629 -1.5931
 1196TIP3   OH227782   3.983   3.773  10.332  0.5801  0.1117 -0.5033
 1196TIP3    H127783   3.941   3.739  10.253 -0.2628 -0.9335  0.3589
 1196TIP3    H227784   3.980   3.700  10.394  1.1411  0.9351  0.5339
 1197TIP3   OH227785   4.146   0.401  10.466 -0.1039  0.4603  0.0009
 1197TIP3    H127786   4.125   0.453  10.543  1.1833 -1.5142  1.7965
 1197TIP3    H227787   4.241   0.397  10.465 -0.0802  0.4668 -1.7762
 1198TIP3   OH227788   6.161   4.664  11.789 -0.6967 -0.0710 -0.0762
 1198TIP3    H127789   6.143   4.636  11.878 -1.6739 -0.6534 -0.4424
 1198TIP3    H227790   6.098   4.733  11.772 -2.0763 -1.5113 -1.0651
 1199TIP3   OH227791   5.218   1.674   9.839 -0.4381 -0.6070 -0.2491
 1199TIP3    H127792   5.294   1.677   9.896  0.2532 -0.9677 -1.1208
 1199TIP3    H227793   5.206   1.764   9.810  0.6639 -0.7835 -1.3574
 1200TIP3   OH227794   3.232   3.394  10.221  0.0446  0.5350  0.6125
 1200TIP3    H127795   3.220   3.396  10.126  3.5396 -1.5219 -0.0648
 1200TIP3    H227796   3.184   3.317  10.250  0.0692  0.3922  0.2747
 1201TIP3   OH227797   5.673   4.041  10.789 -0.2621 -0.1096 -0.1685
 1201TIP3    H127798   5.622   4.007  10.863 -0.0356  0.1303  0.1005
 1201TIP3    H227799   5.619   4.111  10.754 -0.9209 -0.9890 -0.9772
 1202TIP3   OH227800   0.361   4.574  10.334 -0.1139 -0.2215  0.6310
 1202TIP3    H127801   0.379   4.661  10.368 -3.2145  0.1479  1.6335
 1202TIP3    H227802   0.444   4.528  10.339  0.9627  1.7933  2.8120
 1203TIP3   OH227803   4.251   1.008  11.398 -0.1163 -0.0596  0.5311
 1203TIP3    H127804   4.251   0.925  11.446  1.6109 -0.2039  0.3356
 1203TIP3    H227805   4.248   0.983  11.306  0.8992  0.0579  0.4553
 1204TIP3   OH227806   0.018   2.212  11.448  0.3378 -0.8030 -0.1387
 1204TIP3    H127807   0.006   2.258  11.365  0.3810 -2.8037 -1.3171
 1204TIP3    H227808  -0.060   2.235  11.500  0.7599  1.2029 -0.3199
 1205TIP3   OH227809   1.695   1.294   9.440 -0.0208 -0.5022  0.4752
 1205TIP3    H127810   1.752   1.249   9.502 -1.2295 -0.4987  1.6564
 1205TIP3    H227811   1.753   1.347   9.386  1.0830 -0.5601  1.5759
 1206TIP3   OH227812   0.850   0.667  12.467  0.4314  0.2254  0.3841
 1206TIP3    H127813   0.869   0.574  12.452 -2.2852 -0.3611  0.1731
 1206TIP3    H227814   0.843   0.705  12.380 -1.2763 -0.0467  0.3714
 1207TIP3   OH227815   2.516   4.915  10.882  0.4563  0.1563  0.0949
 1207TIP3    H127816   2.527   4.953  10.795  0.7198  1.9745  0.8747
 1207TIP3    H227817   2.509   4.821  10.866 -0.4708  0.5171 -1.9604
 1208TIP3   OH227818   0.121   1.665   9.565 -0.0508  0.3936  0.4093
 1208TIP3    H127819   0.203   1.696   9.526 -0.4867 -0.6722 -1.5148
 1208TIP3    H227820   0.058   1.671   9.493 -1.0052 -1.3649  1.0596
 1209TIP3   OH227821   0.517   5.772   9.469 -0.1976  0.0482 -0.1542
 1209TIP3    H127822   0.431   5.747   9.504  0.3423 -0.3191  0.9472
 1209TIP3    H227823   0.510   5.867   9.455 -1.5959 -0.3175 -2.4794
 1210TIP3   OH227824   6.061   1.214  10.334 -0.2468  0.1731  0.4349
 1210TIP3    H127825   6.133   1.195  10.395 -0.1268 -1.3277 -0.1396
 1210TIP3    H227826   6.103   1.265  10.264  0.1153 -0.1023  0.4450
 1211TIP3   OH227827   0.180   5.515   9.276 -0.4265 -0.5129 -0.0943
 1211TIP3    H127828   0.110   5.535   9.214 -0.5288 -0.5808 -0.0010
 1211TIP3    H227829   0.231   5.446   9.234 -1.3721 -1.6184  0.5459
 1212TIP3   OH227830   2.739   1.688  11.199  0.3764 -0.6038  0.4094
 1212TIP3    H127831   2.705   1.643  11.276 -0.4304  0.0229  0.4359
 1212TIP3    H227832   2.794   1.758  11.235 -0.7688  0.2907  0.4565
 1213TIP3   OH227833   1.320   4.749  10.529 -0.6810  0.3388 -0.2941
 1213TIP3    H127834   1.335   4.830  10.578  1.4677 -0.4443  0.4877
 1213TIP3    H227835   1.246   4.707  10.573  0.2984  0.3377  1.4495
 1214TIP3   OH227836   1.245   6.070  10.087 -0.4463 -0.3688  0.0819
 1214TIP3    H127837   1.294   5.992  10.113 -1.3773 -0.7936  0.6326
 1214TIP3    H227838   1.164   6.066  10.139 -0.3015  1.2196  0.5019
 1215TIP3   OH227839   4.576   5.707   8.652  0.5990  0.0463  0.2193
 1215TIP3    H127840   4.660   5.739   8.686  0.6559  0.5254 -0.3610
 1215TIP3    H227841   4.552   5.636   8.712  1.3412  0.0018  0.4791
 1216TIP3   OH227842   4.104   3.016   9.989  0.0782 -0.0737  0.1428
 1216TIP3    H127843   4.152   2.953   9.936  1.7415  0.4274  0.9909
 1216TIP3    H227844   4.051   2.963  10.048  0.2077 -0.6453 -0.2484
 1217TIP3   OH227845   5.929   1.267  12.066 -0.3367  0.3151 -0.2560
 1217TIP3    H127846   6.012   1.314  12.058 -0.5294  0.9035  0.9666
 1217TIP3    H227847   5.864   1.326  12.028 -0.6060  1.1805  1.4422
 1218TIP3   OH227848   0.906   3.079  10.531 -0.5058 -0.1905  0.5121
 1218TIP3    H127849   0.934   3.001  10.578  1.3500  1.0584  1.6025
 1218TIP3    H227850   0.866   3.135  10.597  1.2982  1.1928  0.5160
 1219TIP3   OH227851   0.671   0.359  11.578  0.0185  0.0164  0.0679
 1219TIP3    H127852   0.647   0.424  11.644  1.2853  0.1935  0.3756
 1219TIP3    H227853   0.630   0.278  11.609  0.3316  0.1687  0.9123
 1220TIP3   OH227854   0.203   5.559  10.476  0.0927 -0.0894 -0.4745
 1220TIP3    H127855   0.236   5.610  10.550  2.3904 -0.5531 -1.1050
 1220TIP3    H227856   0.279   5.548  10.419 -0.3457 -3.7796 -0.5963
 1221TIP3   OH227857   5.251   1.593  10.744 -0.4372  0.2036 -0.4464
 1221TIP3    H127858   5.222   1.685  10.741  0.5785  0.5666  0.1579
 1221TIP3    H227859   5.226   1.563  10.832  0.9928  0.5362  0.0970
 1222TIP3   OH227860   6.275   6.530  10.199 -1.1422  0.0293 -0.5254
 1222TIP3    H127861   6.259   6.518  10.292  1.2085 -0.4268 -0.1103
 1222TIP3    H227862   6.198   6.494  10.156 -1.5530 -1.2778  1.2011
 1223TIP3   OH227863   6.159   1.176   9.986 -0.4214  0.6908 -0.0226
 1223TIP3    H127864   6.208   1.218   9.915  0.0113  1.1251  0.5255
 1223TIP3    H227865   6.216   1.106  10.016  0.0507  1.4210  0.8537
 1224TIP3   OH227866   2.241   6.188  11.489  0.1806  0.1162  0.4493
 1224TIP3    H127867   2.299   6.264  11.497  0.6533 -0.0599 -0.9957
 1224TIP3    H227868   2.168   6.207  11.548  1.3728  0.6490  1.8040
 1225TIP3   OH227869   2.037   2.601  12.508 -0.2881  0.1037  0.0467
 1225TIP3    H127870   1.982   2.675  12.536 -0.4201 -1.1051  3.5847
 1225TIP3    H227871   1.997   2.525  12.551  0.7435 -1.8315 -2.1847
 1226TIP3   OH227872   0.331   5.396  12.083 -0.3574 -1.1936 -0.1147
 1226TIP3    H127873   0.252   5.382  12.031 -1.5247 -0.7619  1.4617
 1226TIP3    H227874   0.302   5.388  12.173  1.4132 -0.9932  0.5096
 1227TIP3   OH227875   5.350   0.896  11.526  1.0049 -0.5243  0.9350
 1227TIP3    H127876   5.286   0.865  11.589 -0.3095  0.3512  0.0909
 1227TIP3    H227877   5.307   0.885  11.441  2.3849 -0.8753  0.2536
 1228TIP3   OH227878   2.232   5.879   9.444 -0.1621 -0.2129 -0.5760
 1228TIP3    H127879   2.268   5.962   9.474 -1.5245  0.1122  0.2532
 1228TIP3    H227880   2.190   5.899   9.360  1.2788 -0.5283 -1.3953
 1229TIP3   OH227881   5.357   2.528  11.318 -0.0229 -0.3096 -0.5209
 1229TIP3    H127882   5.362   2.615  11.357 -0.6194 -0.7390  0.5605
 1229TIP3    H227883   5.434   2.482  11.353 -0.4705 -0.6475  0.0224
 1230TIP3   OH227884   1.417   6.398  10.313 -0.0319  0.1696 -0.0720
 1230TIP3    H127885   1.467   6.318  10.329 -0.1993  0.4620  2.3336
 1230TIP3    H227886   1.342   6.392  10.372 -1.3955  0.9890 -1.6563
 1231TIP3   OH227887   3.771   0.167   8.950 -0.8423 -0.2572 -0.4186
 1231TIP3    H127888   3.698   0.164   8.888 -1.0001  0.4410 -0.2691
 1231TIP3    H227889   3.775   0.078   8.985 -1.7489 -0.2590 -0.2876
 1232TIP3   OH227890   0.582   1.088   9.782  0.7263 -0.6149 -0.5910
 1232TIP3    H127891   0.676   1.088   9.763  0.5126  0.2576 -1.7678
 1232TIP3    H227892   0.563   1.179   9.807  0.4139 -1.0688  0.9372
 1233TIP3   OH227893   3.951   1.196   9.368  0.1381 -0.2686 -0.4372
 1233TIP3    H127894   4.034   1.220   9.409  0.7445 -3.0026  0.1045
 1233TIP3    H227895   3.971   1.191   9.275  0.2723  0.2210 -0.4373
 1234TIP3   OH227896   4.376   6.552  12.143 -1.0733 -0.1250 -0.3208
 1234TIP3    H127897   4.304   6.540  12.206  0.5826 -3.5653  1.2158
 1234TIP3    H227898   4.450   6.580  12.197 -0.3632 -0.2449 -1.2154
 1235TIP3   OH227899   5.290   2.730  10.275  0.6819  0.8945  0.2488
 1235TIP3    H127900   5.224   2.799  10.276  0.1774  0.4194  1.0673
 1235TIP3    H227901   5.259   2.668  10.209  0.3860  0.7510  0.5198
 1236TIP3   OH227902   4.284   5.006  11.953 -0.1083  0.2844  0.0514
 1236TIP3    H127903   4.193   5.023  11.928  0.1624 -0.4907 -1.6027
 1236TIP3    H227904   4.307   5.079  12.010 -0.6829  2.4704 -2.3210
 1237TIP3   OH227905   0.096   6.540  12.409  0.4833 -0.1173  0.4114
 1237TIP3    H127906   0.134   6.606  12.350  1.7686 -1.0833  0.1207
 1237TIP3    H227907   0.002   6.557  12.405  0.5993  0.3457 -1.3259
 1238TIP3   OH227908   3.422   5.721  10.418 -0.1727 -0.0932  0.1247
 1238TIP3    H127909   3.467   5.737  10.501  0.6745 -0.1183 -0.3136
 1238TIP3    H227910   3.459   5.786  10.358  0.5572 -1.2265 -0.6991
 1239TIP3   OH227911   4.342   1.091  10.457 -0.0302  0.0335 -0.2161
 1239TIP3    H127912   4.406   1.150  10.417  1.2689 -0.4563  1.0630
 1239TIP3    H227913   4.260   1.141  10.457 -0.1616  0.0367 -3.4757
 1240TIP3   OH227914   1.100   2.584  10.879  0.9428 -0.4455 -0.4870
 1240TIP3    H127915   1.175   2.539  10.917  1.2672 -0.4543 -1.1380
 1240TIP3    H227916   1.034   2.583  10.949  1.1116 -1.5157 -0.3264
 1241TIP3   OH227917   5.331   5.599  11.262 -0.1686 -0.1187  0.0941
 1241TIP3    H127918   5.275   5.618  11.186 -1.1687 -0.4070  0.7321
 1241TIP3    H227919   5.281   5.632  11.336  1.1096  0.7806  0.5715
 1242TIP3   OH227920   4.096   6.205  12.492  0.1963 -0.3359  0.0202
 1242TIP3    H127921   4.052   6.286  12.516  0.1258 -0.6195  0.8710
 1242TIP3    H227922   4.026   6.140  12.485  0.0871 -0.0799 -1.9014
 1243TIP3   OH227923   1.326   1.480  10.260 -0.3133  0.1843  0.3169
 1243TIP3    H127924   1.287   1.421  10.325  0.2182  0.9402  1.3564
 1243TIP3    H227925   1.265   1.553  10.253 -0.7322 -0.2401 -0.6066
 1244TIP3   OH227926   5.241   0.509  12.564  0.2320 -0.7362  0.6777
 1244TIP3    H127927   5.183   0.580  12.537  1.7578  1.3394  2.4712
 1244TIP3    H227928   5.275   0.473  12.483 -0.5243  0.6542 -0.3006
 1245TIP3   OH227929   5.711   2.463   9.621 -0.2965 -0.4597  0.2795
 1245TIP3    H127930   5.625   2.454   9.579 -0.0615 -2.0980  0.0804
 1245TIP3    H227931   5.718   2.386   9.677  0.5775  0.2629  1.1977
 1246TIP3   OH227932   6.472   1.524   9.772  0.0981  0.2088 -0.6176
 1246TIP3    H127933   6.447   1.456   9.709 -0.3614 -0.6868  0.5098
 1246TIP3    H227934   6.568   1.523   9.772  0.0961 -0.7643 -0.2789
 1247TIP3   OH227935   0.092   2.171  10.120 -0.0412 -0.1248  0.0344
 1247TIP3    H127936   0.030   2.182  10.048  0.6494 -1.9618 -0.9048
 1247TIP3    H227937   0.175   2.202  10.084 -0.2964  2.2420  1.2570
 1248TIP3   OH227938   5.422   4.060  10.559 -1.1686  0.1091 -0.8037
 1248TIP3    H127939   5.349   4.052  10.620 -1.5779  1.5409 -1.0594
 1248TIP3    H227940   5.405   4.142  10.512  0.3979  0.2749 -1.1363
 1249TIP3   OH227941   1.378   2.524  11.983  0.3036  0.3259 -0.2173
 1249TIP3    H127942   1.452   2.503  11.926  0.6930  0.3846  0.2546
 1249TIP3    H227943   1.394   2.473  12.063 -0.6002 -0.2922 -0.4253
 1250TIP3   OH227944   6.373   2.945  10.661 -0.0243 -0.6932 -0.6598
 1250TIP3    H127945   6.464   2.928  10.634  0.3550  0.7650 -0.3824
 1250TIP3    H227946   6.377   3.030  10.704 -1.5243 -0.6665 -0.5507
 1251TIP3   OH227947   1.849   0.492   9.343  0.4637 -0.4525 -0.0187
 1251TIP3    H127948   1.817   0.532   9.424 -1.1539 -1.0048 -0.3504
 1251TIP3    H227949   1.935   0.456   9.367  0.3254  0.0076  1.2559
 1252TIP3   OH227950   5.897   1.946   9.608  0.3885  0.0300 -0.2280
 1252TIP3    H127951   5.879   1.852   9.608  2.0765 -0.3381 -1.2832
 1252TIP3    H227952   5.893   1.972   9.700  1.7382 -1.4950  0.3050
 1253TIP3   OH227953   3.171   5.428  10.128  0.3311  0.3197  0.3380
 1253TIP3    H127954   3.160   5.520  10.105 -0.0535  0.1310 -0.2481
 1253TIP3    H227955   3.218   5.430  10.212  0.2791  1.0450  0.3572
 1254TIP3   OH227956   3.371   1.021   9.860  0.3495  0.0174 -0.8762
 1254TIP3    H127957   3.300   1.056   9.913  1.8417 -0.3234  1.4587
 1254TIP3    H227958   3.349   0.928   9.851  0.3418 -0.0292 -0.4092
 1255TIP3   OH227959   2.062   1.839  10.475  0.1976 -0.3875 -0.5553
 1255TIP3    H127960   2.022   1.904  10.533  0.3773  0.5855 -1.5075
 1255TIP3    H227961   2.080   1.764  10.533  1.2877  0.9153  0.8870
 1256TIP3   OH227962   1.927   3.300   9.205  0.3273 -0.5845 -0.0304
 1256TIP3    H127963   1.923   3.393   9.184 -0.3423 -0.1830  1.7180
 1256TIP3    H227964   2.016   3.273   9.179  0.4076  0.4364 -0.8678
 1257TIP3   OH227965   4.319   4.690  12.498 -0.2040  0.4304 -0.5583
 1257TIP3    H127966   4.305   4.771  12.548 -0.1248 -0.5124  1.0868
 1257TIP3    H227967   4.235   4.644  12.503  0.7176 -1.1905  1.6769
 1258TIP3   OH227968   0.788   1.580   9.483  0.1785  0.6053  0.3568
 1258TIP3    H127969   0.828   1.585   9.396  0.0473  1.0703  0.3197
 1258TIP3    H227970   0.693   1.581   9.465  0.1239  2.5621  0.5794
 1259TIP3   OH227971   2.829   0.409  10.012  0.3978  0.4855 -0.4142
 1259TIP3    H127972   2.891   0.474  10.045  0.0353  0.8375 -0.4194
 1259TIP3    H227973   2.749   0.458   9.995  0.0338 -0.0085 -0.1661
 1260TIP3   OH227974   2.321   4.079  11.173  0.1413  0.2117 -0.2953
 1260TIP3    H127975   2.389   4.037  11.226 -0.6388 -0.3926  0.2549
 1260TIP3    H227976   2.253   4.012  11.165 -0.4402  0.8461 -0.7304
 1261TIP3   OH227977   2.634   2.986  11.852 -0.8233  0.5039  0.0489
 1261TIP3    H127978   2.605   2.937  11.929 -0.7297  1.6439  0.8493
 1261TIP3    H227979   2.717   2.946  11.828 -0.8541  0.1269  0.5474
 1262TIP3   OH227980   0.325   0.745  10.441  0.6339  0.2995 -0.2424
 1262TIP3    H127981   0.295   0.746  10.532  0.8328  0.4102 -0.1790
 1262TIP3    H227982   0.379   0.666  10.434 -0.3207 -0.3490 -0.5680
 1263TIP3   OH227983   0.726   0.536   8.877 -0.5067  0.1976  0.3747
 1263TIP3    H127984   0.781   0.458   8.881  1.2102  1.3999  2.3686
 1263TIP3    H227985   0.704   0.545   8.784 -0.1956 -2.2418  0.0067
 1264TIP3   OH227986   5.752   3.217  12.062  0.3303 -0.0228 -0.4269
 1264TIP3    H127987   5.678   3.262  12.020 -0.7140 -0.4920  0.8623
 1264TIP3    H227988   5.812   3.288  12.086 -0.7081  0.5951  0.4276
 1265TIP3   OH227989   4.714   5.346  12.418 -0.2828  0.0750 -0.3085
 1265TIP3    H127990   4.620   5.346  12.434 -0.0715 -2.1184  1.3894
 1265TIP3    H227991   4.747   5.420  12.468 -0.9696  0.0659  0.1669
 1266TIP3   OH227992   1.480   5.277  11.565  0.2562  0.2346  0.2852
 1266TIP3    H127993   1.550   5.237  11.513  1.0790  1.6001  0.3084
 1266TIP3    H227994   1.488   5.371  11.549 -0.2454  0.5951  1.9302
 1267TIP3   OH227995   1.083   1.656  10.577  0.2752 -0.5096 -0.0872
 1267TIP3    H127996   1.176   1.671  10.563 -0.2392  2.1548 -1.3461
 1267TIP3    H227997   1.055   1.607  10.500  0.6858 -1.7588  0.5355
 1268TIP3   OH227998   3.999   1.835  10.527 -0.4628  0.7189 -0.5571
 1268TIP3    H127999   4.028   1.872  10.444  0.9475  0.2353 -0.3021
 1268TIP3    H228000   4.079   1.806  10.570 -1.3009 -0.3264  0.3624
 1269TIP3   OH228001   1.074   5.512  10.052  0.0434  0.3779  0.2012
 1269TIP3    H128002   1.091   5.421  10.074  1.7509  0.6499  0.1713
 1269TIP3    H228003   1.070   5.514   9.956  0.5142  0.3938  0.1774
 1270TIP3   OH228004   5.239   3.408  11.958  0.3105 -0.0765 -0.3733
 1270TIP3    H128005   5.218   3.317  11.979  3.7993 -0.7326  0.8262
 1270TIP3    H228006   5.276   3.404  11.869 -0.1107  0.3074 -0.5728
 1271TIP3   OH228007   3.405   3.777  12.319  0.1266 -0.2501 -0.9529
 1271TIP3    H128008   3.461   3.739  12.251  1.0520  0.3257 -0.5337
 1271TIP3    H228009   3.466   3.821  12.378 -0.9312  2.5259 -1.7982
 1272TIP3   OH228010   1.810   6.455  11.499  0.0984 -0.5273  0.1647
 1272TIP3    H128011   1.855   6.480  11.419  0.0959  0.9128  0.5785
 1272TIP3    H228012   1.869   6.480  11.570 -1.6076  2.2274  0.7582
 1273TIP3   OH228013   4.214   3.644  11.089  0.1260  0.0877 -0.1890
 1273TIP3    H128014   4.266   3.619  11.165 -0.1137  1.6631  0.5315
 1273TIP3    H228015   4.243   3.733  11.068 -1.0951  0.3625 -0.7957
 1274TIP3   OH228016   6.251   5.811  11.178 -0.5274 -0.1350  0.1240
 1274TIP3    H128017   6.232   5.734  11.125  2.0175 -1.4027  0.9198
 1274TIP3    H228018   6.207   5.883  11.132 -1.3064 -1.7263 -1.7415
 1275TIP3   OH228019   5.307   1.864  11.750 -0.1290 -0.2592  0.1540
 1275TIP3    H128020   5.230   1.809  11.761 -1.0222  0.2866 -2.6074
 1275TIP3    H228021   5.272   1.949  11.720  1.3873  0.9017  1.4926
 1276TIP3   OH228022   3.383   4.742  10.599  0.1765 -0.2012  0.6753
 1276TIP3    H128023   3.452   4.808  10.592  0.6495 -0.7397  0.0074
 1276TIP3    H228024   3.376   4.706  10.510 -2.3940  1.2222  0.1984
 1277TIP3   OH228025   4.262   3.719  10.573 -0.2024 -0.7153  0.0152
 1277TIP3    H128026   4.240   3.627  10.556  0.8413 -1.3180  1.6194
 1277TIP3    H228027   4.243   3.731  10.666  1.4748  0.1184  0.2910
 1278TIP3   OH228028   0.516   6.158  10.389  0.4241 -0.1664  0.1932
 1278TIP3    H128029   0.454   6.213  10.437  0.2671 -0.2883  0.1299
 1278TIP3    H228030   0.470   6.136  10.308  0.8137  0.3128 -0.1669
 1279TIP3   OH228031   0.677   1.926   9.493  0.0834 -0.4580  0.3650
 1279TIP3    H128032   0.737   1.966   9.430 -0.3476  0.6357  0.6398
 1279TIP3    H228033   0.709   1.836   9.501  1.5147  0.0119  0.2830
 1280TIP3   OH228034   5.405   4.535  10.812 -0.2968  0.1543  0.2202
 1280TIP3    H128035   5.391   4.515  10.905  0.1295 -0.8806  0.0787
 1280TIP3    H228036   5.392   4.630  10.805 -3.8354 -0.1287  0.7263
 1281TIP3   OH228037   2.163   1.492  11.918  0.4488  0.5329  0.0425
 1281TIP3    H128038   2.092   1.451  11.869  0.6173 -0.6544  0.7413
 1281TIP3    H228039   2.124   1.570  11.957 -1.1385 -1.2102  2.2112
 1282TIP3   OH228040   5.201   0.038  10.277  0.1175  0.2663  0.1772
 1282TIP3    H128041   5.176   0.086  10.356 -0.4014  3.3782 -1.7012
 1282TIP3    H228042   5.294   0.018  10.289 -0.6722 -2.4053  2.9183
 1283TIP3   OH228043   4.031   5.483   9.646  0.0493 -0.0239 -0.3279
 1283TIP3    H128044   4.052   5.457   9.735 -1.2532 -0.6076 -0.1683
 1283TIP3    H228045   3.981   5.564   9.655 -2.0873 -1.2598 -0.3171
 1284TIP3   OH228046   6.596   4.283  11.492  0.1529 -0.4396 -0.1030
 1284TIP3    H128047   6.527   4.296  11.556  1.5307  0.0349  1.3372
 1284TIP3    H228048   6.673   4.325  11.530  1.7082 -2.4881 -0.8235
 1285TIP3   OH228049   0.457   4.733   9.167 -0.5519  0.6284 -0.3112
 1285TIP3    H128050   0.451   4.761   9.258  1.6256 -0.3670  0.2052
 1285TIP3    H228051   0.461   4.637   9.171  1.4498  0.6307 -1.2620
 1286TIP3   OH228052   6.566   0.911  10.862 -0.4597 -0.4807  0.0589
 1286TIP3    H128053   6.594   0.823  10.885 -0.7946 -0.6395 -0.1229
 1286TIP3    H228054   6.639   0.948  10.813  0.2601 -0.1329  1.3667
 1287TIP3   OH228055   2.391   1.059  11.282  0.3502  0.2801 -0.1767
 1287TIP3    H128056   2.475   1.051  11.328  0.8907  0.7904 -1.0308
 1287TIP3    H228057   2.350   1.137  11.320  0.1869 -0.0709  0.3642
 1288TIP3   OH228058   5.905   2.990  12.021  0.1956  0.1041  0.2333
 1288TIP3    H128059   5.917   2.960  11.931 -0.3078 -1.2506  0.5861
 1288TIP3    H228060   5.875   3.080  12.013 -0.2566 -0.1392 -0.9704
 1289TIP3   OH228061   2.909   6.314   9.624  0.5299 -0.3473 -0.4799
 1289TIP3    H128062   2.935   6.231   9.664  0.6888  0.2058  0.5829
 1289TIP3    H228063   2.846   6.289   9.557 -0.8825 -1.1880  1.0870
 1290TIP3   OH228064   2.256   0.748  11.461 -0.9519  0.2958 -0.4992
 1290TIP3    H128065   2.169   0.772  11.430 -1.5238  0.0488  0.8806
 1290TIP3    H228066   2.252   0.654  11.476 -0.8309  0.4724  0.7398
 1291TIP3   OH228067   4.563   4.802  12.243 -0.8569  0.0157  0.1226
 1291TIP3    H128068   4.543   4.893  12.267 -2.4690  0.0104 -1.0257
 1291TIP3    H228069   4.656   4.791  12.265 -0.4326  2.1671 -0.3835
 1292TIP3   OH228070   2.592   0.154   9.936 -0.1807  0.6742 -0.3188
 1292TIP3    H128071   2.527   0.204   9.887 -1.3268 -1.2718 -0.8575
 1292TIP3    H228072   2.565   0.161  10.027 -1.5727 -0.6341 -0.5939
 1293TIP3   OH228073   5.993   5.786   9.161 -0.3280  0.6620  0.1687
 1293TIP3    H128074   5.968   5.868   9.117  0.8813  0.9456 -0.0265
 1293TIP3    H228075   5.921   5.726   9.141 -1.5603  1.8405  0.8498
 1294TIP3   OH228076   4.425   2.683  11.038 -0.5410  0.1252  0.1495
 1294TIP3    H128077   4.386   2.728  10.963 -1.1430  0.0367  0.4094
 1294TIP3    H228078   4.393   2.730  11.115  1.6633  1.4930  0.3287
 1295TIP3   OH228079   1.288   1.579   9.665 -0.0934 -0.0104  0.0955
 1295TIP3    H128080   1.315   1.665   9.632 -0.7071 -0.1893 -0.9324
 1295TIP3    H228081   1.369   1.538   9.695  0.3034  0.6594 -0.0247
 1296TIP3   OH228082   1.043   2.349  11.668  0.2311  0.5068 -0.1200
 1296TIP3    H128083   0.960   2.366  11.713  0.8616  0.7125  0.9808
 1296TIP3    H228084   1.021   2.356  11.575 -1.3979 -1.3071  0.0625
 1297TIP3   OH228085   2.559   2.413  10.236 -0.0829  0.1285 -0.5873
 1297TIP3    H128086   2.581   2.489  10.291  3.7239 -0.8527 -0.4903
 1297TIP3    H228087   2.567   2.446  10.146  1.5527 -0.0761 -0.5465
 1298TIP3   OH228088   2.255   5.410  12.003  0.1491 -0.1260  0.2904
 1298TIP3    H128089   2.280   5.343  11.939  1.1273  0.1827  0.3377
 1298TIP3    H228090   2.337   5.453  12.026 -0.2083 -0.1249  1.6423
 1299TIP3   OH228091   5.846   1.483  11.604 -0.1600  0.2678 -0.1796
 1299TIP3    H128092   5.807   1.560  11.563  0.0302  0.4757  0.0320
 1299TIP3    H228093   5.787   1.411  11.581 -0.0123  0.3646 -0.9002
 1300TIP3   OH228094   4.457   4.281   9.290  0.0481  0.3907  0.4021
 1300TIP3    H128095   4.386   4.333   9.327  0.0009 -0.3914  1.4552
 1300TIP3    H228096   4.428   4.261   9.201  0.3121  2.5883 -0.2489
 1301TIP3   OH228097   0.483   5.745  11.985  0.2614 -0.1245  0.3561
 1301TIP3    H128098   0.506   5.833  12.015 -1.1993  0.3751  0.1172
 1301TIP3    H228099   0.447   5.758  11.898 -0.7031 -0.8430  0.6283
 1302TIP3   OH228100   3.126   1.071   8.970  0.1972 -0.0417  0.3816
 1302TIP3    H128101   3.173   0.990   8.949 -0.1729  0.2397 -1.8408
 1302TIP3    H228102   3.106   1.064   9.063  1.2011 -1.9578  0.5100
 1303TIP3   OH228103   0.191   2.657   9.160 -0.1883  0.7852  0.0848
 1303TIP3    H128104   0.235   2.742   9.155 -0.8664  1.0877 -0.9694
 1303TIP3    H228105   0.115   2.666   9.102  0.1194 -0.7559 -0.6029
 1304TIP3   OH228106   3.426   2.022   8.391 -0.0684 -0.1695  0.0032
 1304TIP3    H128107   3.408   1.979   8.308 -0.3243  0.2290 -0.1497
 1304TIP3    H228108   3.495   2.085   8.370  1.5624 -1.6668  0.5741
 1305TIP3   OH228109   1.170   5.824   9.619  0.7023  0.0531 -0.0851
 1305TIP3    H128110   1.262   5.802   9.633  0.4926 -0.0176  1.2713
 1305TIP3    H228111   1.153   5.897   9.678  0.1999  0.9001 -1.2437
 1306TIP3   OH228112   3.287   2.815  10.972  0.2531 -0.2951 -0.8655
 1306TIP3    H128113   3.341   2.737  10.978 -1.2306 -1.5602 -2.7788
 1306TIP3    H228114   3.198   2.784  10.988 -0.4227  0.8910 -2.0743
 1307TIP3   OH228115   5.390   2.795  10.809 -0.0813  0.1709  0.0071
 1307TIP3    H128116   5.377   2.770  10.718 -0.7137 -0.5561  0.2824
 1307TIP3    H228117   5.350   2.882  10.816  0.7325  0.5970 -0.5982
 1308TIP3   OH228118   3.363   0.464   9.960 -0.1202 -0.3118 -0.0796
 1308TIP3    H128119   3.457   0.452   9.946 -0.1128 -0.0361 -0.2779
 1308TIP3    H228120   3.341   0.403  10.030  0.1143 -0.7239 -0.3599
 1309TIP3   OH228121   1.365   2.257  11.696  0.2328 -0.8832 -0.1615
 1309TIP3    H128122   1.346   2.288  11.607  3.3218  0.0715 -0.5886
 1309TIP3    H228123   1.460   2.256  11.701  0.2186  1.1677  3.8800
 1310TIP3   OH228124   4.236   6.463  10.750  0.0205  0.1851 -0.7469
 1310TIP3    H128125   4.309   6.430  10.698 -0.0356 -1.5248  0.1895
 1310TIP3    H228126   4.162   6.407  10.726 -0.0603 -0.4936  0.9856
 1311TIP3   OH228127   4.238   3.282   9.240 -0.9045 -0.2750 -0.1197
 1311TIP3    H128128   4.144   3.280   9.256 -0.8049  0.8697  0.7118
 1311TIP3    H228129   4.246   3.279   9.144 -1.6999 -2.0008 -0.1742
 1312TIP3   OH228130   0.243   3.261  12.011 -0.4069  0.1831 -0.1669
 1312TIP3    H128131   0.299   3.184  12.012 -1.3123 -0.4899  0.3659
 1312TIP3    H228132   0.261   3.303  11.927  0.7416 -0.1182 -0.0787
 1313TIP3   OH228133   6.222   0.128  10.967  0.1877  0.1028  0.4634
 1313TIP3    H128134   6.243   0.218  10.943 -0.0026 -0.3203 -1.4321
 1313TIP3    H228135   6.241   0.123  11.061 -0.8896  2.4189  0.8700
 1314TIP3   OH228136   0.717   4.616  12.214 -0.1524  0.2362  0.1487
 1314TIP3    H128137   0.807   4.598  12.185  0.4654  1.6524  1.0441
 1314TIP3    H228138   0.695   4.543  12.272  0.1460 -0.4816 -0.6220
 1315TIP3   OH228139   0.853   4.819  10.687  0.0443  0.1790 -0.4673
 1315TIP3    H128140   0.825   4.735  10.724 -1.2505  1.2229  1.0656
 1315TIP3    H228141   0.870   4.874  10.763 -0.2654  1.6609 -1.4350
 1316TIP3   OH228142   1.386   3.671  10.906 -0.2244  0.4601 -0.1337
 1316TIP3    H128143   1.315   3.690  10.845  2.1626  1.7976 -2.7905
 1316TIP3    H228144   1.445   3.614  10.857  0.6626 -0.4906  1.9099
 1317TIP3   OH228145   4.237   2.690  12.204 -0.6214 -0.2056 -0.1727
 1317TIP3    H128146   4.276   2.632  12.269  0.7525  0.7721 -0.0912
 1317TIP3    H228147   4.223   2.773  12.250 -1.7907 -0.2002 -0.5091
 1318TIP3   OH228148   5.415   2.736  11.485  0.1794  0.2507 -0.0795
 1318TIP3    H128149   5.444   2.677  11.555 -0.2711 -1.5028 -1.3062
 1318TIP3    H228150   5.427   2.824  11.521  2.6971 -0.4877  1.1429
 1319TIP3   OH228151   0.759   2.322   9.572  1.0143  0.1821  1.1705
 1319TIP3    H128152   0.678   2.312   9.622  2.0013  0.9194  2.9927
 1319TIP3    H228153   0.825   2.278   9.624  1.8664 -0.2666 -0.2205
 1320TIP3   OH228154   6.253   4.147  11.038  0.0466 -0.5138 -0.0063
 1320TIP3    H128155   6.190   4.220  11.032  2.0575  1.2763 -0.4283
 1320TIP3    H228156   6.230   4.092  10.963 -1.5537 -0.3915  0.3395
 1321TIP3   OH228157   5.431   6.510  11.160  0.0299 -0.2225 -0.4529
 1321TIP3    H128158   5.352   6.458  11.144  0.0829 -0.0832 -1.1909
 1321TIP3    H228159   5.498   6.470  11.106  0.3010  0.0667 -0.3347
 1322TIP3   OH228160   0.353   2.317  12.054 -0.1952 -0.1719  1.1757
 1322TIP3    H128161   0.405   2.240  12.077 -1.4222 -0.9111  1.5476
 1322TIP3    H228162   0.348   2.368  12.134 -1.8209 -1.1754  1.7426
 1323TIP3   OH228163   3.677   0.933   8.604 -0.5234 -0.4398 -0.7182
 1323TIP3    H128164   3.701   0.889   8.522 -0.4681 -0.6735 -0.5774
 1323TIP3    H228165   3.635   1.014   8.576 -1.3377 -0.9453 -0.9931
 1324TIP3   OH228166   5.963   6.332  11.374  0.0532 -0.1720 -0.3900
 1324TIP3    H128167   5.950   6.238  11.379  2.0862 -0.5102 -0.4433
 1324TIP3    H228168   5.875   6.369  11.370 -0.8256 -1.9851  0.8284
 1325TIP3   OH228169   2.395   0.406  11.562 -0.2320  0.5108 -0.1114
 1325TIP3    H128170   2.392   0.475  11.628 -0.7504  1.2551 -0.8860
 1325TIP3    H228171   2.482   0.413  11.523 -0.3110  0.7940 -0.2433
 1326TIP3   OH228172   5.220   5.108  11.587  0.2373  0.0109  0.2330
 1326TIP3    H128173   5.238   5.105  11.493  1.6909  1.2651  0.4294
 1326TIP3    H228174   5.196   5.200  11.603  0.1949 -0.1494  1.1215
 1327TIP3   OH228175   3.838   3.311  12.075  0.6906  0.3892 -0.3839
 1327TIP3    H128176   3.890   3.232  12.088  1.7395  1.1261  0.1030
 1327TIP3    H228177   3.821   3.343  12.164 -0.8001  0.0599 -0.5193
 1328TIP3   OH228178   3.905   4.531   9.674 -0.3524  0.0281  0.3969
 1328TIP3    H128179   3.992   4.557   9.706 -1.1100  2.9028  0.3679
 1328TIP3    H228180   3.845   4.561   9.742 -1.4225 -0.8777 -0.1226
 1329TIP3   OH228181   5.115   3.168  11.538  0.6249  0.2379 -0.1091
 1329TIP3    H128182   5.099   3.213  11.621  0.0207 -1.2375  0.6150
 1329TIP3    H228183   5.084   3.230  11.472 -2.0225  0.2011  0.9379
 1330TIP3   OH228184   1.835   3.705  10.767 -0.0655 -0.5445 -0.1110
 1330TIP3    H128185   1.794   3.749  10.841 -0.5650 -1.5834  0.2532
 1330TIP3    H228186   1.763   3.663  10.721  0.3320 -0.5349 -0.7594
 1331TIP3   OH228187   3.899   2.413   9.856 -0.0640  0.2710 -0.3932
 1331TIP3    H128188   3.960   2.478   9.822  1.2068 -0.1921  0.8942
 1331TIP3    H228189   3.888   2.350   9.785  1.7878 -0.1694 -0.3456
 1332TIP3   OH228190   5.089   2.345  11.438 -0.0395 -0.0307  0.0051
 1332TIP3    H128191   5.147   2.415  11.410 -0.3786  0.0003 -0.6364
 1332TIP3    H228192   5.002   2.384  11.438 -0.1902 -0.3583 -0.0446
 1333TIP3   OH228193   5.760   5.727  10.476 -0.3323  0.1758 -0.3190
 1333TIP3    H128194   5.760   5.652  10.535 -1.4733 -0.9960 -1.6963
 1333TIP3    H228195   5.845   5.769  10.489  0.1428 -1.0722  0.8414
 1334TIP3   OH228196   0.986   0.526  11.988  0.3897  0.4106  0.1114
 1334TIP3    H128197   0.918   0.593  12.001 -0.5677 -0.7012  1.0729
 1334TIP3    H228198   1.047   0.540  12.061  0.2560  0.3194  0.2423
 1335TIP3   OH228199   2.724   2.213  12.188 -0.4353 -0.6418 -0.1364
 1335TIP3    H128200   2.664   2.225  12.114 -0.4027 -1.3698 -0.2962
 1335TIP3    H228201   2.670   2.230  12.265 -0.8579 -1.2824 -0.2793
 1336TIP3   OH228202   1.350   1.839   9.557  0.3963  0.6993  0.6799
 1336TIP3    H128203   1.288   1.893   9.607 -0.4773  1.6058 -1.2965
 1336TIP3    H228204   1.333   1.861   9.466  0.8983 -2.0069 -0.1512
 1337TIP3   OH228205   0.613   0.200  10.320 -0.3085  0.3671  0.3781
 1337TIP3    H128206   0.705   0.190  10.296  0.1954  0.6232  2.0934
 1337TIP3    H228207   0.565   0.166  10.244  1.1569  1.1076 -0.9521
 1338TIP3   OH228208   0.976   4.786  12.208  0.0245  0.0869 -0.1408
 1338TIP3    H128209   1.029   4.826  12.277 -0.0991  1.3390 -0.7453
 1338TIP3    H228210   0.912   4.854  12.184 -1.8542 -1.3520  0.5314
 1339TIP3   OH228211   3.273   2.607  10.695  0.5496 -0.0825 -0.3406
 1339TIP3    H128212   3.276   2.703  10.697  1.8025 -0.1175  0.5967
 1339TIP3    H228213   3.207   2.587  10.629  0.3447  1.4236 -0.6387
 1340TIP3   OH228214   3.329   6.175  10.920  0.0338 -0.0441 -0.2568
 1340TIP3    H128215   3.325   6.118  10.843 -0.2744 -0.5359  0.1204
 1340TIP3    H228216   3.324   6.264  10.884  1.4061 -0.2123 -0.9196
 1341TIP3   OH228217   1.713   4.164  10.767 -0.0037 -0.1968 -0.0080
 1341TIP3    H128218   1.772   4.226  10.809 -1.1839  0.9643  0.0234
 1341TIP3    H228219   1.639   4.157  10.828 -0.6318 -0.3568 -0.7715
 1342TIP3   OH228220   0.900   3.748  11.441  0.1957  0.2644 -0.2344
 1342TIP3    H128221   0.988   3.776  11.419  0.4660 -0.8590 -0.6065
 1342TIP3    H228222   0.903   3.653  11.438 -0.7071  0.1708  0.9950
 1343TIP3   OH228223   1.732   5.836   9.047 -0.0373  0.2086 -0.4617
 1343TIP3    H128224   1.821   5.859   9.019  0.0168 -0.9178 -1.2912
 1343TIP3    H228225   1.686   5.920   9.053  1.2747  0.8721  0.7083
 1344TIP3   OH228226   3.057   3.567  10.475  0.0180  0.6119  0.4231
 1344TIP3    H128227   3.145   3.591  10.447  0.5668  0.2057  1.6962
 1344TIP3    H228228   2.999   3.602  10.408  1.2185 -0.0342 -0.9965
 1345TIP3   OH228229   1.913   2.139   9.922  0.2277 -0.6407  0.4393
 1345TIP3    H128230   1.835   2.116   9.871  0.0810  0.5655  0.0933
 1345TIP3    H228231   1.910   2.234   9.929  0.8098 -0.6985  1.8195
 1346TIP3   OH228232   5.079   1.009   9.639  0.2662  0.1450  0.4328
 1346TIP3    H128233   5.155   0.953   9.652  0.5181  0.7008  1.3968
 1346TIP3    H228234   5.064   1.051   9.723 -1.8902 -0.9036  0.6491
 1347TIP3   OH228235   6.289   5.779  10.156  0.5243  0.2540 -0.6816
 1347TIP3    H128236   6.236   5.710  10.115  0.9585  0.6889 -2.0182
 1347TIP3    H228237   6.304   5.747  10.245 -1.7923  0.0122 -0.3187
 1348TIP3   OH228238   5.348   4.188  12.224  0.1504 -0.4411  0.3568
 1348TIP3    H128239   5.394   4.258  12.270 -0.3691 -0.4137  0.8492
 1348TIP3    H228240   5.395   4.178  12.141 -0.9309  1.8586 -0.6237
 1349TIP3   OH228241   6.175   2.997  12.036  0.0254  0.0600  0.1092
 1349TIP3    H128242   6.081   3.007  12.024  0.1549 -0.9145 -2.3202
 1349TIP3    H228243   6.185   2.911  12.077 -0.1186 -0.1802 -0.3544
 1350TIP3   OH228244   5.211   4.164   9.641  0.1289  0.6257  0.2227
 1350TIP3    H128245   5.153   4.225   9.595  1.2254 -0.2650 -2.5937
 1350TIP3    H228246   5.152   4.103   9.684 -1.0479  0.7104 -1.1870
 1351TIP3   OH228247   3.684   0.121   9.575  0.5489 -0.1439 -0.4365
 1351TIP3    H128248   3.723   0.120   9.488  1.0174  2.3955 -0.3358
 1351TIP3    H228249   3.608   0.179   9.567  0.4249 -0.1086  0.7777
 1352TIP3   OH228250   2.222   3.825  10.399  0.4166  0.0994  0.1106
 1352TIP3    H128251   2.287   3.867  10.456 -1.4644  1.1085  1.6412
 1352TIP3    H228252   2.152   3.798  10.459  0.7946 -4.0345 -0.9689
 1353TIP3   OH228253   6.586   1.868   9.851 -0.2216 -0.1345  0.5306
 1353TIP3    H128254   6.661   1.868   9.793 -0.1756 -3.8261  0.3376
 1353TIP3    H228255   6.622   1.854   9.938 -0.5532  0.4235  0.7624
 1354TIP3   OH228256   1.271   4.784  12.278  1.1104 -0.0972  0.2251
 1354TIP3    H128257   1.285   4.836  12.199 -0.3000 -0.7387 -0.4836
 1354TIP3    H228258   1.221   4.842  12.336  1.9596  0.2985  0.5681
 1355TIP3   OH228259   1.870   0.021  10.296 -0.0912 -0.3495 -0.8776
 1355TIP3    H128260   1.838  -0.057  10.343  0.2230  0.6824  1.1936
 1355TIP3    H228261   1.820   0.094  10.333  1.5113  0.7540 -0.7607
 1356TIP3   OH228262   0.233   2.335   9.083 -0.3007 -0.0314 -0.2064
 1356TIP3    H128263   0.172   2.290   9.024  0.1576  0.1504 -0.8287
 1356TIP3    H228264   0.188   2.336   9.167  0.5886 -3.8402  0.5159
 1357TIP3   OH228265   1.041   3.544  11.191  0.2564  0.0823 -0.5342
 1357TIP3    H128266   1.013   3.614  11.132  1.3252  1.5767  0.6340
 1357TIP3    H228267   0.959   3.509  11.227 -0.3022  2.4106  0.6683
 1358TIP3   OH228268   0.029   0.197  11.249 -0.7728 -0.4823 -0.1169
 1358TIP3    H128269   0.061   0.193  11.339  1.4269 -1.1924 -0.8477
 1358TIP3    H228270   0.098   0.155  11.197 -0.0049  3.2720 -2.6071
 1359TIP3   OH228271   1.036   3.697  10.275  0.3078  0.3427 -0.7688
 1359TIP3    H128272   1.109   3.636  10.280 -0.2830 -0.2689  1.1533
 1359TIP3    H228273   1.031   3.720  10.182  3.0322  0.5667 -0.9474
 1360TIP3   OH228274   2.927   2.981   9.360 -0.1204 -0.5900  0.1446
 1360TIP3    H128275   2.925   2.978   9.264 -0.3452 -0.8950  0.1579
 1360TIP3    H228276   2.847   2.937   9.387  0.2723 -1.1102  0.4832
 1361TIP3   OH228277   4.976   2.645  10.319  0.2189  0.0644 -0.1981
 1361TIP3    H128278   4.894   2.595  10.322 -0.0265  0.4986  0.5999
 1361TIP3    H228279   5.043   2.582  10.345  0.7200 -1.2881 -4.0566
 1362TIP3   OH228280   5.155   0.165  10.036 -0.1637  0.8511 -0.4274
 1362TIP3    H128281   5.073   0.122  10.011  0.8253 -0.2188 -2.0460
 1362TIP3    H228282   5.193   0.107  10.102 -0.0486  0.5555 -0.7436
 1363TIP3   OH228283   5.199   5.150  10.138 -0.1737 -0.3810 -0.1019
 1363TIP3    H128284   5.136   5.170  10.207  0.8037  0.6530  0.5219
 1363TIP3    H228285   5.182   5.058  10.116  0.3364 -1.1580  2.4082
 1364TIP3   OH228286   1.895   1.902  10.261  0.1434  0.3625 -0.2864
 1364TIP3    H128287   1.954   1.922  10.189 -0.8212 -0.7115 -1.4263
 1364TIP3    H228288   1.952   1.895  10.338  1.5324 -0.8332 -1.3694
 1365TIP3   OH228289   3.649   2.655  10.176  0.5470 -0.2119  0.0172
 1365TIP3    H128290   3.616   2.606  10.251  1.4284  1.8051  1.8404
 1365TIP3    H228291   3.649   2.592  10.104  0.4930 -2.5101  1.9018
 1366TIP3   OH228292   3.411   3.110  11.821 -0.0551 -0.1479 -0.0575
 1366TIP3    H128293   3.379   3.181  11.876 -0.5879 -0.3806 -0.0673
 1366TIP3    H228294   3.488   3.076  11.868 -1.0799 -1.0052  1.0659
 1367TIP3   OH228295   0.279   0.224  10.189  0.0926  0.1120  0.0904
 1367TIP3    H128296   0.280   0.185  10.277 -1.6081  2.3456  1.2054
 1367TIP3    H228297   0.216   0.172  10.140  0.9834 -1.0957  0.1694
 1368TIP3   OH228298   2.245   6.219  12.003 -0.0801  0.5171  0.4344
 1368TIP3    H128299   2.320   6.203  12.061 -0.0533  1.4909  0.6940
 1368TIP3    H228300   2.283   6.223  11.916  0.1944  1.0869  0.5746
 1369TIP3   OH228301   2.435   1.358  10.319  0.2456 -0.1047  0.0956
 1369TIP3    H128302   2.433   1.447  10.352 -1.1044  0.6142 -1.7567
 1369TIP3    H228303   2.513   1.354  10.264  0.3530 -0.0900  0.2475
 1370TIP3   OH228304   5.138   4.794   9.899  0.1511  0.0942  0.0342
 1370TIP3    H128305   5.108   4.844   9.822 -0.3010 -1.2422 -0.6973
 1370TIP3    H228306   5.060   4.786   9.954  0.1326 -0.1073 -0.0214
 1371TIP3   OH228307   5.521   3.939  10.207  0.1941 -0.4313  0.0221
 1371TIP3    H128308   5.493   3.898  10.289 -0.4973 -1.8016 -0.8584
 1371TIP3    H228309   5.445   3.989  10.178  0.5536  0.3296  0.3749
 1372TIP3   OH228310   4.986   4.261  10.361  0.5322  0.1492 -0.0994
 1372TIP3    H128311   4.892   4.244  10.371  0.6504  0.1662  1.2392
 1372TIP3    H228312   5.028   4.178  10.386  0.8672  0.0229 -1.0607
 1373TIP3   OH228313   1.990   2.368   9.283 -0.1975 -0.0965 -0.5074
 1373TIP3    H128314   1.914   2.312   9.267 -1.1824  1.1441 -0.3312
 1373TIP3    H228315   2.016   2.398   9.196 -0.7768  0.5718 -0.4542
 1374TIP3   OH228316   1.421   0.108  10.689  0.0353 -0.1088 -0.1267
 1374TIP3    H128317   1.454   0.126  10.777  0.3650  2.6625 -0.7151
 1374TIP3    H228318   1.339   0.061  10.703  1.1111 -1.6039  1.5560
 1375TIP3   OH228319   3.357   2.125  10.376 -0.5072 -0.0760 -0.0026
 1375TIP3    H128320   3.300   2.136  10.452 -1.1346  0.8629 -0.6011
 1375TIP3    H228321   3.441   2.162  10.405 -0.4987 -0.4806  0.5104
 1376TIP3   OH228322   6.599   1.621  12.347 -1.0926 -1.3381  0.1170
 1376TIP3    H128323   6.581   1.706  12.306 -2.7968 -2.2022 -1.0748
 1376TIP3    H228324   6.678   1.635  12.398 -0.7757  0.7020 -0.8330
 1377TIP3   OH228325   4.067   6.123   9.538  0.1332  0.3756  0.9717
 1377TIP3    H128326   4.097   6.181   9.469 -0.0221  0.4463  0.9636
 1377TIP3    H228327   3.977   6.151   9.556 -0.3027 -0.5204  0.2495
 1378TIP3   OH228328   0.604   1.309   9.494  0.3662  0.4982  0.1294
 1378TIP3    H128329   0.512   1.283   9.484 -0.0933  0.4747  3.4007
 1378TIP3    H228330   0.604   1.403   9.476 -0.4366  0.6012  0.5964
 1379TIP3   OH228331   3.407   2.584  11.316  0.0256  0.0134  0.0395
 1379TIP3    H128332   3.444   2.615  11.399  0.6777  0.2234 -0.3235
 1379TIP3    H228333   3.339   2.648  11.296  1.1178  1.0527 -0.5142
 1380TIP3   OH228334   3.955   0.797  10.884  0.1892  0.3083  0.3355
 1380TIP3    H128335   3.990   0.708  10.884 -0.5470  0.0122 -0.0735
 1380TIP3    H228336   4.028   0.852  10.912  0.7795 -0.3747  0.1476
 1381TIP3   OH228337   1.718   3.072   9.040  0.4983 -0.0951  0.4772
 1381TIP3    H128338   1.720   3.080   9.135 -1.2551 -2.7350  0.8471
 1381TIP3    H228339   1.629   3.098   9.016  0.7144 -0.1047 -0.3496
 1382TIP3   OH228340   0.211   2.431  10.604  0.4564  0.4460 -0.0466
 1382TIP3    H128341   0.172   2.483  10.534  0.1839  0.1853 -0.0924
 1382TIP3    H228342   0.136   2.390  10.647  0.6119  0.6979  0.4727
 1383TIP3   OH228343   4.414   0.923  11.802 -0.4490 -0.0720 -0.5198
 1383TIP3    H128344   4.363   0.851  11.838 -1.2748  0.8024  0.1301
 1383TIP3    H228345   4.354   0.968  11.743  0.3378 -0.4240 -1.6311
 1384TIP3   OH228346   3.331   4.910  11.367 -0.0002  0.1037  0.6356
 1384TIP3    H128347   3.319   4.997  11.329 -1.3551 -0.0154  0.7516
 1384TIP3    H228348   3.280   4.852  11.312  1.6303 -0.8041  0.0116
 1385TIP3   OH228349   3.107   1.276  12.233  0.1867 -0.5338 -0.1794
 1385TIP3    H128350   3.113   1.184  12.259  0.0863 -0.3240  0.6099
 1385TIP3    H228351   3.133   1.277  12.141  1.9157 -1.1067  0.2672
 1386TIP3   OH228352   2.290   3.056  12.237  0.6712  0.0659  0.5452
 1386TIP3    H128353   2.318   3.147  12.227  1.3592 -0.2082 -0.1935
 1386TIP3    H228354   2.293   3.040  12.331 -0.6018  1.1375  0.7969
 1387TIP3   OH228355   2.016   2.520  11.049  0.0380 -0.0228  0.2577
 1387TIP3    H128356   2.062   2.596  11.086  1.5117 -1.0283  0.5923
 1387TIP3    H228357   2.013   2.537  10.955 -1.2089  1.2333  0.4868
 1388TIP3   OH228358   4.438   6.277  11.520 -0.0153  0.2155 -0.0092
 1388TIP3    H128359   4.417   6.369  11.503  0.8098  0.3663 -0.2912
 1388TIP3    H228360   4.447   6.238  11.433  0.7678  0.1509  0.0922
 1389TIP3   OH228361   2.790   1.979  11.230  0.3024 -0.2091 -0.7202
 1389TIP3    H128362   2.874   1.965  11.273 -0.3529 -2.4270 -0.0189
 1389TIP3    H228363   2.797   2.066  11.191  2.7380 -0.1548 -0.3151
 1390TIP3   OH228364   5.744   6.577  10.285 -0.3181  0.2236  0.1821
 1390TIP3    H128365   5.792   6.507  10.240 -0.7274  0.8366 -1.2544
 1390TIP3    H228366   5.803   6.603  10.356  0.1521 -1.0782  0.3122
 1391TIP3   OH228367   3.055   4.307  10.244  0.1024  0.8351  0.3909
 1391TIP3    H128368   3.110   4.229  10.246 -0.5352  0.3779  1.9494
 1391TIP3    H228369   2.973   4.278  10.203  1.1471  1.6636 -2.4895
 1392TIP3   OH228370   4.976   1.633   9.478  0.4437  0.3601  0.2747
 1392TIP3    H128371   4.955   1.606   9.389  0.7572  0.0970  0.2782
 1392TIP3    H228372   4.932   1.570   9.534 -0.2746  0.8961  0.3234
 1393TIP3   OH228373   3.451   5.190  11.475  0.3127 -0.2887  0.2051
 1393TIP3    H128374   3.441   5.154  11.563 -2.9504 -2.1199 -0.7421
 1393TIP3    H228375   3.362   5.214  11.449  0.9104 -1.3198 -3.1737
 1394TIP3   OH228376   0.811   2.517   9.861  0.0991 -0.4484 -0.1213
 1394TIP3    H128377   0.737   2.470   9.824  0.1311 -0.6132  0.0257
 1394TIP3    H228378   0.863   2.450   9.905 -0.1567 -0.1885  0.5743
 1395TIP3   OH228379   3.841   6.495  10.269 -0.3474 -0.1583 -0.2807
 1395TIP3    H128380   3.829   6.447  10.187 -0.3466  0.4909 -0.6615
 1395TIP3    H228381   3.935   6.492  10.284 -0.6027 -3.7509  1.8089
 1396TIP3   OH228382   1.478   4.897   9.891 -0.4298  0.0729 -0.4098
 1396TIP3    H128383   1.548   4.835   9.871 -2.0470 -2.5040  1.4033
 1396TIP3    H228384   1.439   4.917   9.806  0.1755 -1.3626 -1.0526
 1397TIP3   OH228385   5.596   0.951   9.854  0.4127  0.6322 -0.1232
 1397TIP3    H128386   5.676   0.908   9.883 -0.9291 -1.6649  0.4345
 1397TIP3    H228387   5.526   0.909   9.905 -1.0188  3.8436  0.8024
 1398TIP3   OH228388   3.332   2.664   8.831 -0.0266 -0.0443 -0.1837
 1398TIP3    H128389   3.274   2.598   8.869  0.6181 -0.1274  0.6916
 1398TIP3    H228390   3.351   2.724   8.903  1.8380 -0.6369 -0.1225
 1399TIP3   OH228391   6.363   0.513  12.195 -0.1614  0.4439  0.0234
 1399TIP3    H128392   6.423   0.438  12.194 -1.6629 -0.8016 -0.8709
 1399TIP3    H228393   6.311   0.502  12.274 -0.8903  0.0939 -0.4902
 1400TIP3   OH228394   5.720   3.996  10.045  0.0218  0.1082  0.0443
 1400TIP3    H128395   5.792   4.041  10.090  1.2968 -2.1023  0.3431
 1400TIP3    H228396   5.663   3.967  10.116  0.6503 -1.0723  0.0968
 1401TIP3   OH228397   5.442   1.221  11.170 -0.0211  0.3179 -0.4856
 1401TIP3    H128398   5.411   1.292  11.227  2.1274  1.5015 -0.7042
 1401TIP3    H228399   5.391   1.231  11.090  0.7151  2.1115 -0.7797
 1402TIP3   OH228400   5.817   5.033  11.326 -0.5602 -0.2756 -0.3249
 1402TIP3    H128401   5.792   5.122  11.300  0.0408 -0.2674 -0.9013
 1402TIP3    H228402   5.752   5.008  11.391 -1.4762  0.1264 -1.0593
 1403TIP3   OH228403   0.631   1.881  11.518 -0.0713 -0.3131  0.0338
 1403TIP3    H128404   0.719   1.870  11.481 -0.4832 -1.6561 -0.6013
 1403TIP3    H228405   0.583   1.930  11.452  0.8250  2.6626  1.4239
 1404TIP3   OH228406   6.280   0.116  11.674 -0.9437 -0.4365 -0.4487
 1404TIP3    H128407   6.215   0.098  11.743 -2.9740  1.6767 -1.6783
 1404TIP3    H228408   6.234   0.096  11.593  0.0751  0.7357 -1.3437
 1405TIP3   OH228409   6.510   5.137  11.138  0.4210  0.5582 -0.2668
 1405TIP3    H128410   6.454   5.085  11.080 -1.1992  3.5616 -1.6229
 1405TIP3    H228411   6.456   5.151  11.216  0.7457  0.4750 -0.0244
 1406TIP3   OH228412   4.019   6.313  10.664  0.0097 -0.3829  0.1691
 1406TIP3    H128413   4.006   6.280  10.575 -0.3759 -3.3034  1.2048
 1406TIP3    H228414   3.931   6.339  10.693 -0.3135 -1.7475  0.4879
 1407TIP3   OH228415   6.287   0.133  10.025  0.2833 -0.2369 -0.4528
 1407TIP3    H128416   6.248   0.086  10.098  1.1617  1.1756  1.0037
 1407TIP3    H228417   6.213   0.162   9.973 -0.3202 -2.2181 -0.7918
 1408TIP3   OH228418   1.518   5.988  11.924 -0.5811 -0.3674  0.4151
 1408TIP3    H128419   1.553   6.034  12.001  0.5720 -1.2011  0.4078
 1408TIP3    H228420   1.530   5.895  11.944 -0.4140 -0.5963 -0.7175
 1409TIP3   OH228421   1.560   0.689  11.279  0.1852 -0.7346  0.2363
 1409TIP3    H128422   1.550   0.637  11.358 -0.7692  1.8944  1.9791
 1409TIP3    H228423   1.473   0.690  11.239  0.3346 -0.9397 -0.0949
 1410TIP3   OH228424   0.501   2.897  12.088  0.1746 -0.2843  0.3298
 1410TIP3    H128425   0.464   2.961  12.027  0.5192 -0.2164  0.1901
 1410TIP3    H228426   0.572   2.943  12.132  0.1939 -0.4619  0.4880
 1411TIP3   OH228427   2.848   1.892   9.647  0.5463 -0.5240  0.0861
 1411TIP3    H128428   2.786   1.939   9.591  2.4883  0.7486 -1.1484
 1411TIP3    H228429   2.815   1.906   9.736 -1.0458 -0.1177 -0.5284
 1412TIP3   OH228430   0.016   4.821  12.507  0.8189  0.3325  0.1067
 1412TIP3    H128431   0.003   4.846  12.598 -1.6374 -2.9479  0.8815
 1412TIP3    H228432   0.098   4.771  12.507  1.4825  1.4033  0.2194
 1413TIP3   OH228433   2.983   4.052   9.256  0.0063  0.0749 -0.4248
 1413TIP3    H128434   2.966   4.125   9.196 -0.9367  0.2521  0.0311
 1413TIP3    H228435   2.916   3.987   9.235 -0.6383  0.3341  0.7108
 1414TIP3   OH228436   4.287   0.016  11.848 -0.0202  0.4691  0.2637
 1414TIP3    H128437   4.309  -0.016  11.936 -1.9986  0.4915  0.8181
 1414TIP3    H228438   4.228  -0.051  11.813  0.8438  0.3996 -1.1195
 1415TIP3   OH228439   5.930   6.069   9.972 -0.1986  0.7933  0.1069
 1415TIP3    H128440   5.998   6.001   9.967  1.8850  2.5130  2.4675
 1415TIP3    H228441   5.954   6.132   9.904  0.4069  1.2225  0.7053
 1416TIP3   OH228442   6.134   3.096  10.118  0.1905 -0.0033  0.2348
 1416TIP3    H128443   6.191   3.149  10.061  0.1506 -0.7641 -0.5317
 1416TIP3    H228444   6.053   3.087  10.069 -1.3777  2.6411  2.0955
 1417TIP3   OH228445   0.721   5.140  11.540  0.1186 -0.1482  0.5779
 1417TIP3    H128446   0.694   5.220  11.586 -2.0681  0.4189 -1.5015
 1417TIP3    H228447   0.654   5.076  11.564 -0.2385 -0.2490 -0.6185
 1418TIP3   OH228448   1.225   5.461  11.062  0.0083 -0.7735  0.3588
 1418TIP3    H128449   1.262   5.407  10.992 -0.2406 -1.9753  1.1234
 1418TIP3    H228450   1.265   5.427  11.142 -0.7298 -0.3284  0.9254
 1419TIP3   OH228451   5.823   0.119   9.441 -1.0336 -0.0417  0.6007
 1419TIP3    H128452   5.857   0.208   9.443 -1.5665  0.1802 -0.1629
 1419TIP3    H228453   5.901   0.064   9.442 -0.6528  0.4592 -0.5419
 1420TIP3   OH228454   6.518   3.238   8.495 -0.2840  0.3198 -0.1894
 1420TIP3    H128455   6.472   3.174   8.440  0.8809  1.1878 -2.2879
 1420TIP3    H228456   6.582   3.187   8.544 -0.7759 -0.3684 -0.2491
 1421TIP3   OH228457   6.329   3.949   9.819  0.2784 -0.0311 -0.2912
 1421TIP3    H128458   6.248   3.983   9.781  1.1642  0.4283 -1.8681
 1421TIP3    H228459   6.360   4.018   9.877 -0.5262 -0.2844  0.4655
 1422TIP3   OH228460   1.983   6.305  12.109  0.3664  0.0052 -0.5776
 1422TIP3    H128461   1.926   6.235  12.080 -0.2482  0.6897 -1.0296
 1422TIP3    H228462   2.071   6.276  12.086  0.1459 -0.7530 -0.4725
 1423TIP3   OH228463   1.533   6.021  10.981 -0.3227  0.3494  0.4708
 1423TIP3    H128464   1.496   5.993  11.064 -0.4486 -0.2945  0.2013
 1423TIP3    H228465   1.506   6.112  10.972 -1.8524 -0.0996  0.2765
 1424TIP3   OH228466   3.317   6.399  10.781  0.3019 -0.3907  0.1343
 1424TIP3    H128467   3.343   6.487  10.808 -2.9236  0.6691  0.2272
 1424TIP3    H228468   3.279   6.410  10.694 -2.0519 -1.2046  0.9654
 1425TIP3   OH228469   3.623   2.055   9.168  0.0056  0.2287 -0.0361
 1425TIP3    H128470   3.697   2.116   9.168  0.5109 -0.3702  0.0486
 1425TIP3    H228471   3.547   2.109   9.189  0.5850  0.6620  1.0167
 1426TIP3   OH228472   2.967   0.736  10.014 -0.3970 -0.3865 -0.6493
 1426TIP3    H128473   3.026   0.811  10.009 -0.5079 -0.2235  0.3403
 1426TIP3    H228474   3.015   0.670  10.064 -1.0078 -0.2743  0.1190
 1427TIP3   OH228475   4.517   1.672  10.878  0.7193  0.0481  0.0542
 1427TIP3    H128476   4.428   1.637  10.876  0.5910  0.4210 -1.2380
 1427TIP3    H228477   4.515   1.738  10.948  0.1500 -0.3471  0.4233
 1428TIP3   OH228478   2.404   0.601  12.325 -0.4656  0.2474  0.2092
 1428TIP3    H128479   2.381   0.640  12.410  2.4885  4.2609 -0.5113
 1428TIP3    H228480   2.347   0.644  12.263  0.0155  0.2964 -0.2065
 1429TIP3   OH228481   4.908   4.732  10.033 -0.0686 -0.0084 -0.3614
 1429TIP3    H128482   4.909   4.686  10.117  0.5283 -0.5735 -0.6740
 1429TIP3    H228483   4.870   4.669   9.972  0.6294 -0.0396 -0.7643
 1430TIP3   OH228484   3.084   3.455  10.886  0.5653 -0.0575 -0.6570
 1430TIP3    H128485   3.149   3.399  10.843  0.3759  0.6201 -1.8440
 1430TIP3    H228486   3.131   3.536  10.906  0.4769 -0.1241 -0.1667
 1431TIP3   OH228487   4.377   4.762   9.795 -0.9801  0.3521  0.1108
 1431TIP3    H128488   4.448   4.730   9.738 -1.4841 -1.3851  0.3984
 1431TIP3    H228489   4.410   4.749   9.884 -0.6602  1.9642  0.2483
 1432TIP3   OH228490   2.526   0.574   8.530 -0.2377  0.2930  0.1752
 1432TIP3    H128491   2.603   0.578   8.587 -1.5224 -0.0298  2.0425
 1432TIP3    H228492   2.532   0.653   8.476  1.5178  0.1308  0.0770
 1433TIP3   OH228493   5.650   0.587  10.734 -0.0044  0.8130  0.3691
 1433TIP3    H128494   5.638   0.524  10.663  0.2927  1.2406 -0.0661
 1433TIP3    H228495   5.744   0.585  10.753  0.2028  1.9242 -0.4167
 1434TIP3   OH228496   2.058   5.107  10.160 -0.1264 -0.0771  0.2405
 1434TIP3    H128497   1.998   5.078  10.091 -0.2076 -0.9980  0.6855
 1434TIP3    H228498   2.006   5.103  10.240  0.1459  0.4166  0.4479
 1435TIP3   OH228499   2.779   4.085  11.169 -0.0421 -0.1957 -0.2499
 1435TIP3    H128500   2.684   4.080  11.157 -0.1519  0.8722  0.1296
 1435TIP3    H228501   2.815   4.059  11.084 -0.6476 -1.1691 -0.2306
 1436TIP3   OH228502   6.424   5.775  12.430  0.4618  0.1611 -0.5547
 1436TIP3    H128503   6.331   5.797  12.431  0.4764  0.2580 -0.9571
 1436TIP3    H228504   6.468   5.860  12.434  0.5834  0.0562  2.3612
 1437TIP3   OH228505   4.368   0.653  10.192 -0.4417 -0.0065  0.4006
 1437TIP3    H128506   4.366   0.583  10.128 -2.3507 -0.1068  0.5070
 1437TIP3    H228507   4.363   0.734  10.141  1.9429  0.1387  0.2667
 1438TIP3   OH228508   2.340   3.236  11.915 -0.5038 -0.4156 -0.1318
 1438TIP3    H128509   2.384   3.151  11.907 -0.5783 -0.3445 -1.8376
 1438TIP3    H228510   2.398   3.290  11.968 -0.2441 -1.3908  0.5971
 1439TIP3   OH228511   2.519   3.013  10.590 -0.0868  0.0017  0.4933
 1439TIP3    H128512   2.575   3.012  10.668  1.7492  1.0775 -0.7284
 1439TIP3    H228513   2.447   3.071  10.613  1.5301  2.0071  0.7320
 1440TIP3   OH228514   5.851   4.988   9.737 -0.4640 -0.4571  0.0907
 1440TIP3    H128515   5.862   4.987   9.642 -2.4398 -1.1794 -0.1917
 1440TIP3    H228516   5.861   5.080   9.762 -1.1154 -0.0700 -1.0017
 1441TIP3   OH228517   3.116   4.734  10.656  0.4804 -0.3926  0.4071
 1441TIP3    H128518   3.095   4.664  10.717  0.3385 -0.2248  0.5534
 1441TIP3    H228519   3.212   4.735  10.651  0.5144 -0.0886  1.0026
 1442TIP3   OH228520   5.499   4.541  10.532 -0.7253 -0.5721  0.1299
 1442TIP3    H128521   5.497   4.527  10.627 -1.5569  0.5557  0.2988
 1442TIP3    H228522   5.486   4.454  10.495 -2.1817 -0.8044  1.0833
 1443TIP3   OH228523   4.073   3.902  12.335  0.0722 -0.6341 -0.3550
 1443TIP3    H128524   3.992   3.953  12.328 -0.3071 -0.9798  1.0355
 1443TIP3    H228525   4.116   3.938  12.412  0.9044 -0.9265 -0.6780
 1444TIP3   OH228526   5.409   4.911  11.678 -0.4444  0.2501 -0.6885
 1444TIP3    H128527   5.359   4.991  11.692 -1.8404 -0.2045 -2.7620
 1444TIP3    H228528   5.481   4.936  11.620  2.0193  0.9310  2.3795
 1445TIP3   OH228529   5.336   5.980  11.719 -0.6629  0.4328 -0.2686
 1445TIP3    H128530   5.358   6.020  11.635  0.4215 -2.1360 -1.3281
 1445TIP3    H228531   5.419   5.973  11.765 -1.1705  1.3259  0.8119
 1446TIP3   OH228532   5.125   6.214  11.282  0.4069  0.1275 -0.0130
 1446TIP3    H128533   5.175   6.258  11.213  1.1268  2.4956  1.8718
 1446TIP3    H228534   5.182   6.142  11.310  0.4685 -0.3483 -1.3046
 1447TIP3   OH228535   2.568   5.708  11.547 -0.0323  0.7718 -0.1402
 1447TIP3    H128536   2.659   5.683  11.536  0.0308  0.9740 -0.0841
 1447TIP3    H228537   2.570   5.804  11.554 -0.4455  0.9867 -2.2705
 1448TIP3   OH228538   5.144   5.532  10.138 -0.0991  0.5522 -0.7953
 1448TIP3    H128539   5.114   5.590  10.208 -0.8629  0.6710 -1.2024
 1448TIP3    H228540   5.081   5.459  10.140  0.5740 -0.0284 -0.5933
 1449TIP3   OH228541   1.988   1.089  11.553  0.0540  0.0755 -0.3888
 1449TIP3    H128542   1.940   1.153  11.501 -1.3871  0.5326  1.4073
 1449TIP3    H228543   1.920   1.031  11.589  0.7322  0.9432  2.4967
 1450TIP3   OH228544   1.714   2.782  11.931 -0.2303  0.2426 -0.7586
 1450TIP3    H128545   1.666   2.749  12.007  0.9176  1.8624  0.7643
 1450TIP3    H228546   1.665   2.749  11.856 -3.0888  0.8417  0.6658
 1451TIP3   OH228547   4.274   1.720  11.932  0.4211  0.5592  0.0046
 1451TIP3    H128548   4.316   1.708  11.847  0.4867 -1.9083  0.3255
 1451TIP3    H228549   4.196   1.772  11.913  1.3099  1.4813 -1.2812
 1452TIP3   OH228550   4.000   4.143   9.157 -0.0812 -0.0378  0.1232
 1452TIP3    H128551   4.042   4.192   9.086 -0.4853  0.1761  0.0334
 1452TIP3    H228552   4.073   4.106   9.207  0.2099 -0.5792 -0.6764
 1453TIP3   OH228553   5.092   4.833  11.607 -0.8577  0.5221  0.1764
 1453TIP3    H128554   4.996   4.837  11.615 -1.3812  1.9063 -4.1280
 1453TIP3    H228555   5.120   4.924  11.612 -0.2817  0.5198 -2.0448
 1454TIP3   OH228556   3.481   4.613  11.354  0.0361  0.2310 -0.2659
 1454TIP3    H128557   3.388   4.634  11.362 -0.1575  0.1407 -2.0344
 1454TIP3    H228558   3.483   4.523  11.322  0.7761 -0.2058  0.9244
 1455TIP3   OH228559   2.452   2.250   9.674 -0.0222  0.1106 -0.0431
 1455TIP3    H128560   2.396   2.227   9.748 -2.3596  1.8968 -1.1144
 1455TIP3    H228561   2.491   2.167   9.645 -0.8955 -0.9579  1.7233
 1456TIP3   OH228562   2.691   3.234   8.879 -0.1548 -0.0360  0.5482
 1456TIP3    H128563   2.642   3.165   8.835  1.9215 -1.2615  0.0047
 1456TIP3    H228564   2.637   3.258   8.954 -1.0492 -2.1439  0.6529
 1457TIP3   OH228565   0.103   1.731  10.865 -0.0541  0.0562  0.4951
 1457TIP3    H128566   0.154   1.650  10.873  1.7513  1.0468 -0.4950
 1457TIP3    H228567   0.099   1.747  10.771 -0.2472  1.2081  0.6883
 1458TIP3   OH228568   1.830   2.427  12.019 -0.4079 -0.3457  0.0491
 1458TIP3    H128569   1.879   2.500  12.058  1.3613 -0.7308 -1.3573
 1458TIP3    H228570   1.742   2.464  12.004  0.1575  1.1823  0.2732
 1459TIP3   OH228571   6.519   2.979  11.360  0.2659  0.5073  0.3394
 1459TIP3    H128572   6.523   2.889  11.328  1.3848  0.8451 -0.5554
 1459TIP3    H228573   6.432   3.010  11.333 -0.2847 -0.4084  1.0046
 1460TIP3   OH228574   5.888   2.657  12.084  0.2488  0.1120 -0.3958
 1460TIP3    H128575   5.799   2.624  12.072 -0.0610  0.5139  0.6967
 1460TIP3    H228576   5.877   2.750  12.105  0.9384  0.2049 -0.4172
 1461TIP3   OH228577   4.647   1.610   9.400  0.2814 -0.4663 -0.2301
 1461TIP3    H128578   4.715   1.544   9.413 -0.1016 -0.4059  2.9740
 1461TIP3    H228579   4.621   1.600   9.308  1.7222 -3.2655 -0.4519
 1462TIP3   OH228580   2.329   6.263   8.478 -0.1141  0.1921 -0.0551
 1462TIP3    H128581   2.303   6.353   8.499 -0.4645  0.0556  0.0975
 1462TIP3    H228582   2.397   6.273   8.411 -2.6680  0.4781 -2.8195
 1463TIP3   OH228583   1.815   3.230  10.093  0.2907  0.1075  0.3478
 1463TIP3    H128584   1.868   3.221  10.013  0.8300  0.6520  0.6417
 1463TIP3    H228585   1.792   3.323  10.096  0.9515  0.2492  1.2529
 1464TIP3   OH228586   2.506   0.687   9.348 -0.0863 -0.1893  0.5533
 1464TIP3    H128587   2.422   0.641   9.354  0.7127 -1.6260  1.0737
 1464TIP3    H228588   2.483   0.780   9.355 -1.4908 -0.6221  2.3933
 1465TIP3   OH228589   5.854   1.480  10.175 -0.0779 -0.0393  0.1019
 1465TIP3    H128590   5.773   1.455  10.219  0.0771 -1.6233 -0.4385
 1465TIP3    H228591   5.887   1.398  10.138  0.8735  0.8760 -1.1610
 1466TIP3   OH228592   4.640   5.787  11.628  0.1153  0.4357 -0.0086
 1466TIP3    H128593   4.669   5.860  11.682 -0.3935 -0.0332  0.9266
 1466TIP3    H228594   4.711   5.724  11.632  0.2755  0.5981 -0.2753
 1467TIP3   OH228595   1.096   4.999  12.362 -0.1612  0.7925 -0.3864
 1467TIP3    H128596   1.140   5.017  12.446 -0.5787  0.8463 -0.1768
 1467TIP3    H228597   1.078   5.086  12.326 -1.0856  0.7947  0.0519
 1468TIP3   OH228598   4.939   1.146  10.111  0.0706 -0.3278  0.1344
 1468TIP3    H128599   4.874   1.088  10.151 -1.3118  0.9337 -0.2016
 1468TIP3    H228600   5.010   1.150  10.174 -0.9769 -0.3083  1.3559
 1469TIP3   OH228601   4.671   1.787  10.403 -0.1302 -0.0965 -0.1042
 1469TIP3    H128602   4.661   1.704  10.356  0.4332  0.1889 -0.7560
 1469TIP3    H228603   4.732   1.768  10.474 -2.0432 -0.8676  1.4119
 1470TIP3   OH228604   0.121   2.105  11.137 -0.4051  0.5781 -0.0860
 1470TIP3    H128605   0.139   2.198  11.120  0.6854  0.7933  1.9258
 1470TIP3    H228606   0.026   2.099  11.140 -0.4998  1.5287 -0.7436
 1471TIP3   OH228607   0.333   6.369  10.875 -0.1896  0.0308 -0.0898
 1471TIP3    H128608   0.348   6.319  10.955 -0.9631 -0.5721 -0.3096
 1471TIP3    H228609   0.384   6.449  10.887  0.6940 -0.5950  0.4652
 1472TIP3   OH228610   5.727   3.006  10.616  0.6093  0.1975  0.2952
 1472TIP3    H128611   5.664   3.072  10.587 -0.3451 -0.6953  0.2894
 1472TIP3    H228612   5.731   2.943  10.544 -0.7993 -1.3536  1.4948
 1473TIP3   OH228613   0.362   4.480  11.148 -0.0330  0.3705 -0.3930
 1473TIP3    H128614   0.337   4.396  11.109 -1.0304  0.3299  0.2988
 1473TIP3    H228615   0.285   4.535  11.138 -0.2418  0.4432  1.2302
 1474TIP3   OH228616   6.072   2.085  10.831  0.7533 -0.6465 -0.4629
 1474TIP3    H128617   6.002   2.124  10.778  0.7774 -1.2768 -0.9748
 1474TIP3    H228618   6.036   2.080  10.919  0.0526 -1.1821 -0.7697
 1475TIP3   OH228619   5.186   3.677  12.106 -0.1096  0.3570  0.1291
 1475TIP3    H128620   5.133   3.690  12.027 -1.7578  0.6108  1.2344
 1475TIP3    H228621   5.190   3.582  12.115  0.4189  0.3148 -0.4570
 1476TIP3   OH228622   4.287   0.360  10.058 -0.1191  0.0729 -0.0394
 1476TIP3    H128623   4.243   0.298  10.117 -1.0132  1.0147  0.3248
 1476TIP3    H228624   4.380   0.353  10.080 -0.5464  1.7791  2.9585
 1477TIP3   OH228625   2.838   4.035   9.504  0.2278 -0.2917  0.1226
 1477TIP3    H128626   2.751   4.039   9.464 -0.5890 -0.6643  1.7965
 1477TIP3    H228627   2.896   4.015   9.431 -0.8409  1.5047 -1.3409
 1478TIP3   OH228628   0.250   4.069  11.364 -0.6153  0.5632  0.4427
 1478TIP3    H128629   0.155   4.070  11.368 -0.6288 -1.2026  1.3903
 1478TIP3    H228630   0.272   3.981  11.334  0.7270  1.0890 -0.2104
 1479TIP3   OH228631   4.370   2.901  11.507 -0.2276  0.6456  0.1297
 1479TIP3    H128632   4.344   2.870  11.420  0.4674  0.2687  0.0509
 1479TIP3    H228633   4.340   2.992  11.510 -1.1809  0.3493 -0.1074
 1480TIP3   OH228634   4.345   1.628   9.684  0.4169 -0.6704 -0.0452
 1480TIP3    H128635   4.290   1.615   9.606  1.8831 -1.0391 -1.0531
 1480TIP3    H228636   4.359   1.540   9.718  1.5665 -0.7376 -0.6527
 1481TIP3   OH228637   3.240   1.978  10.604  0.5131 -0.2669  0.1092
 1481TIP3    H128638   3.318   1.922  10.604  0.0187 -0.9745  0.3755
 1481TIP3    H228639   3.248   2.031  10.683  0.4242 -0.7798  0.4661
 1482TIP3   OH228640   0.412   5.988  11.283 -0.2823 -0.5197  0.1800
 1482TIP3    H128641   0.439   5.898  11.299 -0.2744 -0.3219  1.3195
 1482TIP3    H228642   0.318   5.983  11.269 -0.1311 -0.8263 -0.8215
 1483TIP3   OH228643   3.311   5.900  11.595 -0.9409  0.4874 -0.6361
 1483TIP3    H128644   3.285   5.808  11.602  1.3284 -0.0972  1.7092
 1483TIP3    H228645   3.291   5.923  11.504 -2.2931 -2.0638 -1.0898
 1484TIP3   OH228646   1.409   5.032  10.313 -0.6009 -0.4487  0.3198
 1484TIP3    H128647   1.356   5.082  10.376  1.9563  0.7508  1.6735
 1484TIP3    H228648   1.469   5.097  10.276  2.4258 -2.2657  1.6537
 1485TIP3   OH228649   4.627   5.274   8.977  0.1299 -0.1277  1.0353
 1485TIP3    H128650   4.691   5.246   8.912 -1.1361 -0.3529 -0.1461
 1485TIP3    H228651   4.663   5.244   9.060  1.1272 -1.0325  0.2969
 1486TIP3   OH228652   0.575   3.079  11.645  0.9814 -0.3556  0.1115
 1486TIP3    H128653   0.568   3.164  11.601  0.6640  0.3280  1.4405
 1486TIP3    H228654   0.489   3.038  11.634  0.9037 -0.1904  0.1108
 1487TIP3   OH228655   2.262   3.551  11.172  0.3117 -0.2209  0.2091
 1487TIP3    H128656   2.297   3.482  11.228 -1.8048 -3.3483 -2.0333
 1487TIP3    H228657   2.325   3.559  11.100  0.3692 -0.0475  0.2762
 1488TIP3   OH228658   5.169   4.082  11.230 -0.3805 -0.0852  0.5208
 1488TIP3    H128659   5.255   4.090  11.189  0.4494 -0.2764  2.1614
 1488TIP3    H228660   5.176   4.005  11.286 -1.8810 -0.5587  0.1266
 1489TIP3   OH228661   2.926   3.448   9.196  0.0707  0.4667 -0.0391
 1489TIP3    H128662   2.887   3.465   9.282 -0.6286  0.1744 -0.2864
 1489TIP3    H228663   2.856   3.469   9.134  0.5891  0.7245 -0.5424
 1490TIP3   OH228664   3.166   2.739  11.835  0.0004 -0.3005 -0.0224
 1490TIP3    H128665   3.118   2.821  11.845 -0.2159 -0.4067 -0.1733
 1490TIP3    H228666   3.101   2.677  11.800  0.2301 -0.4608 -0.1711
 1491TIP3   OH228667   4.258   5.686  12.390  0.1615 -0.0348  0.3189
 1491TIP3    H128668   4.183   5.631  12.410 -0.8984  1.2175 -0.0548
 1491TIP3    H228669   4.268   5.679  12.295 -1.0439  1.6395  0.0102
 1492TIP3   OH228670   0.992   0.465  12.930 -1.1658  0.7937 -0.9854
 1492TIP3    H128671   0.999   0.510  13.014 -0.7961 -1.5805  0.3500
 1492TIP3    H228672   0.912   0.499  12.890 -3.2970 -0.4321  1.9131
 1493TIP3   OH228673   5.582   0.226  11.115  0.0743 -0.0543  0.1586
 1493TIP3    H128674   5.640   0.153  11.092  1.8740  1.6753 -1.1520
 1493TIP3    H228675   5.611   0.253  11.203 -0.8275 -1.0733  0.7966
 1494TIP3   OH228676   1.651   1.112  11.111 -0.5420 -0.1270 -0.0481
 1494TIP3    H128677   1.742   1.083  11.125 -1.3520 -2.6440  0.5775
 1494TIP3    H228678   1.627   1.156  11.193 -0.3548 -0.9116  0.4493
 1495TIP3   OH228679   1.103   3.444   9.579 -0.5148  0.7292 -0.2531
 1495TIP3    H128680   1.065   3.502   9.513 -0.2200  0.3177 -0.7941
 1495TIP3    H228681   1.198   3.449   9.563 -0.5211 -0.3505 -0.6912
 1496TIP3   OH228682   6.190   5.547  11.631  0.3253  0.5174 -1.1155
 1496TIP3    H128683   6.227   5.584  11.551  1.5540  0.2876 -0.6782
 1496TIP3    H228684   6.261   5.495  11.668 -0.6980 -0.6216 -0.6560
 1497TIP3   OH228685   0.810   1.925  11.722  0.4575 -0.1088  0.0643
 1497TIP3    H128686   0.727   1.892  11.688 -0.2001 -0.4300  1.8668
 1497TIP3    H228687   0.857   1.956  11.645 -1.4856  0.4195 -0.9731
 1498TIP3   OH228688   3.249   2.675  11.581  0.0553  0.4050  0.6835
 1498TIP3    H128689   3.344   2.678  11.589  0.2483  0.2761 -1.1705
 1498TIP3    H228690   3.217   2.735  11.648  1.3790 -0.3346  2.0378
 1499TIP3   OH228691   4.956   2.092  10.782 -0.7779  0.3876 -0.4158
 1499TIP3    H128692   4.867   2.087  10.748 -0.2814 -0.6358 -1.6573
 1499TIP3    H228693   5.011   2.098  10.704  0.1564  4.5733  0.2858
 1500TIP3   OH228694   0.183   1.215   9.937 -0.4804 -0.4656  0.0199
 1500TIP3    H128695   0.217   1.177   9.856  0.7567 -0.2763  0.4181
 1500TIP3    H228696   0.112   1.157   9.963 -0.6524 -0.7301 -1.0068
 1501TIP3   OH228697   0.881   1.625  10.928  0.4624  0.1046 -0.3182
 1501TIP3    H128698   0.912   1.575  11.005 -1.0840  1.8574  1.5393
 1501TIP3    H228699   0.950   1.690  10.913 -0.4986  1.6488  1.5198
 1502TIP3   OH228700   2.867   0.136   9.945 -0.6155  0.5934 -0.3513
 1502TIP3    H128701   2.791   0.084   9.919 -1.1041 -0.1186  2.1870
 1502TIP3    H228702   2.829   0.213   9.987  0.0223  0.3112  0.7826
 1503TIP3   OH228703   6.215   1.258  12.018  0.0396  0.0088  0.3869
 1503TIP3    H128704   6.222   1.269  12.113  0.3891  0.1317  0.3508
 1503TIP3    H228705   6.250   1.340  11.982  0.1046 -0.1229  0.1493
 1504TIP3   OH228706   3.420   4.472  10.008  0.3052  0.3406  0.0821
 1504TIP3    H128707   3.497   4.426   9.973 -0.1660 -1.1379  0.9024
 1504TIP3    H228708   3.347   4.414   9.989 -0.5297  1.4307 -0.0985
 1505TIP3   OH228709   4.281   1.803  10.504  0.7308  0.1150  0.0758
 1505TIP3    H128710   4.350   1.869  10.502  0.0256  0.8567 -1.2442
 1505TIP3    H228711   4.243   1.805  10.416  0.5163 -1.8920  0.0785
 1506TIP3   OH228712   2.882   1.255  10.577 -0.2401  0.3885  0.1619
 1506TIP3    H128713   2.887   1.298  10.491 -0.7609  0.2380  0.0513
 1506TIP3    H228714   2.919   1.318  10.638  1.7496 -0.1462 -0.3897
 1507TIP3   OH228715   4.508   0.328  11.294 -0.5974 -0.4669 -0.0651
 1507TIP3    H128716   4.435   0.304  11.352  0.0829 -1.6923  0.3336
 1507TIP3    H228717   4.466   0.372  11.220 -1.6329 -0.1713  0.6605
 1508TIP3   OH228718   5.495   5.882  11.289  0.1932  0.0878 -0.0478
 1508TIP3    H128719   5.520   5.831  11.366 -0.8121  0.7418  0.7469
 1508TIP3    H228720   5.548   5.847  11.218 -1.3277 -2.9323  0.1503
 1509TIP3   OH228721   6.076   4.005   9.760  0.0954  0.2261 -0.2298
 1509TIP3    H128722   6.035   4.026   9.676 -0.9581  0.1522  0.2510
 1509TIP3    H228723   6.032   4.062   9.823  0.5160 -0.0856  0.3502
 1510TIP3   OH228724   1.990   5.208  10.979  0.2810 -0.2662  0.1760
 1510TIP3    H128725   1.972   5.214  10.885  1.5362  0.1273 -0.0607
 1510TIP3    H228726   2.068   5.151  10.984  0.0814 -0.4731  0.9948
 1511TIP3   OH228727   3.226   2.778  11.326 -0.0287  0.5891  0.0346
 1511TIP3    H128728   3.133   2.794  11.310  0.1515  0.1526 -1.5322
 1511TIP3    H228729   3.229   2.750  11.418 -1.4805  0.3043  0.0284
 1512TIP3   OH228730   4.284   6.036  10.976  0.0049 -0.0988  0.0122
 1512TIP3    H128731   4.302   6.038  10.883  0.0186  0.6543  0.0244
 1512TIP3    H228732   4.343   6.101  11.014 -0.7826  0.4220  0.3946
 1513TIP3   OH228733   2.671   1.104  12.521 -0.4740 -0.2389 -0.1092
 1513TIP3    H128734   2.756   1.145  12.533 -0.5594 -0.8958  4.2467
 1513TIP3    H228735   2.610   1.178  12.512  0.1402  0.3571  0.5014
 1514TIP3   OH228736   0.931   4.163  10.282  0.0036  0.1399  0.5885
 1514TIP3    H128737   1.010   4.160  10.337  1.0550 -0.5066 -0.8883
 1514TIP3    H228738   0.866   4.113  10.331  1.6412 -2.5298  0.2463
 1515TIP3   OH228739   4.503   2.015  12.465 -0.1738  0.3448  0.2767
 1515TIP3    H128740   4.591   1.990  12.435 -0.3451  0.6363 -0.5013
 1515TIP3    H228741   4.448   1.942  12.439 -0.2668  0.4472  0.1855
 1516TIP3   OH228742   3.877   5.229  10.791  0.6068 -0.2151 -0.4166
 1516TIP3    H128743   3.829   5.156  10.831  1.4110  0.2767  1.5650
 1516TIP3    H228744   3.969   5.208  10.805  0.9310  0.1818 -1.7432
 1517TIP3   OH228745   2.221   4.861  11.718 -0.2276 -0.9455  0.1316
 1517TIP3    H128746   2.221   4.866  11.623 -0.2343 -1.8366  0.0805
 1517TIP3    H228747   2.230   4.768  11.738 -0.0810 -0.7566  1.0031
 1518TIP3   OH228748   3.322   1.089  10.211 -0.6918 -0.6638 -0.8327
 1518TIP3    H128749   3.403   1.124  10.176  0.2634 -0.9081  0.9839
 1518TIP3    H228750   3.291   1.157  10.271 -1.1084 -1.1187 -0.5217
 1519TIP3   OH228751   0.492   3.328  10.083  0.2387  0.4607 -0.3953
 1519TIP3    H128752   0.442   3.303  10.161  0.8327 -5.8500 -1.4960
 1519TIP3    H228753   0.425   3.352  10.018 -1.0551 -1.9767 -0.0858
 1520TIP3   OH228754   4.297   0.360  11.575  0.2663  0.1696  0.4390
 1520TIP3    H128755   4.361   0.296  11.607  0.6027 -0.3308 -1.1581
 1520TIP3    H228756   4.225   0.307  11.541 -0.3273  0.7031  0.8292
 1521TIP3   OH228757   4.882   3.106   9.821 -0.7171  0.2462  0.1025
 1521TIP3    H128758   4.808   3.071   9.773 -0.4898 -1.2091  0.7772
 1521TIP3    H228759   4.955   3.047   9.801  0.2868  1.6429 -0.5499
 1522TIP3   OH228760   4.126   2.729   8.915 -0.4971 -0.0062  0.3297
 1522TIP3    H128761   4.097   2.705   8.827  3.1539 -4.7645  0.0648
 1522TIP3    H228762   4.204   2.782   8.901 -0.1342 -0.4402  0.6838
 1523TIP3   OH228763   1.530   4.385  11.445  0.5612 -0.0804 -0.3678
 1523TIP3    H128764   1.477   4.358  11.521  1.2157  0.1744  0.1914
 1523TIP3    H228765   1.581   4.307  11.424  0.9696  0.0870 -0.0268
 1524TIP3   OH228766   1.887   5.888  10.035 -0.0746 -0.0408 -0.3467
 1524TIP3    H128767   1.983   5.890  10.031  0.0172 -1.2520  0.7288
 1524TIP3    H228768   1.863   5.970  10.076  0.3959  0.8907 -1.8322
 1525TIP3   OH228769   1.773   2.448  11.190 -0.4005  0.0515 -0.3241
 1525TIP3    H128770   1.868   2.448  11.178 -0.3171 -0.2145  0.2881
 1525TIP3    H228771   1.762   2.448  11.285 -1.0136 -0.4765 -0.3962
 1526TIP3   OH228772   2.806   2.403  12.568  0.2406 -0.4680 -0.1686
 1526TIP3    H128773   2.877   2.467  12.563 -0.8652  0.8529  0.3227
 1526TIP3    H228774   2.796   2.387  12.662 -1.2326  0.6904 -0.1053
 1527TIP3   OH228775   2.974   4.875   9.784  0.7428 -0.4521 -0.7591
 1527TIP3    H128776   2.996   4.821   9.860  0.3744 -0.5650 -0.7309
 1527TIP3    H228777   3.028   4.840   9.713  1.9449  0.3837 -0.2863
 1528TIP3   OH228778   5.005   6.129  10.635 -0.4282 -0.4801 -0.0824
 1528TIP3    H128779   5.033   6.064  10.699 -2.2940 -0.7056  0.5744
 1528TIP3    H228780   4.913   6.145  10.656 -0.4721  1.1263 -1.3040
 1529TIP3   OH228781   3.904   1.496   9.097 -0.0084 -0.2444 -0.4099
 1529TIP3    H128782   3.946   1.506   9.011  0.2587 -1.8871 -0.4924
 1529TIP3    H228783   3.911   1.403   9.117 -1.3905 -0.1359  0.7381
 1530TIP3   OH228784   2.437   0.360   9.837 -0.3325 -0.2514  0.7201
 1530TIP3    H128785   2.417   0.425   9.769 -1.4244  0.5363  1.7488
 1530TIP3    H228786   2.501   0.404   9.893  0.5504 -0.8932  0.2387
 1531TIP3   OH228787   0.827   1.227   9.748  0.0861  0.2233 -0.1735
 1531TIP3    H128788   0.757   1.291   9.756 -0.5484 -0.6374  1.4655
 1531TIP3    H228789   0.906   1.275   9.772 -0.2988  0.5580  0.4556
 1532TIP3   OH228790   6.617   0.971  11.446  0.5608  0.4874 -0.8044
 1532TIP3    H128791   6.604   1.063  11.424  0.0120  0.7580  0.5232
 1532TIP3    H228792   6.677   0.974  11.521  1.7151 -0.3235 -1.6744
 1533TIP3   OH228793   0.551   2.626   9.166 -0.1306  0.3429 -0.1262
 1533TIP3    H128794   0.646   2.625   9.161 -0.0432 -1.6149  1.0790
 1533TIP3    H228795   0.530   2.582   9.249 -2.0318  3.0509  1.0093
 1534TIP3   OH228796   4.986   2.187  11.934  0.7294  0.3182  0.2756
 1534TIP3    H128797   4.918   2.174  12.000  0.7330 -2.1207 -0.1281
 1534TIP3    H228798   5.059   2.227  11.983  0.3021 -0.3321  1.4872
 1535TIP3   OH228799   4.379   2.126   9.754 -0.2586 -0.7485 -0.1775
 1535TIP3    H128800   4.432   2.049   9.733 -0.5892 -1.3006  0.9199
 1535TIP3    H228801   4.421   2.198   9.707  0.2870 -1.5280 -0.9112
 1536TIP3   OH228802   0.697   4.758  11.019  0.6082  0.3345 -0.4921
 1536TIP3    H128803   0.670   4.684  10.965  2.2525 -0.9801  0.3912
 1536TIP3    H228804   0.615   4.794  11.053 -0.2275 -3.0185  1.5207
 1537TIP3   OH228805   5.554   1.033  10.817  0.2088  0.6070 -0.9984
 1537TIP3    H128806   5.638   1.046  10.862 -0.3564 -0.2489  0.3720
 1537TIP3    H228807   5.574   0.971  10.747  0.5677 -0.2827 -0.1317
 1538TIP3   OH228808   4.217   1.436  11.686  0.5043  0.2916  0.4146
 1538TIP3    H128809   4.155   1.502  11.655 -2.6152 -1.8570  1.5219
 1538TIP3    H228810   4.261   1.477  11.760  0.8801  2.0719 -0.7271
 1539TIP3   OH228811   3.406   2.862   9.020  0.2595  0.1436  0.3146
 1539TIP3    H128812   3.363   2.898   9.098  1.4927  1.4034  0.4462
 1539TIP3    H228813   3.396   2.930   8.954 -0.3200 -0.7053 -0.5021
 1540TIP3   OH228814   5.491   1.984  11.573 -0.0606 -0.3297  0.5097
 1540TIP3    H128815   5.464   1.932  11.649  0.2623 -0.7043  0.3743
 1540TIP3    H228816   5.497   1.920  11.502 -0.6880  0.0695  0.0813
 1541TIP3   OH228817   1.714   2.390  11.451  0.0989 -0.3724 -0.4867
 1541TIP3    H128818   1.631   2.408  11.495 -0.0715 -0.7545 -0.6424
 1541TIP3    H228819   1.780   2.435  11.504 -0.3208  0.8706 -0.9817
 1542TIP3   OH228820   3.753   0.204  11.313 -0.2923  0.0173  0.0767
 1542TIP3    H128821   3.701   0.232  11.389  0.3265  0.4062  0.3617
 1542TIP3    H228822   3.829   0.262  11.313  0.5534 -1.0607  0.1285
 1543TIP3   OH228823   6.573   0.310  10.908  0.6318  0.4666 -0.0094
 1543TIP3    H128824   6.563   0.321  10.813  0.5749 -0.4244 -0.1177
 1543TIP3    H228825   6.622   0.228  10.917 -1.3127 -0.6600  0.7833
 1544TIP3   OH228826   0.851   6.341   9.591  0.2114  0.0157 -0.0037
 1544TIP3    H128827   0.765   6.301   9.599  0.9575 -2.3450 -2.3622
 1544TIP3    H228828   0.870   6.340   9.497  3.6094 -1.5563  0.5330
 1545TIP3   OH228829   0.296   4.021   8.830  0.9303  0.3754  0.1573
 1545TIP3    H128830   0.362   4.063   8.775  0.9909  1.4153  1.0021
 1545TIP3    H228831   0.271   4.088   8.893 -0.8690 -0.0191 -0.0790
 1546TIP3   OH228832   2.704   0.496   9.677  0.2691 -0.0193  0.8590
 1546TIP3    H128833   2.774   0.435   9.700  0.3361 -0.9768 -1.5617
 1546TIP3    H228834   2.736   0.581   9.706  2.9028 -0.2846 -0.9094
 1547TIP3   OH228835   1.599   0.655  10.832 -0.0560  0.0517 -0.5192
 1547TIP3    H128836   1.679   0.675  10.880 -0.0248 -0.6970 -0.2592
 1547TIP3    H228837   1.530   0.698  10.882  0.1631  0.6526 -0.7137
 1548TIP3   OH228838   5.240   2.105  11.422 -0.0269 -0.5255  0.0484
 1548TIP3    H128839   5.206   2.187  11.457 -1.5753 -0.7471 -0.8315
 1548TIP3    H228840   5.335   2.112  11.431 -0.1461  1.2358  0.2493
 1549TIP3   OH228841   0.254   4.897  11.547  0.3610 -0.3224 -0.7574
 1549TIP3    H128842   0.244   4.899  11.452 -1.5418  1.4384 -0.5644
 1549TIP3    H228843   0.166   4.911  11.582  0.9402 -1.3257  1.2951
 1550TIP3   OH228844   5.791   4.422  10.654  0.8317 -0.1156 -0.8498
 1550TIP3    H128845   5.731   4.412  10.581 -0.2371 -2.0280  0.2138
 1550TIP3    H228846   5.800   4.517  10.666 -1.6840  0.2303 -1.2768
 1551TIP3   OH228847   5.539   0.662  11.704  0.3321 -0.3552  0.2851
 1551TIP3    H128848   5.508   0.727  11.642 -1.3702  0.3584  1.8098
 1551TIP3    H228849   5.546   0.581  11.653 -1.2463  0.1549 -0.7843
 1552TIP3   OH228850   2.414   1.424   9.349  0.1145  0.1013  0.0528
 1552TIP3    H128851   2.444   1.465   9.430 -0.8142 -0.0959  0.5000
 1552TIP3    H228852   2.319   1.420   9.357 -0.2494  2.3233 -2.0888
 1553TIP3   OH228853   1.562   2.114   9.237  0.1001  0.2909 -0.4126
 1553TIP3    H128854   1.520   2.170   9.303 -2.5239 -1.8442 -0.1120
 1553TIP3    H228855   1.511   2.127   9.158  1.8333  1.1179 -1.4429
 1554TIP3   OH228856   6.284   5.138  11.332  0.0861 -0.0544  0.2723
 1554TIP3    H128857   6.203   5.121  11.284  1.1700 -0.4301 -1.5395
 1554TIP3    H228858   6.304   5.056  11.376  2.9891 -2.6337 -4.9025
 1555TIP3   OH228859   0.342   2.949   9.443  0.2343 -0.0050 -0.0825
 1555TIP3    H128860   0.364   2.940   9.350  0.1901 -3.1908  0.1171
 1555TIP3    H228861   0.413   3.002   9.479  0.0681  1.6189 -1.9233
 1556TIP3   OH228862   6.545   5.456  11.039  0.1900 -0.0972 -0.1251
 1556TIP3    H128863   6.618   5.398  11.060  1.2255  0.6422 -1.5559
 1556TIP3    H228864   6.546   5.463  10.944 -1.2948  0.5165 -0.1217
 1557TIP3   OH228865   3.454   4.553  10.835  0.3793  0.9299  0.1032
 1557TIP3    H128866   3.440   4.640  10.797  1.5382  1.2673  0.4171
 1557TIP3    H228867   3.534   4.561  10.886  0.3293 -0.2442  0.4053
 1558TIP3   OH228868   1.176   4.543  11.897  0.4909 -0.8377  0.2334
 1558TIP3    H128869   1.083   4.547  11.872  0.8000  2.9352 -0.8513
 1558TIP3    H228870   1.174   4.534  11.992 -1.1479  1.7051  0.5425
 1559TIP3   OH228871   6.022   1.016  12.102  0.2881 -0.5110  0.1040
 1559TIP3    H128872   5.999   1.105  12.076  0.0542 -1.0782 -1.7924
 1559TIP3    H228873   6.075   1.027  12.181 -1.6966  1.1414  1.3017
 1560TIP3   OH228874   4.718   1.747  11.888  0.1188  0.4522  0.4573
 1560TIP3    H128875   4.736   1.783  11.801  1.5300  2.1198  1.3786
 1560TIP3    H228876   4.648   1.802  11.922 -0.8063 -0.5347  0.2226
 1561TIP3   OH228877   0.860   5.170  12.609 -0.0662 -0.3245  0.1293
 1561TIP3    H128878   0.805   5.206  12.540  0.3992 -1.3926 -0.8314
 1561TIP3    H228879   0.809   5.099  12.647 -0.5288  0.5757  1.2710
 1562TIP3   OH228880   2.719   1.562   9.998  0.1536  0.0069  0.2418
 1562TIP3    H128881   2.787   1.630   9.995  0.9697 -0.8436 -1.0757
 1562TIP3    H228882   2.642   1.605   9.960  0.6336  0.2431 -0.4924
 1563TIP3   OH228883   0.669   4.247  11.317  0.5876 -0.1714  0.4851
 1563TIP3    H128884   0.727   4.319  11.293  0.5308 -0.6087 -1.0866
 1563TIP3    H228885   0.685   4.180  11.250 -0.5775 -0.9416  0.9441
 1564TIP3   OH228886   2.982   2.148   9.027 -0.2230  0.0561 -0.2010
 1564TIP3    H128887   2.967   2.229   8.979 -0.1236 -0.5821 -1.3303
 1564TIP3    H228888   2.998   2.082   8.960  1.6034 -0.5303  0.7155
 1565TIP3   OH228889   0.941   0.576   9.634  0.5102 -0.5835 -0.3754
 1565TIP3    H128890   0.954   0.670   9.621  2.6275 -0.7374  0.2617
 1565TIP3    H228891   0.853   0.569   9.670  1.0749  1.4036  1.6384
 1566TIP3   OH228892   3.281   6.552  10.547  0.3465  0.0526  0.4981
 1566TIP3    H128893   3.266   6.647  10.548 -1.8246 -0.1976 -0.8275
 1566TIP3    H228894   3.213   6.518  10.489  2.0643 -2.1825 -0.3436
 1567TIP3   OH228895   2.170   4.984  10.528  0.3575 -0.2925 -0.4853
 1567TIP3    H128896   2.153   4.922  10.599 -0.1865 -0.7139 -0.9699
 1567TIP3    H228897   2.084   5.022  10.509  0.9596  2.0930  1.1171
 1568TIP3   OH228898   2.633   4.650  10.992  0.2818 -0.3512  0.0399
 1568TIP3    H128899   2.714   4.677  11.034  0.4753 -0.2430 -0.4017
 1568TIP3    H228900   2.635   4.554  10.995  0.5901 -0.3533 -0.2907
 1569TIP3   OH228901   1.494   2.440  12.350  0.3103 -0.6791 -0.2162
 1569TIP3    H128902   1.466   2.387  12.275  2.1157 -0.7578 -0.8744
 1569TIP3    H228903   1.426   2.507  12.358  0.6795  0.1040 -2.7446
 1570TIP3   OH228904   1.402   5.223  12.373  0.0861 -0.7890 -0.3191
 1570TIP3    H128905   1.437   5.311  12.361 -0.5210 -0.4358  0.3715
 1570TIP3    H228906   1.414   5.180  12.288 -0.5424  0.2957 -0.9805
 1571TIP3   OH228907   4.403   6.107  10.497 -0.4879 -0.2490  0.3597
 1571TIP3    H128908   4.346   6.066  10.562  0.0627 -1.5682  0.0466
 1571TIP3    H228909   4.406   6.199  10.522 -2.5537 -0.1689  0.5237
 1572TIP3   OH228910   6.157   3.032  11.492 -0.6494  0.4447  0.2866
 1572TIP3    H128911   6.121   3.121  11.490 -0.1224  0.6589 -0.1593
 1572TIP3    H228912   6.227   3.036  11.557  0.0466  0.6371 -0.4544
 1573TIP3   OH228913   4.207   2.502  10.728  0.0443 -0.4664 -0.0450
 1573TIP3    H128914   4.194   2.597  10.736 -1.0426 -0.6538  0.6275
 1573TIP3    H228915   4.289   2.485  10.774 -0.6011 -0.0565  1.3239
 1574TIP3   OH228916   2.479   5.584   9.771  0.6763 -0.3756  0.3686
 1574TIP3    H128917   2.490   5.603   9.678 -0.9474 -1.1927 -0.0291
 1574TIP3    H228918   2.452   5.492   9.774 -1.6042  0.2437  1.4334
 1575TIP3   OH228919   2.167   4.778   9.755 -0.8603 -0.3548 -0.5302
 1575TIP3    H128920   2.078   4.766   9.722 -0.6300 -1.6572 -0.7214
 1575TIP3    H228921   2.168   4.731   9.838 -0.1956 -0.8489 -0.8099
 1576TIP3   OH228922   4.199   6.060  10.674 -0.3602 -0.1134  0.2700
 1576TIP3    H128923   4.130   6.018  10.725 -0.4401 -1.0142 -0.5436
 1576TIP3    H228924   4.164   6.147  10.654 -1.1633 -0.4654  0.0928
 1577TIP3   OH228925   0.382   3.398  12.499  0.1673  0.4164 -0.1776
 1577TIP3    H128926   0.302   3.451  12.507  0.1249  0.6595 -1.8271
 1577TIP3    H228927   0.451   3.461  12.482  0.7605  0.2079  1.3111
 1578TIP3   OH228928   0.801   3.472  11.302  0.3330  0.1032  0.4696
 1578TIP3    H128929   0.720   3.511  11.336 -0.2932 -1.3838  0.7574
 1578TIP3    H228930   0.794   3.379  11.324  2.1504 -0.0601  0.5389
 1579TIP3   OH228931   4.432   2.190  10.355  0.0701 -0.2565  0.2531
 1579TIP3    H128932   4.435   2.282  10.381 -0.3843 -0.0139 -0.5019
 1579TIP3    H228933   4.395   2.192  10.266 -1.1359 -1.2629  0.7061
 1580TIP3   OH228934   6.298   3.587  10.338 -0.3587  0.0381  0.1486
 1580TIP3    H128935   6.255   3.665  10.304  0.6029  1.0706  1.2337
 1580TIP3    H228936   6.237   3.551  10.402  0.0711  1.1439  1.2202
 1581TIP3   OH228937   4.592   3.600   8.765 -0.1207  0.7336 -0.1493
 1581TIP3    H128938   4.527   3.562   8.705  1.3158 -1.4219 -0.4432
 1581TIP3    H228939   4.624   3.678   8.719  0.5808 -0.5898 -2.0182
 1582TIP3   OH228940   3.284   1.446  11.121 -0.7435 -0.5225  0.2978
 1582TIP3    H128941   3.365   1.468  11.168 -0.3852 -0.3862 -0.3676
 1582TIP3    H228942   3.218   1.504  11.159 -0.3118  0.0639  0.1697
 1583TIP3   OH228943   4.526   1.467  11.535  0.1898  0.1445  0.1529
 1583TIP3    H128944   4.494   1.390  11.488  0.7086  0.1489 -0.2049
 1583TIP3    H228945   4.528   1.536  11.469  1.2227  0.0714  0.1043
 1584TIP3   OH228946   0.084   1.329  12.365  0.0178 -0.1282  0.0413
 1584TIP3    H128947   0.064   1.416  12.401 -0.5015 -0.0837 -0.3444
 1584TIP3    H228948   0.172   1.310  12.397 -0.5794 -0.2789  1.6806
 1585TIP3   OH228949   2.763   4.292  10.254 -0.2686 -0.2115 -0.0285
 1585TIP3    H128950   2.762   4.386  10.238 -2.6254 -0.0168  0.8313
 1585TIP3    H228951   2.688   4.259  10.204 -1.9401 -0.9628  2.7389
 1586TIP3   OH228952   2.382   4.802   9.984  0.0468  0.4543  0.0403
 1586TIP3    H128953   2.445   4.837  10.046  0.1702 -0.6763  0.5773
 1586TIP3    H228954   2.347   4.879   9.939  1.1790  1.1520  0.3280
 1587TIP3   OH228955   1.951   1.090   8.141 -0.5785 -0.3648  0.2509
 1587TIP3    H128956   1.856   1.082   8.148 -0.6432  0.4552  0.4091
 1587TIP3    H228957   1.965   1.172   8.094  0.0475 -0.6677 -0.1039
 1588TIP3   OH228958   2.775   1.839  10.396 -0.6939 -0.4603  0.3257
 1588TIP3    H128959   2.800   1.751  10.425 -0.9573 -0.6900 -0.1321
 1588TIP3    H228960   2.749   1.828  10.304  1.6614  0.5210 -0.5425
 1589TIP3   OH228961   2.178   0.726  12.234 -0.4814  0.2009  0.6813
 1589TIP3    H128962   2.085   0.706  12.222 -0.4593  0.1248  0.6326
 1589TIP3    H228963   2.193   0.801  12.176 -0.6422  0.5817  1.1209
 1590TIP3   OH228964   3.170   6.486  11.851 -0.2596 -0.6228  0.5405
 1590TIP3    H128965   3.248   6.452  11.895  0.8337  0.6416 -0.3203
 1590TIP3    H228966   3.182   6.461  11.759  0.0644  1.0977  0.0801
 1591TIP3   OH228967   0.646   4.083  11.083 -0.2126  0.0326 -0.9882
 1591TIP3    H128968   0.733   4.044  11.091  0.0397  0.8727  1.1418
 1591TIP3    H228969   0.647   4.129  10.999  1.7861  0.8691 -0.5498
 1592TIP3   OH228970   4.208   3.415  10.925  0.1369 -0.3553  0.1799
 1592TIP3    H128971   4.297   3.384  10.912  0.5759  1.2876 -1.0402
 1592TIP3    H228972   4.217   3.488  10.987 -0.5633 -1.0885  1.1759
 1593TIP3   OH228973   6.125   2.007  11.138  0.2390  0.1378  0.3867
 1593TIP3    H128974   6.185   2.081  11.125  1.2566 -0.2321  2.4570
 1593TIP3    H228975   6.042   2.048  11.160 -0.0317  0.6494 -1.4233
 1594TIP3   OH228976   2.717   5.410  10.913 -0.2217 -0.3814 -0.4584
 1594TIP3    H128977   2.750   5.340  10.857 -0.2426  0.2376 -1.2742
 1594TIP3    H228978   2.627   5.424  10.883 -0.4920 -0.5594  0.2540
 1595TIP3   OH228979   3.488   3.382  10.125 -0.1288  0.7740 -0.2838
 1595TIP3    H128980   3.493   3.472  10.094 -0.8587  1.3904  1.2604
 1595TIP3    H228981   3.410   3.380  10.181  0.1863 -0.6685  0.1577
 1596TIP3   OH228982   1.457   2.874   9.151 -0.1073 -0.5968 -0.0657
 1596TIP3    H128983   1.456   2.791   9.103  0.4137  0.0064 -1.1598
 1596TIP3    H228984   1.400   2.932   9.101 -0.9958 -0.4737  1.0592
 1597TIP3   OH228985   4.803   3.583  10.578 -0.2852 -0.0398  0.0087
 1597TIP3    H128986   4.876   3.522  10.570 -1.8433 -2.0583  0.4166
 1597TIP3    H228987   4.808   3.614  10.669 -0.3804 -0.8012  0.2822
 1598TIP3   OH228988   4.740   3.313   9.150 -0.0274 -0.1364 -0.2329
 1598TIP3    H128989   4.830   3.280   9.142  0.5518  1.2792  0.0608
 1598TIP3    H228990   4.740   3.392   9.096 -1.2114 -0.3115 -0.5017
 1599TIP3   OH228991   5.636   0.080  12.089 -0.2626 -0.0728  0.0062
 1599TIP3    H128992   5.666   0.001  12.043 -0.0567 -0.5424  0.9245
 1599TIP3    H228993   5.717   0.123  12.118 -0.3563  0.6670 -0.7707
 1600TIP3   OH228994   3.261   3.354  10.715  0.6061 -0.5780 -0.2093
 1600TIP3    H128995   3.319   3.423  10.684 -0.6340 -0.4909 -2.5200
 1600TIP3    H228996   3.320   3.282  10.737  1.6748 -0.3341 -2.0206
 1601TIP3   OH228997   3.294   0.562  10.743 -0.7309 -0.7611  0.3376
 1601TIP3    H128998   3.309   0.559  10.838 -0.7963 -0.6412  0.3515
 1601TIP3    H228999   3.351   0.493  10.708 -1.9835 -2.0149  0.6315
 1602TIP3   OH229000   6.161   5.201  11.050  0.0205 -0.4834 -0.5766
 1602TIP3    H129001   6.106   5.131  11.086 -0.5712  0.0257 -0.4591
 1602TIP3    H229002   6.227   5.156  10.998 -2.9809 -1.0526 -4.3113
 1603TIP3   OH229003   2.478   2.148  11.686  0.3630  0.5871 -0.1929
 1603TIP3    H129004   2.490   2.087  11.759  2.0847 -1.9457 -2.3878
 1603TIP3    H229005   2.562   2.194  11.679  0.9898 -0.7064 -1.7655
 1604TIP3   OH229006   3.489   3.592  10.581 -0.1237  0.2959  0.8308
 1604TIP3    H129007   3.549   3.551  10.519 -0.2439 -0.2788  1.0866
 1604TIP3    H229008   3.516   3.557  10.667  0.2542  1.3288  1.1472
 1605TIP3   OH229009   0.572   6.480   9.654  0.1136  0.1390  0.6045
 1605TIP3    H129010   0.572   6.497   9.560 -0.0444  0.3710  0.6464
 1605TIP3    H229011   0.582   6.385   9.661 -1.3383 -0.0575  0.3268
 1606TIP3   OH229012   3.016   4.325   9.103  0.7287 -0.2345 -0.6202
 1606TIP3    H129013   3.033   4.372   9.185  2.3504 -0.1289 -0.9945
 1606TIP3    H229014   2.930   4.358   9.075 -1.3098 -2.3567  2.4406
 1607TIP3   OH229015   1.243   4.810  10.205 -0.3567  0.2080  0.1129
 1607TIP3    H129016   1.292   4.864  10.267  0.0550 -0.5755  0.4900
 1607TIP3    H229017   1.159   4.795  10.247  0.0595 -0.6381  0.6782
 1608TIP3   OH229018   2.511   4.385  10.184  0.4525  0.0004  0.2563
 1608TIP3    H129019   2.434   4.366  10.130  1.0194 -1.2243 -0.1446
 1608TIP3    H229020   2.479   4.447  10.250 -0.2910  1.4892 -1.3916
 1609TIP3   OH229021   4.066   5.242   9.492  0.1222  0.0505  0.6290
 1609TIP3    H129022   4.091   5.322   9.539 -1.2702  1.4902 -0.9753
 1609TIP3    H229023   3.986   5.212   9.536  0.2774 -0.1118  0.8077
 1610TIP3   OH229024   1.974   5.652  12.072 -0.0046  0.3301 -0.6038
 1610TIP3    H129025   1.991   5.730  12.020  1.0703  0.6009  0.1145
 1610TIP3    H229026   1.936   5.684  12.153  0.9962  0.1851 -0.0572
 1611TIP3   OH229027   0.862   1.532   9.764 -0.7477  0.0355  0.0222
 1611TIP3    H129028   0.835   1.529   9.672 -2.5016 -0.4077  0.5039
 1611TIP3    H229029   0.933   1.469   9.770  0.0731  0.7908 -1.2121
 1612TIP3   OH229030   6.405   0.335  11.887 -0.3421 -0.2494 -0.0353
 1612TIP3    H129031   6.489   0.306  11.851  0.0255 -0.0592  0.6426
 1612TIP3    H229032   6.374   0.260  11.938 -0.7811 -0.4618 -0.6104
 1613TIP3   OH229033   5.603   1.861   9.663 -0.2374 -0.1335 -0.0925
 1613TIP3    H129034   5.605   1.882   9.756  1.6541 -0.1979 -0.0843
 1613TIP3    H229035   5.558   1.776   9.658 -0.6126  0.0114  0.7059
 1614TIP3   OH229036   2.988   2.318  12.260 -0.3561  0.2885  0.4844
 1614TIP3    H129037   2.898   2.287  12.247 -0.3457 -0.2551  1.6283
 1614TIP3    H229038   3.014   2.352  12.174 -0.8717 -1.5582 -0.4624
 1615TIP3   OH229039   6.264   3.271   9.670 -0.1545 -0.0962  0.2029
 1615TIP3    H129040   6.349   3.236   9.697 -0.1227  0.5966  1.0612
 1615TIP3    H229041   6.284   3.344   9.612 -0.0647  1.4465  2.0859
 1616TIP3   OH229042   2.990   2.934  12.131  0.0585  0.2348 -0.1180
 1616TIP3    H129043   2.994   2.924  12.036 -2.1283  2.1869 -0.4977
 1616TIP3    H229044   2.991   3.029  12.146 -0.9944  0.0191  1.7026
 1617TIP3   OH229045   2.762   5.673  10.694 -0.4282  0.1016 -0.1422
 1617TIP3    H129046   2.831   5.632  10.747 -0.4539  0.8199  0.4756
 1617TIP3    H229047   2.771   5.633  10.608  1.2587  0.6973 -0.2936
 1618TIP3   OH229048   0.490   5.271  11.227 -0.2620 -0.7620 -0.1347
 1618TIP3    H129049   0.433   5.340  11.192  0.7681  0.4694  0.5389
 1618TIP3    H229050   0.531   5.310  11.304  2.0874 -1.2924 -1.0253
 1619TIP3   OH229051   3.491   0.345  11.378  0.0230 -0.0451 -0.1053
 1619TIP3    H129052   3.564   0.389  11.422  0.3879 -0.3169 -0.4302
 1619TIP3    H229053   3.425   0.335  11.446  0.4858 -0.2373  0.3237
 1620TIP3   OH229054   0.741   2.992  10.330  0.4635  0.1295 -0.0715
 1620TIP3    H129055   0.742   2.899  10.305 -0.3205  0.1337 -0.1368
 1620TIP3    H229056   0.785   2.993  10.415  0.4842 -0.3007 -0.0710
 1621TIP3   OH229057   1.555   1.886  11.883 -0.0853  0.0411 -0.0958
 1621TIP3    H129058   1.580   1.895  11.975  1.1571 -2.8178 -0.0543
 1621TIP3    H229059   1.512   1.800  11.879  1.6237 -0.7807 -2.4978
 1622TIP3   OH229060   1.586   0.958   9.676  0.3265 -0.4500 -0.7674
 1622TIP3    H129061   1.655   0.919   9.621  0.1599 -0.7774 -0.7457
 1622TIP3    H229062   1.507   0.953   9.623 -0.0625 -1.7631 -0.0885
 1623TIP3   OH229063   4.056   2.644   9.186 -0.0013 -0.3134 -0.2055
 1623TIP3    H129064   4.113   2.569   9.199  0.6979  0.4473  1.2757
 1623TIP3    H229065   4.067   2.666   9.093  0.6819 -1.3060 -0.3754
 1624TIP3   OH229066   1.836   5.870   9.729  0.5096  0.1479 -0.3120
 1624TIP3    H129067   1.824   5.904   9.818  3.5585 -0.5798  0.5003
 1624TIP3    H229068   1.751   5.883   9.687 -0.8193  1.2599  2.4333
 1625TIP3   OH229069   0.510   0.370  10.040  0.3512 -0.2510  0.0948
 1625TIP3    H129070   0.562   0.435  10.088  1.7039 -0.5218 -0.9253
 1625TIP3    H229071   0.460   0.325  10.107 -0.4396  1.6576  0.8534
 1626TIP3   OH229072   3.923   4.795  11.101  0.6758  0.2819  0.3784
 1626TIP3    H129073   3.994   4.747  11.060  1.0481 -1.3276  2.6658
 1626TIP3    H229074   3.887   4.733  11.165 -2.3513  1.2702 -0.2104
 1627TIP3   OH229075   1.936   5.705  11.271  0.3891 -0.1147 -0.4918
 1627TIP3    H129076   1.929   5.737  11.360  0.0258  1.9127 -1.1918
 1627TIP3    H229077   1.871   5.635  11.265 -0.9547  1.0162  0.3232
 1628TIP3   OH229078   3.759   6.145  10.344  0.3325  0.1193 -0.0261
 1628TIP3    H129079   3.679   6.180  10.384  0.7269 -1.0165  1.9344
 1628TIP3    H229080   3.789   6.079  10.407  1.5434 -1.1329 -1.8444
 1629TIP3   OH229081   1.702   6.214   9.911  0.0449 -0.0871 -0.2779
 1629TIP3    H129082   1.624   6.219   9.967 -0.4216 -0.4333 -0.8722
 1629TIP3    H229083   1.676   6.154   9.841  1.1330 -0.8284 -0.0587
 1630TIP3   OH229084   6.543   6.261  11.965  0.3352 -0.0732  0.1140
 1630TIP3    H129085   6.593   6.209  12.028 -0.2824 -0.5782  0.2007
 1630TIP3    H229086   6.464   6.209  11.948  1.1540 -0.6638 -2.2152
 1631TIP3   OH229087   4.467   3.768   9.962  0.1390  0.4007 -0.4039
 1631TIP3    H129088   4.475   3.826  10.038  1.1378  0.3818 -0.4846
 1631TIP3    H229089   4.391   3.714   9.982 -0.4257  1.2966 -0.0299
 1632TIP3   OH229090   2.076   5.776   9.672 -0.8387 -0.1702 -0.0277
 1632TIP3    H129091   1.993   5.811   9.706  0.0726  0.5458  1.5237
 1632TIP3    H229092   2.134   5.852   9.666 -0.2281 -0.6837 -1.0095
 1633TIP3   OH229093   2.375   0.088  11.276 -0.7908 -0.3599  0.0363
 1633TIP3    H129094   2.319   0.161  11.303  0.7221  0.6297  0.6104
 1633TIP3    H229095   2.323   0.042  11.210 -1.5977  1.5389 -0.7334
 1634TIP3   OH229096   5.705   2.126  11.708 -0.3131 -0.3165  1.1230
 1634TIP3    H129097   5.715   2.097  11.799  0.0417  0.7529  1.4430
 1634TIP3    H229098   5.622   2.088  11.680  0.5753 -2.4218  1.1747
 1635TIP3   OH229099   5.273   5.254  11.871 -0.3749  0.0725 -0.1362
 1635TIP3    H129100   5.248   5.227  11.783  1.4851 -1.3270 -0.2789
 1635TIP3    H229101   5.293   5.348  11.863 -0.0306 -0.0833 -1.2373
 1636TIP3   OH229102   1.525   3.004  11.888 -0.4689 -0.5938  0.0681
 1636TIP3    H129103   1.578   2.944  11.940  0.4927 -1.5990 -1.9587
 1636TIP3    H229104   1.560   2.996  11.800 -1.9754  1.1035 -0.7345
 1637TIP3   OH229105   1.591   2.039   9.518 -0.0957 -0.4802 -0.2121
 1637TIP3    H129106   1.588   2.018   9.424 -0.6679 -1.7153  0.0562
 1637TIP3    H229107   1.501   2.059   9.541  0.3073  1.5714 -0.2663
 1638TIP3   OH229108   1.762   1.943  10.942 -0.3660  0.4044 -0.0318
 1638TIP3    H129109   1.855   1.924  10.939 -0.6345 -0.9448 -0.8562
 1638TIP3    H229110   1.720   1.864  10.907 -1.8617  0.6306  1.1499
 1639TIP3   OH229111   3.167   6.324   9.373  0.0726  0.3673 -0.0076
 1639TIP3    H129112   3.158   6.388   9.444 -0.2442  1.3962 -0.9482
 1639TIP3    H229113   3.086   6.273   9.376 -0.7508  1.5897 -0.7438
 1640TIP3   OH229114   0.098   4.472  10.380  0.1118  0.4437  0.2427
 1640TIP3    H129115   0.074   4.450  10.290  0.5222 -0.1255  0.2659
 1640TIP3    H229116   0.188   4.503  10.374  0.4678 -0.4835  0.5682
 1641TIP3   OH229117   3.226   2.675   8.568 -0.4132  0.7772  0.1831
 1641TIP3    H129118   3.301   2.719   8.528 -0.1271  0.9526  0.8788
 1641TIP3    H229119   3.258   2.648   8.654 -0.5537 -0.8911 -0.2576
 1642TIP3   OH229120   2.062   6.156  10.935  0.2340 -0.1448  0.2594
 1642TIP3    H129121   2.025   6.240  10.909  2.2891  1.2641  1.5833
 1642TIP3    H229122   2.102   6.121  10.855 -1.4326 -0.3524 -0.5132
 1643TIP3   OH229123   3.680   1.984  10.315  0.1660  0.2942  0.1851
 1643TIP3    H129124   3.668   2.078  10.300 -0.2478  0.6045  2.1297
 1643TIP3    H229125   3.767   1.965  10.281  1.0263  1.8025  1.4003
 1644TIP3   OH229126   4.502   0.327  11.914  0.3160  0.0060 -0.2958
 1644TIP3    H129127   4.442   0.283  11.854 -1.0748  0.2991  0.8391
 1644TIP3    H229128   4.545   0.255  11.961  0.7588 -0.1959 -0.9848
 1645TIP3   OH229129   2.843   3.435   9.446 -0.0234 -0.2241 -0.6969
 1645TIP3    H129130   2.786   3.441   9.523 -0.6543  0.4645 -1.2037
 1645TIP3    H229131   2.900   3.361   9.465  1.9380  1.7133  1.8490
 1646TIP3   OH229132   0.235   5.644   9.504 -0.2963 -0.5391 -0.2490
 1646TIP3    H129133   0.147   5.676   9.528  0.0126 -0.6278  1.1103
 1646TIP3    H229134   0.223   5.602   9.419 -0.9095  2.2872 -1.6733
 1647TIP3   OH229135   2.202   3.689   9.711 -0.4988 -0.8088 -0.2493
 1647TIP3    H129136   2.165   3.635   9.781 -0.5209 -2.6098 -1.5992
 1647TIP3    H229137   2.294   3.661   9.705 -0.5752 -0.9041 -1.1269
 1648TIP3   OH229138   0.867   4.418  11.289  0.2792  0.1183  0.2767
 1648TIP3    H129139   0.882   4.402  11.196 -0.4214  0.3289  0.1224
 1648TIP3    H229140   0.891   4.509  11.302 -2.2134  0.9387 -0.3015
 1649TIP3   OH229141   2.900   4.046  11.905 -0.2166  0.0269  0.3556
 1649TIP3    H129142   2.896   4.141  11.896  0.0449  0.0879  0.8778
 1649TIP3    H229143   2.911   4.014  11.815 -0.1010  0.5009  0.1997
 1650TIP3   OH229144   0.185   2.739  11.870  0.3326  0.5758  0.1061
 1650TIP3    H129145   0.209   2.805  11.806 -0.9388  0.2800 -0.7156
 1650TIP3    H229146   0.113   2.779  11.920 -1.6622 -0.7298 -1.5306
 1651TIP3   OH229147   6.100   6.388  11.626  0.3851  0.0517 -0.3326
 1651TIP3    H129148   6.044   6.371  11.550  0.1871  0.4822 -0.2919
 1651TIP3    H229149   6.091   6.483  11.641 -0.6482 -0.2294  1.0501
 1652TIP3   OH229150   0.297   5.650  12.364  0.3777 -0.6021 -0.1857
 1652TIP3    H129151   0.302   5.678  12.272 -2.7774 -1.9466 -0.9240
 1652TIP3    H229152   0.237   5.713  12.404  0.1473 -1.2014  0.4123
 1653TIP3   OH229153   3.606   4.031  10.394  0.1235  0.1454  0.1480
 1653TIP3    H129154   3.577   3.963  10.455 -0.3554 -1.2522 -1.5746
 1653TIP3    H229155   3.546   4.025  10.320  0.6902  1.7971 -0.4979
 1654TIP3   OH229156   4.415   2.676   9.695  0.0961  0.1165  0.4157
 1654TIP3    H129157   4.454   2.733   9.629 -2.5486  1.4418 -0.1170
 1654TIP3    H229158   4.366   2.611   9.645  0.2250 -0.5119  1.0809
 1655TIP3   OH229159   2.497   3.654  10.152 -0.0743  0.0344  0.2882
 1655TIP3    H129160   2.469   3.586  10.090  1.1677  0.8947 -1.2830
 1655TIP3    H229161   2.548   3.606  10.218  2.0800 -0.4751 -1.6164
 1656TIP3   OH229162   6.371   0.816  10.505 -0.6825 -0.1763  0.3175
 1656TIP3    H129163   6.376   0.873  10.582 -0.0140 -2.6108  2.1936
 1656TIP3    H229164   6.456   0.826  10.463 -0.4608 -0.0311  0.7908
 1657TIP3   OH229165   1.208   3.366  11.301 -0.1937  0.1014  0.6356
 1657TIP3    H129166   1.231   3.312  11.226  0.0332 -0.7852  1.3135
 1657TIP3    H229167   1.157   3.438  11.265  0.4437  0.0304 -0.4307
 1658TIP3   OH229168   6.599   5.633  12.215  0.2694 -0.3446 -0.2546
 1658TIP3    H129169   6.680   5.614  12.263  0.3212 -0.9640 -0.5779
 1658TIP3    H229170   6.532   5.638  12.283  0.7966  1.6659  0.1899
 1659TIP3   OH229171   5.866   1.248   9.710 -0.4885 -0.1542 -0.1981
 1659TIP3    H129172   5.821   1.305   9.772 -1.3619 -0.8669 -0.1592
 1659TIP3    H229173   5.796   1.210   9.657 -0.0633 -2.1265  0.5690
 1660TIP3   OH229174   5.814   1.851  11.284  0.1681  0.0646  0.5493
 1660TIP3    H129175   5.815   1.818  11.374  0.9138  0.7338  0.8034
 1660TIP3    H229176   5.878   1.797  11.238 -0.0047 -0.0930  0.4963
 1661TIP3   OH229177   2.019   2.385   8.989  0.0399 -0.3259  0.6856
 1661TIP3    H129178   1.925   2.371   8.979 -0.2095  1.8535 -0.8331
 1661TIP3    H229179   2.052   2.390   8.899  1.6152 -0.9038  1.1937
 1662TIP3   OH229180   6.486   2.718  11.410  0.2041  0.3083  0.2170
 1662TIP3    H129181   6.428   2.685  11.340  1.4455 -0.3222 -0.5480
 1662TIP3    H229182   6.450   2.681  11.490 -1.2749  1.0641 -0.0541
 1663TIP3   OH229183   2.006   3.810   9.532  0.2162  0.1181 -0.5342
 1663TIP3    H129184   1.919   3.795   9.570  0.9469  0.3543  1.2978
 1663TIP3    H229185   2.065   3.755   9.583  1.3553  1.0127 -0.8416
 1664TIP3   OH229186   2.237   2.996  11.732 -0.7104 -0.3689  0.3338
 1664TIP3    H129187   2.283   2.957  11.806  0.7956  0.7921  0.0568
 1664TIP3    H229188   2.301   3.056  11.693 -2.7123  2.0312  0.4726
 1665TIP3   OH229189   3.574   0.775  11.049 -0.0925  0.1545 -0.6090
 1665TIP3    H129190   3.616   0.830  10.983  1.5419 -0.4115 -0.0750
 1665TIP3    H229191   3.622   0.693  11.047 -0.3280 -0.0575  0.9125
 1666TIP3   OH229192   2.237   0.300  10.964 -0.2219 -0.1741  0.3788
 1666TIP3    H129193   2.217   0.207  10.951 -1.3154  0.3109 -1.9513
 1666TIP3    H229194   2.152   0.343  10.963  0.3594  1.0127 -0.2932
 1667TIP3   OH229195   2.653   0.109  10.714  0.2155  0.4188  0.7062
 1667TIP3    H129196   2.708   0.186  10.699 -2.0071  1.8338 -0.7710
 1667TIP3    H229197   2.672   0.050  10.641 -0.3350  0.9986  0.0814
 1668TIP3   OH229198   1.739   3.417  11.441 -0.2179 -0.0161  0.1429
 1668TIP3    H129199   1.692   3.495  11.412  0.2166  0.3574  0.4235
 1668TIP3    H229200   1.718   3.410  11.534  0.0749  0.0095  0.2130
 1669TIP3   OH229201   2.516   5.566   9.183  0.0071  0.2534 -0.7137
 1669TIP3    H129202   2.496   5.495   9.244 -1.1952 -0.2472 -1.6570
 1669TIP3    H229203   2.595   5.607   9.219 -1.2504  0.6596  1.7561
 1670TIP3   OH229204   2.116   0.802   9.264  0.6563 -0.0709  0.3359
 1670TIP3    H129205   2.097   0.757   9.346  0.5615 -2.8123 -1.0659
 1670TIP3    H229206   2.054   0.765   9.202  2.1092  0.3252 -1.4299
 1671TIP3   OH229207   3.565   4.956  10.615  0.6468  0.2036  0.0348
 1671TIP3    H129208   3.637   4.915  10.661  1.0157  1.1270  0.3035
 1671TIP3    H229209   3.547   5.037  10.664  0.8820  1.0826 -1.2728
 1672TIP3   OH229210   6.531   1.477  11.133  0.3798 -0.2446  0.2293
 1672TIP3    H129211   6.544   1.431  11.050  1.3742 -0.3880  0.4484
 1672TIP3    H229212   6.616   1.518  11.151  0.5427 -1.1929  1.7674
 1673TIP3   OH229213   3.115   4.042   9.960 -0.3314 -0.2984  0.1116
 1673TIP3    H129214   3.191   4.093   9.934 -0.0325 -0.3530  0.8648
 1673TIP3    H229215   3.045   4.071   9.901 -0.1169  0.8320  0.3987
 1674TIP3   OH229216   1.422   0.174   9.828  0.4138  0.1718  0.4289
 1674TIP3    H129217   1.375   0.092   9.839  1.5058 -0.5933 -0.2890
 1674TIP3    H229218   1.358   0.243   9.846 -0.8345 -0.8280 -0.1226
 1675TIP3   OH229219   3.071   4.052   8.624  0.3885 -0.6707 -0.1909
 1675TIP3    H129220   3.154   4.014   8.653  0.0879 -2.9381 -2.0196
 1675TIP3    H229221   3.066   4.030   8.531 -2.3236 -0.7329 -0.0968
 1676TIP3   OH229222   6.504   0.623  10.132  0.1028  0.0111  0.0398
 1676TIP3    H129223   6.594   0.656  10.130 -0.3474  1.3209  0.3535
 1676TIP3    H229224   6.513   0.530  10.152  1.3017  0.6004  2.6288
 1677TIP3   OH229225   5.874   2.370   9.416 -0.4734 -0.2089  0.2880
 1677TIP3    H129226   5.826   2.450   9.439 -0.8504  0.3252 -2.0865
 1677TIP3    H229227   5.828   2.300   9.462 -1.9779  0.6183  0.0960
 1678TIP3   OH229228   3.067   4.272  11.543 -0.2788 -0.5067  0.2794
 1678TIP3    H129229   3.010   4.340  11.578 -0.4667 -1.2389  1.4328
 1678TIP3    H229230   3.012   4.222  11.484  0.1693  1.0405 -1.5514
 1679TIP3   OH229231   3.544   1.543   8.345  0.4366  0.3609  0.3471
 1679TIP3    H129232   3.589   1.459   8.335 -0.1570  0.1752 -0.8904
 1679TIP3    H229233   3.456   1.520   8.373  0.5934  0.6449  1.1097
 1680TIP3   OH229234   2.525   4.846  10.453  0.7382 -0.0250  0.3767
 1680TIP3    H129235   2.475   4.858  10.372  3.6317  0.2294 -1.5117
 1680TIP3    H229236   2.542   4.935  10.484  0.3047 -0.0988  0.8255
 1681TIP3   OH229237   1.756   2.338   9.023 -0.0216  0.6415  0.6970
 1681TIP3    H129238   1.705   2.346   8.943  1.0364 -0.5757 -0.1275
 1681TIP3    H229239   1.700   2.377   9.091 -1.4598  0.5620 -0.3958
 1682TIP3   OH229240   5.037   1.601  11.250  0.4719  0.6148 -0.0003
 1682TIP3    H129241   5.069   1.512  11.235  0.2585  0.0374  2.4772
 1682TIP3    H229242   5.115   1.653  11.266  0.5325  0.6619 -0.4333
 1683TIP3   OH229243   3.700   0.935   9.846 -0.3557  0.4261 -0.1362
 1683TIP3    H129244   3.635   0.865   9.856 -0.8181  0.8516 -0.1454
 1683TIP3    H229245   3.657   1.013   9.878  0.2132  0.6891  0.0038
 1684TIP3   OH229246   3.511   4.698   9.788 -0.1527  0.3011  0.4051
 1684TIP3    H129247   3.483   4.618   9.832  1.6512 -1.7158 -1.8324
 1684TIP3    H229248   3.599   4.714   9.822  1.9057 -2.1280 -3.0821
 1685TIP3   OH229249   3.333   6.362   9.753  0.2539  0.2557 -0.3135
 1685TIP3    H129250   3.392   6.310   9.698  0.6767 -1.7636  1.8566
 1685TIP3    H229251   3.386   6.384   9.830 -1.3620 -0.3830  1.0378
 1686TIP3   OH229252   5.194   6.190  12.053 -0.2100 -0.5805 -0.3792
 1686TIP3    H129253   5.205   6.277  12.015  0.9259 -0.1844  0.7832
 1686TIP3    H229254   5.235   6.196  12.139 -1.8394 -1.7177  0.5422
 1687TIP3   OH229255   1.070   2.159  11.002 -0.1446 -0.2278  0.0035
 1687TIP3    H129256   1.068   2.152  11.097 -0.9685  0.6164  0.0557
 1687TIP3    H229257   0.996   2.106  10.972 -0.6706  0.5454 -0.0899
 1688TIP3   OH229258   2.812   6.199  10.518  0.0218  0.3163 -0.2919
 1688TIP3    H129259   2.821   6.104  10.518 -0.2386  0.2396 -2.5390
 1688TIP3    H229260   2.749   6.217  10.588 -1.7656 -1.4024 -1.3445
 1689TIP3   OH229261   3.545   2.668  11.564  0.1317 -0.1736  1.0221
 1689TIP3    H129262   3.634   2.655  11.532  0.3535 -0.0802  1.5889
 1689TIP3    H229263   3.551   2.657  11.659 -0.2433  0.9920  1.1991
 1690TIP3   OH229264   1.156   4.573   9.828  0.8605  0.3498 -0.3614
 1690TIP3    H129265   1.228   4.591   9.890 -1.1413  3.9072  1.2510
 1690TIP3    H229266   1.078   4.569   9.883 -0.7626  1.5887 -2.4449
 1691TIP3   OH229267   3.815   6.027  10.601 -0.1970  0.3410 -0.5906
 1691TIP3    H129268   3.863   6.001  10.680 -1.2590 -2.2851 -0.6838
 1691TIP3    H229269   3.727   6.048  10.632 -0.6287 -0.7309 -1.0172
 1692TIP3   OH229270   3.539   5.582  10.081 -0.1548 -0.1836  0.4258
 1692TIP3    H129271   3.621   5.621  10.053  0.7129 -1.5207  1.0122
 1692TIP3    H229272   3.562   5.493  10.107 -2.3380 -1.8279 -2.6448
 1693TIP3   OH229273   5.440   2.219  11.790 -0.5670  0.8307  0.8326
 1693TIP3    H129274   5.366   2.159  11.784 -0.2146  0.5346 -1.5008
 1693TIP3    H229275   5.401   2.305  11.800 -1.1506  0.4696  1.7542
 1694TIP3   OH229276   5.476   5.151  10.966 -0.2934 -0.2297  0.6339
 1694TIP3    H129277   5.415   5.152  10.892  0.6389  0.8191 -0.1516
 1694TIP3    H229278   5.420   5.144  11.043 -1.3964  0.4576 -0.0782
 1695TIP3   OH229279   1.630   6.225  11.620 -0.6096  0.1628  0.1258
 1695TIP3    H129280   1.622   6.137  11.583 -0.7422  0.1853  0.0979
 1695TIP3    H229281   1.714   6.257  11.590  0.5854 -0.8893  2.1343
 1696TIP3   OH229282   2.635   5.481  11.168  0.4405 -0.8189 -0.6425
 1696TIP3    H129283   2.590   5.558  11.133  0.9436 -0.0643  0.3280
 1696TIP3    H229284   2.661   5.432  11.090 -1.0443 -0.7013 -1.2543
 1697TIP3   OH229285   5.621   1.591   9.311 -0.5827  0.2110 -0.4098
 1697TIP3    H129286   5.570   1.553   9.239 -1.0236 -0.3633  0.1913
 1697TIP3    H229287   5.692   1.528   9.326  0.7673  1.3557 -1.7187
 1698TIP3   OH229288   4.057   1.295  10.828 -0.0472 -0.4514 -0.4935
 1698TIP3    H129289   4.084   1.207  10.801 -0.1308 -0.6671  0.1283
 1698TIP3    H229290   3.962   1.289  10.841  0.0838 -0.5068  0.4609
 1699TIP3   OH229291   2.341   2.673  11.227  0.2432  0.0301  0.3118
 1699TIP3    H129292   2.345   2.768  11.220 -0.2099 -0.0686 -2.9737
 1699TIP3    H229293   2.270   2.657  11.290 -0.0995  1.8618  0.4487
 1700TIP3   OH229294   3.575   4.361   9.405 -0.3257 -0.1479 -0.1557
 1700TIP3    H129295   3.557   4.273   9.438 -1.2810 -0.2991 -1.0488
 1700TIP3    H229296   3.602   4.348   9.314  1.5327  0.3345  0.2752
 1701TIP3   OH229297   4.626   2.346   9.949 -0.1133 -0.2173  0.1266
 1701TIP3    H129298   4.628   2.377  10.039  1.2168  1.6108 -0.4630
 1701TIP3    H229299   4.584   2.417   9.900  1.7221  0.0965 -1.0832
 1702TIP3   OH229300   5.881   1.855  10.372  0.2702 -0.0996  0.0296
 1702TIP3    H129301   5.952   1.816  10.323 -0.4634 -1.8224  0.2519
 1702TIP3    H229302   5.922   1.891  10.450  0.9171 -1.1096  0.1722
 1703TIP3   OH229303   3.172   4.630  11.400  0.4071 -0.1702 -0.2639
 1703TIP3    H129304   3.155   4.688  11.326  1.0582  0.2982 -0.0568
 1703TIP3    H229305   3.085   4.606  11.433  0.1348  0.6350 -0.3879
 1704TIP3   OH229306   4.104   1.779  10.252  0.4059 -0.6766 -0.6661
 1704TIP3    H129307   4.049   1.719  10.202  1.4447 -0.5130 -2.0532
 1704TIP3    H229308   4.149   1.831  10.186  1.0060  0.2961  0.4757
 1705TIP3   OH229309   4.446   3.161  11.427 -0.1469  0.0674  0.6651
 1705TIP3    H129310   4.418   3.220  11.498 -1.3632 -1.1851  1.2842
 1705TIP3    H229311   4.537   3.139  11.448 -0.7056 -0.8443  2.2734
 1706TIP3   OH229312   3.951   2.948  10.231 -0.0336  0.4384  0.0245
 1706TIP3    H129313   3.937   2.891  10.306 -0.9351  0.6580  0.0352
 1706TIP3    H229314   3.878   2.929  10.172 -0.6580  1.9372  0.2661
 1707TIP3   OH229315   3.120   2.893  10.410 -0.1730 -0.7878 -0.0356
 1707TIP3    H129316   3.194   2.857  10.459  0.5027  0.1406 -0.3495
 1707TIP3    H229317   3.090   2.821  10.355  0.9188 -0.9871 -0.3890
 1708TIP3   OH229318   5.246   2.273  12.035  0.2477  0.4458 -0.1063
 1708TIP3    H129319   5.263   2.352  11.985  0.6114  0.3610 -0.1143
 1708TIP3    H229320   5.326   2.258  12.085 -0.5440  1.2121  1.4489
 1709TIP3   OH229321   4.593   5.459   9.457  0.2276  0.4361 -0.0793
 1709TIP3    H129322   4.613   5.407   9.379 -1.7275  0.5520 -0.7204
 1709TIP3    H229323   4.587   5.394   9.527 -2.3318 -0.3618 -0.9006
 1710TIP3   OH229324   1.579   2.976  11.630 -0.6977 -0.4989 -0.2729
 1710TIP3    H129325   1.631   2.904  11.594  1.5537  1.1143 -0.4400
 1710TIP3    H229326   1.561   3.032  11.554  0.6460  0.8820  0.3666
 1711TIP3   OH229327   5.158   1.447  10.979  0.0604 -0.5022 -0.0167
 1711TIP3    H129328   5.187   1.358  10.958  1.1778 -0.4194  1.0938
 1711TIP3    H229329   5.069   1.451  10.945  0.6221 -1.4278 -1.7469
 1712TIP3   OH229330   2.057   1.317  12.409 -0.2074 -0.0980 -0.0170
 1712TIP3    H129331   2.069   1.265  12.330 -1.0636 -0.4212  0.0585
 1712TIP3    H229332   1.975   1.364  12.394 -0.1885  0.1109  0.5319
 1713TIP3   OH229333   0.007   6.057   9.901 -0.1601 -0.0423  0.1570
 1713TIP3    H129334   0.022   5.964   9.918 -0.1788 -0.0953 -0.1017
 1713TIP3    H229335  -0.037   6.058   9.815 -0.1218  0.2067  0.1410
 1714TIP3   OH229336   2.824   6.536   9.094  0.0412 -0.4639 -0.3826
 1714TIP3    H129337   2.875   6.522   9.014  0.4339 -0.7057 -0.0966
 1714TIP3    H229338   2.749   6.477   9.086  1.2294 -2.1624  0.4206
 1715TIP3   OH229339   1.704   4.613  11.444  0.0786 -0.3574  0.1840
 1715TIP3    H129340   1.764   4.538  11.451 -0.2801 -0.7676 -0.8718
 1715TIP3    H229341   1.622   4.575  11.415 -1.1078  0.0381  2.7692
 1716TIP3   OH229342   4.836   2.754  10.633 -0.1449  0.2319 -0.9246
 1716TIP3    H129343   4.890   2.832  10.622  1.5621 -0.8628 -0.7276
 1716TIP3    H229344   4.805   2.734  10.544  1.0507  0.0457 -1.3244
 1717TIP3   OH229345   2.590   1.697   9.792 -0.2926 -0.3962 -0.1565
 1717TIP3    H129346   2.682   1.694   9.765  0.5432  0.7765  2.2683
 1717TIP3    H229347   2.542   1.717   9.711  1.5591 -0.9547 -1.4708
 1718TIP3   OH229348   3.512   2.858  10.293 -0.1218  0.2485 -0.2042
 1718TIP3    H129349   3.504   2.932  10.233  0.8043  0.1464 -0.4660
 1718TIP3    H229350   3.576   2.800  10.252 -1.1074 -0.8900 -0.1805
 1719TIP3   OH229351   4.253   5.801  11.672  0.2427  0.4941  0.1986
 1719TIP3    H129352   4.222   5.886  11.640  0.0877  0.9578  1.5217
 1719TIP3    H229353   4.292   5.820  11.757  3.0483 -0.2936 -0.8225
 1720TIP3   OH229354   3.608   5.140   9.822  0.1225 -0.1742  0.1242
 1720TIP3    H129355   3.526   5.125   9.869  0.4304  1.3613  1.2333
 1720TIP3    H229356   3.589   5.211   9.762  0.5230 -0.1227  0.0541
 1721TIP3   OH229357   1.786   4.659  12.227 -0.4659 -0.0156 -0.3398
 1721TIP3    H129358   1.847   4.604  12.177  1.5029  1.1272  0.6387
 1721TIP3    H229359   1.736   4.597  12.280  0.0986 -1.0093 -0.9382
 1722TIP3   OH229360   2.458   3.327  11.259  0.5848  1.3243 -0.2922
 1722TIP3    H129361   2.550   3.312  11.237  1.0026  0.1571  1.9083
 1722TIP3    H229362   2.461   3.373  11.344 -0.8229  0.1602  0.4291
 1723TIP3   OH229363   4.745   4.976  12.519 -0.6500 -0.1022 -0.7940
 1723TIP3    H129364   4.814   5.042  12.521 -0.5280 -0.2195 -1.0726
 1723TIP3    H229365   4.771   4.917  12.447 -0.9464 -0.2448 -0.7827
 1724TIP3   OH229366   2.478   3.549   9.284 -0.2023  0.4121  0.0371
 1724TIP3    H129367   2.516   3.536   9.198 -0.9949 -0.4428 -0.1975
 1724TIP3    H229368   2.540   3.607   9.329  0.8667 -0.1554 -0.6572
 1725TIP3   OH229369   6.412   5.404  11.686  0.4349  0.5703  0.4698
 1725TIP3    H129370   6.354   5.329  11.698  0.7689 -0.0728 -1.5023
 1725TIP3    H229371   6.490   5.367  11.644  1.1550  1.8269  0.6542
 1726TIP3   OH229372   3.090   3.402  12.425 -0.0493 -0.1179  0.4117
 1726TIP3    H129373   3.004   3.376  12.457 -0.2931  0.4773  0.2445
 1726TIP3    H229374   3.103   3.491  12.458 -0.0471  0.2721 -0.6029
 1727TIP3   OH229375   2.867   2.144  10.799 -0.5721 -0.3867  0.2607
 1727TIP3    H129376   2.816   2.134  10.718 -1.3367  0.3084  0.6358
 1727TIP3    H229377   2.958   2.144  10.770 -0.8397  0.0186 -0.6269
 1728TIP3   OH229378   2.980   3.049  10.878  0.1738  1.1860  0.4755
 1728TIP3    H129379   2.961   2.988  10.807  0.2126 -0.5333  1.8841
 1728TIP3    H229380   2.937   3.130  10.852  0.2795  0.6617 -1.5480
 1729TIP3   OH229381   3.705   0.357  12.391  0.4443 -0.4463  0.7708
 1729TIP3    H129382   3.617   0.341  12.357  0.6162  0.1124  0.0332
 1729TIP3    H229383   3.693   0.374  12.485 -0.5409  1.9805  0.2852
 1730TIP3   OH229384   2.866   2.852   8.100  0.3865  0.8122  0.0089
 1730TIP3    H129385   2.897   2.935   8.135  0.9349  1.0007 -0.8731
 1730TIP3    H229386   2.771   2.854   8.112  0.4203  1.4812  0.1691
 1731TIP3   OH229387   1.388   5.311   9.738  0.2512 -0.3064 -1.0978
 1731TIP3    H129388   1.373   5.356   9.821 -1.0168 -0.8561 -1.0107
 1731TIP3    H229389   1.458   5.249   9.757 -0.4892 -0.9021 -0.2510
 1732TIP3   OH229390   5.596   0.180  12.466  0.6364 -0.2155 -0.4860
 1732TIP3    H129391   5.542   0.256  12.487  0.5492 -0.6025  0.7476
 1732TIP3    H229392   5.631   0.199  12.379  2.4804  2.3381  0.6749
 1733TIP3   OH229393   0.267   0.941  11.116  0.2622 -0.0479  0.5370
 1733TIP3    H129394   0.284   0.941  11.021  0.1112  0.4259  0.5084
 1733TIP3    H229395   0.207   0.868  11.129  0.8319 -0.5567  0.3678
 1734TIP3   OH229396   5.476   1.149   9.210 -0.4118  0.2305 -0.3563
 1734TIP3    H129397   5.561   1.184   9.235 -1.2874  1.7883  0.6303
 1734TIP3    H229398   5.465   1.071   9.263  0.2515  0.2117 -0.2366
 1735TIP3   OH229399   0.873   1.973  10.916 -0.2258  0.4861  0.2497
 1735TIP3    H129400   0.838   1.907  10.977 -1.4469  3.0601  2.5774
 1735TIP3    H229401   0.796   2.004  10.868  0.7503 -1.6433 -2.9825
 1736TIP3   OH229402   0.189   1.697  11.653  0.0486  0.5903 -0.4993
 1736TIP3    H129403   0.277   1.702  11.617  0.3781 -1.7622 -0.1917
 1736TIP3    H229404   0.134   1.671  11.578  0.3804 -2.1620  0.1247
 1737TIP3   OH229405   3.051   2.893   9.836 -0.3996  0.5973  0.5491
 1737TIP3    H129406   3.030   2.860   9.748  0.4117 -0.0828  0.6034
 1737TIP3    H229407   3.048   2.988   9.827 -3.7593  0.6314  0.6164
 1738TIP3   OH229408   3.247   1.338  10.651  0.3963 -0.3261  0.2066
 1738TIP3    H129409   3.248   1.411  10.713  1.0892 -0.8745  0.8615
 1738TIP3    H229410   3.268   1.261  10.704  1.7153 -0.7093 -0.8145
 1739TIP3   OH229411   1.391   3.358  11.090 -0.4632 -0.3765 -0.1235
 1739TIP3    H129412   1.378   3.267  11.062 -0.8478 -1.1448  2.3185
 1739TIP3    H229413   1.474   3.384  11.050  0.0604 -2.0849 -0.2320
 1740TIP3   OH229414   2.668   2.610  10.421  0.6114  0.0661 -0.1197
 1740TIP3    H129415   2.646   2.581  10.510 -0.9012  0.2257 -0.4151
 1740TIP3    H229416   2.687   2.703  10.430 -0.8757  0.3942 -0.1445
 1741TIP3   OH229417   0.148   1.639   9.192 -0.0787 -0.0279 -0.2888
 1741TIP3    H129418   0.099   1.696   9.252 -0.8002 -1.2361  0.3092
 1741TIP3    H229419   0.227   1.689   9.170 -0.6672  1.1793  0.2317
 1742TIP3   OH229420   0.969   0.185  11.635  0.4493  0.0298  0.6071
 1742TIP3    H129421   0.999   0.217  11.720  0.7367  1.1233  0.1156
 1742TIP3    H229422   0.942   0.264  11.588  0.5255 -0.5272 -0.4063
 1743TIP3   OH229423   0.363   1.793   9.416 -0.1270  0.3243  0.7074
 1743TIP3    H129424   0.355   1.888   9.420 -1.8543  0.2728 -0.5575
 1743TIP3    H229425   0.437   1.778   9.356 -0.7147  0.8929 -0.1902
 1744TIP3   OH229426   5.894   2.119   9.212  0.0307  0.2677 -0.2250
 1744TIP3    H129427   5.904   2.025   9.230  0.2943  0.3377 -0.0065
 1744TIP3    H229428   5.849   2.153   9.289 -0.6853  0.1996 -0.6056
 1745TIP3   OH229429   4.415   2.997   9.566 -0.4812  0.1050 -0.1622
 1745TIP3    H129430   4.450   3.044   9.642 -2.1660  3.1875 -1.1242
 1745TIP3    H229431   4.328   2.968   9.594 -0.5430 -0.0028 -0.4646
 1746TIP3   OH229432   1.951   6.119   9.613  0.0459 -0.3701  0.0855
 1746TIP3    H129433   1.899   6.200   9.605  2.2821  1.1129 -0.2987
 1746TIP3    H229434   1.886   6.049   9.613 -1.9270  1.3422 -0.8746
 1747TIP3   OH229435   4.528   3.065  10.595 -0.2724 -1.1039  0.5979
 1747TIP3    H129436   4.570   3.038  10.676  0.5149  0.0112  0.5845
 1747TIP3    H229437   4.600   3.068  10.531 -0.2395  1.1918  0.6563
 1748TIP3   OH229438   3.197   5.949  11.342  0.2261  0.0336 -0.2471
 1748TIP3    H129439   3.130   5.911  11.285  1.5702 -2.1835 -0.4759
 1748TIP3    H229440   3.264   5.981  11.281  1.3573 -1.7383  0.0075
 1749TIP3   OH229441   4.076   0.152   9.328 -0.3269 -0.1630 -0.2042
 1749TIP3    H129442   4.086   0.062   9.359  0.5798 -0.2029 -0.5775
 1749TIP3    H229443   4.112   0.150   9.239  0.5153  0.7635  0.1086
 1750TIP3   OH229444   2.923   3.736  10.301 -0.0646  0.1981  0.2608
 1750TIP3    H129445   2.898   3.707  10.214  1.1669 -1.0579  0.2869
 1750TIP3    H229446   2.954   3.826  10.288  1.3996 -0.4303 -0.8661
 1751TIP3   OH229447   5.567   2.548  10.243 -0.5015  0.0977  0.3918
 1751TIP3    H129448   5.543   2.477  10.302 -0.4200  1.2638  1.9028
 1751TIP3    H229449   5.516   2.623  10.274  0.3458  1.0251 -0.3648
 1752TIP3   OH229450   6.475   6.274  10.149  0.0118  0.0864  0.0001
 1752TIP3    H129451   6.450   6.186  10.120  1.2418  0.1233 -1.2799
 1752TIP3    H229452   6.479   6.267  10.244  1.0721 -1.5245 -0.1208
 1753TIP3   OH229453   5.590   6.291   9.632  0.2376 -0.3887  0.1569
 1753TIP3    H129454   5.583   6.196   9.644 -2.3206 -0.1446  1.2287
 1753TIP3    H229455   5.554   6.306   9.544 -0.8750 -0.3195  0.6008
 1754TIP3   OH229456   6.386   1.857   8.878 -0.3772 -0.0024  0.4138
 1754TIP3    H129457   6.475   1.885   8.860 -0.1909 -0.3513  0.7709
 1754TIP3    H229458   6.382   1.766   8.846 -1.1484  0.5840 -1.2996
 1755TIP3   OH229459   5.859   6.182  10.956  0.8165 -0.0043  0.2234
 1755TIP3    H129460   5.851   6.125  10.880  1.1288 -0.0773  0.2408
 1755TIP3    H229461   5.842   6.125  11.031 -0.9504  0.3886  0.1495
 1756TIP3   OH229462   4.965   4.088  11.596  0.3964  0.1883  0.6825
 1756TIP3    H129463   4.976   4.182  11.610 -0.2082  0.2543  0.7302
 1756TIP3    H229464   5.047   4.050  11.629  0.5236  0.6704  0.9428
 1757TIP3   OH229465   0.864   1.628   9.220 -0.2862  0.1692  0.7608
 1757TIP3    H129466   0.884   1.562   9.153  0.5315 -0.3086  1.4493
 1757TIP3    H229467   0.928   1.697   9.205  1.5652 -1.0513  2.5422
 1758TIP3   OH229468   0.496   2.043  11.348  0.5333 -0.2537 -0.4933
 1758TIP3    H129469   0.430   2.086  11.403  2.4804  0.5332  1.3608
 1758TIP3    H229470   0.498   2.096  11.268 -0.2943  0.3716 -0.1226
 1759TIP3   OH229471   2.399   5.761  12.435 -0.5799  0.3791 -1.1583
 1759TIP3    H129472   2.396   5.670  12.405 -0.7379  0.7836 -2.3966
 1759TIP3    H229473   2.307   5.785  12.448 -0.5794  0.6084 -1.5840
 1760TIP3   OH229474   2.475   1.222   9.128  0.0786 -0.0979 -0.0576
 1760TIP3    H129475   2.394   1.236   9.079 -1.6823 -2.2526  1.9603
 1760TIP3    H229476   2.468   1.280   9.204  1.1515  0.7344 -0.5687
 1761TIP3   OH229477   3.817   1.580  12.350  0.3327 -0.0970 -0.2798
 1761TIP3    H129478   3.873   1.621  12.284  1.3878  1.0813  1.2672
 1761TIP3    H229479   3.793   1.651  12.410 -0.7108 -1.0823  0.5339
 1762TIP3   OH229480   3.962   0.145  10.354  0.0725 -0.0459 -0.4114
 1762TIP3    H129481   4.053   0.130  10.382 -0.4912  0.6455  2.0967
 1762TIP3    H229482   3.919   0.061  10.370 -0.2714  0.3769  1.0385
 1763TIP3   OH229483   0.868   2.874  11.958 -0.1335  0.0399  0.2193
 1763TIP3    H129484   0.876   2.914  11.872  0.1715 -0.8715 -0.1926
 1763TIP3    H229485   0.822   2.939  12.011  1.4325  1.4343 -0.0675
 1764TIP3   OH229486   0.579   3.601  12.167  0.6133  0.4518 -0.1630
 1764TIP3    H129487   0.643   3.542  12.207  0.0472  0.7295  1.1881
 1764TIP3    H229488   0.592   3.685  12.211 -2.3386 -0.0944  2.0653
 1765TIP3   OH229489   4.727   1.872  11.635 -0.2420  0.3028  0.1056
 1765TIP3    H129490   4.803   1.903  11.586 -0.7069 -2.0465 -2.3341
 1765TIP3    H229491   4.680   1.952  11.659  0.7997  1.6576 -2.0702
 1766TIP3   OH229492   1.928   0.617  11.701  0.3598 -0.5075 -0.3844
 1766TIP3    H129493   1.980   0.619  11.781  1.1665 -0.1648 -0.9042
 1766TIP3    H229494   1.868   0.691  11.708  2.2549  1.2227 -1.2630
 1767TIP3   OH229495   2.807   2.523   9.349  0.1669  0.1262  0.9111
 1767TIP3    H129496   2.760   2.601   9.323  0.0856  0.0537  0.8402
 1767TIP3    H229497   2.859   2.550   9.425  0.6328  0.4129  0.4950
 1768TIP3   OH229498   1.726   1.477  10.436 -0.1956 -0.1834 -0.1361
 1768TIP3    H129499   1.761   1.392  10.460 -0.2220 -0.5503 -1.3014
 1768TIP3    H229500   1.631   1.466  10.437 -0.1975 -0.6101 -1.6353
 1769TIP3   OH229501   2.246   0.903   8.866  0.3433  0.1331  0.1451
 1769TIP3    H129502   2.282   0.839   8.805  0.5482  0.2248  0.1690
 1769TIP3    H229503   2.197   0.964   8.811  0.7005  0.3356  0.0477
 1770TIP3   OH229504   6.511   2.660  12.198 -0.1312 -0.1158 -0.1457
 1770TIP3    H129505   6.480   2.574  12.224  0.6932 -0.8567 -1.4642
 1770TIP3    H229506   6.605   2.658  12.214 -0.2917  1.0703  1.1407
 1771TIP3   OH229507   1.324   0.682   9.531 -0.4061 -0.6305  0.1513
 1771TIP3    H129508   1.252   0.641   9.483 -0.2403 -1.6509  0.7486
 1771TIP3    H229509   1.360   0.612   9.585  0.2401  0.1746  0.7957
 1772TIP3   OH229510   5.954   3.829  10.088  0.1773  0.3695 -0.2389
 1772TIP3    H129511   5.875   3.875  10.060  1.1112  0.4765 -2.9918
 1772TIP3    H229512   6.026   3.881  10.052  1.3918 -1.1593 -0.1245
 1773TIP3   OH229513   4.372   3.594  11.573  0.3605  0.2265  0.5688
 1773TIP3    H129514   4.278   3.609  11.583  0.6523  0.7014  4.2807
 1773TIP3    H229515   4.412   3.673  11.611  2.1975 -0.8566  0.9896
 1774TIP3   OH229516   4.501   2.102  10.973  0.2816 -0.4680  0.1696
 1774TIP3    H129517   4.510   2.125  11.065 -1.5247  1.0517  0.0297
 1774TIP3    H229518   4.416   2.137  10.947  0.8784 -0.5438 -2.1786
 1775TIP3   OH229519   6.374   3.218  10.693 -0.0255  0.0635 -0.0353
 1775TIP3    H129520   6.313   3.281  10.731 -1.5966 -1.3303 -0.1148
 1775TIP3    H229521   6.367   3.232  10.599  0.8436  0.8176 -0.0029
 1776TIP3   OH229522   3.487   2.632   9.731 -0.4921 -0.6597  0.7060
 1776TIP3    H129523   3.521   2.584   9.806  0.2791 -0.4635  0.4918
 1776TIP3    H229524   3.437   2.568   9.681  0.9642 -1.3859  0.1417
 1777TIP3   OH229525   4.137   2.832  10.983  0.2947  0.1977  0.2474
 1777TIP3    H129526   4.215   2.847  10.930  0.6830  1.6813  1.1941
 1777TIP3    H229527   4.167   2.834  11.074 -0.3670 -2.2827  0.6170
 1778TIP3   OH229528   6.583   3.033  12.198  0.0287 -0.1763  0.1844
 1778TIP3    H129529   6.545   3.112  12.159 -0.1641  0.3347  1.3413
 1778TIP3    H229530   6.618   2.984  12.124 -2.5303 -0.4880 -0.9224
 1779TIP3   OH229531   1.026   6.284  10.323  0.4277  0.6972 -0.3554
 1779TIP3    H129532   0.937   6.318  10.329  0.4294  0.5151  0.7339
 1779TIP3    H229533   1.063   6.329  10.247 -0.4282  1.1363 -0.5249
 1780TIP3   OH229534   1.920   2.677  12.085 -0.3823  0.6181  0.8176
 1780TIP3    H129535   1.869   2.695  12.006 -0.4306  0.3703  0.7924
 1780TIP3    H229536   1.975   2.754  12.095 -0.0159  0.4392  0.2596
 1781TIP3   OH229537   1.938   1.373  11.794 -0.5419 -0.0591  0.2469
 1781TIP3    H129538   1.871   1.436  11.768  0.3967  0.2642 -1.5404
 1781TIP3    H229539   1.900   1.288  11.773  0.3624  0.1964 -2.9486
 1782TIP3   OH229540   4.195   4.620  11.852 -0.5238 -0.4238  0.6536
 1782TIP3    H129541   4.275   4.624  11.800 -0.4673 -0.2994  0.7517
 1782TIP3    H229542   4.153   4.538  11.824 -1.0065  0.1413 -0.3582
 1783TIP3   OH229543   4.106   0.702   9.831  0.7397  0.1559  0.1886
 1783TIP3    H129544   4.115   0.643   9.756 -0.4648 -1.2659  1.1088
 1783TIP3    H229545   4.196   0.724   9.855  1.2730 -1.9358  0.2702
 1784TIP3   OH229546   5.858   5.655  10.839 -0.0193  0.2441 -0.2489
 1784TIP3    H129547   5.800   5.612  10.777  2.2060  0.2066 -2.4745
 1784TIP3    H229548   5.946   5.622  10.818  0.8540 -0.3890  3.5007
 1785TIP3   OH229549   3.313   2.907  12.038  1.2369 -0.0997  0.5347
 1785TIP3    H129550   3.242   2.955  12.080  0.3642 -2.0353  1.4437
 1785TIP3    H229551   3.313   2.937  11.948 -0.3415  0.4045  0.6720
 1786TIP3   OH229552   0.215   5.727  12.056 -0.5489 -0.0824  0.3981
 1786TIP3    H129553   0.310   5.711  12.048 -0.8141 -0.9397 -1.5292
 1786TIP3    H229554   0.207   5.822  12.057  0.2433  0.0393 -1.3740
 1787TIP3   OH229555   4.007   0.181  11.160 -0.0832 -0.0023  0.2540
 1787TIP3    H129556   4.009   0.243  11.087  2.7311  0.3335  0.5169
 1787TIP3    H229557   3.914   0.176  11.185 -1.0086  0.6389 -2.6397
 1788TIP3   OH229558   1.529   3.084   9.335 -0.1512 -0.3202 -0.3892
 1788TIP3    H129559   1.509   3.033   9.257 -0.0418  1.3789 -1.5810
 1788TIP3    H229560   1.526   3.175   9.306  2.2301  0.2968  1.0138
 1789TIP3   OH229561   2.379   0.958  11.044  0.7829 -0.8324  0.2534
 1789TIP3    H129562   2.458   0.904  11.046  0.8722 -0.7228  2.7214
 1789TIP3    H229563   2.373   0.995  11.132 -2.0551 -0.8687  0.1794
 1790TIP3   OH229564   1.962   3.524  12.078  0.0161  0.0916 -0.2520
 1790TIP3    H129565   1.918   3.516  11.993  1.2770 -0.6597 -0.8544
 1790TIP3    H229566   2.015   3.445  12.086  0.3784  0.4303  0.9782
 1791TIP3   OH229567   3.418   4.647   8.304  0.2692  0.0536 -0.4768
 1791TIP3    H129568   3.488   4.608   8.251  0.7335  0.3114 -0.0624
 1791TIP3    H229569   3.385   4.575   8.357 -0.7220 -0.3864 -1.6513
 1792TIP3   OH229570   2.925   1.258   9.114  0.4517  1.0855  0.3078
 1792TIP3    H129571   3.007   1.260   9.066 -0.0267 -0.2382 -0.6140
 1792TIP3    H229572   2.866   1.207   9.059 -0.3544  0.1671  1.9491
 1793TIP3   OH229573   5.344   0.728  11.264 -0.2628 -0.4449 -0.2282
 1793TIP3    H129574   5.338   0.635  11.286 -1.6546 -0.1280  0.8448
 1793TIP3    H229575   5.433   0.738  11.230  0.9294 -1.6130  2.3269
 1794TIP3   OH229576   5.076   5.227  12.149  0.1622 -0.3305  0.0060
 1794TIP3    H129577   5.122   5.181  12.080  0.4330 -0.1538  0.0665
 1794TIP3    H229578   5.023   5.293  12.104 -1.6654 -1.8803 -0.2316
 1795TIP3   OH229579   3.521   1.456   9.851  0.2498  0.5570 -0.2890
 1795TIP3    H129580   3.591   1.500   9.899 -0.6766  1.3133  0.3996
 1795TIP3    H229581   3.487   1.524   9.792 -0.4182  0.4397 -0.0478
 1796TIP3   OH229582   4.229   0.790  11.560  0.1858  0.3222 -0.6450
 1796TIP3    H129583   4.212   0.793  11.654 -0.3940  0.3422 -0.7475
 1796TIP3    H229584   4.299   0.725  11.551 -1.5566 -1.7112 -0.4340
 1797TIP3   OH229585   2.511   0.143   9.369 -0.2373 -0.6376 -0.2572
 1797TIP3    H129586   2.492   0.223   9.418 -0.6019 -0.6523 -0.3713
 1797TIP3    H229587   2.426   0.102   9.356 -0.0580 -1.0130 -0.2545
 1798TIP3   OH229588   5.195   5.927  11.189 -0.1204 -0.7034  0.3438
 1798TIP3    H129589   5.277   5.930  11.240  1.2068 -2.3615 -1.5581
 1798TIP3    H229590   5.211   5.861  11.122 -2.6357 -0.2215 -0.8238
 1799TIP3   OH229591   3.049   3.206   9.489  0.0494 -0.3219  0.2678
 1799TIP3    H129592   3.019   3.133   9.434 -0.2903 -0.8646  1.1478
 1799TIP3    H229593   3.127   3.239   9.445  1.9941 -3.1107  1.3300
 1800TIP3   OH229594   4.596   5.878  12.545  0.4400  0.4483  0.4714
 1800TIP3    H129595   4.673   5.840  12.588  0.0891 -0.6084  0.1907
 1800TIP3    H229596   4.631   5.948  12.491  1.3812 -0.8322 -0.6441
 1801TIP3   OH229597   3.013   3.158   9.780 -0.2304 -0.3967  0.2853
 1801TIP3    H129598   2.992   3.185   9.690 -0.5943  0.3304  0.5836
 1801TIP3    H229599   2.940   3.190   9.832 -0.6030 -1.8550  0.6784
 1802TIP3   OH229600   1.294   5.927  11.766  0.2211  0.1753  0.2061
 1802TIP3    H129601   1.383   5.954  11.789  0.2234  0.6562 -0.3451
 1802TIP3    H229602   1.239   5.999  11.798  0.1558  0.4916 -0.5864
 1803TIP3   OH229603   6.328   2.112  10.776 -0.0344  0.6568  0.0794
 1803TIP3    H129604   6.234   2.104  10.791  0.0105  1.3504  0.7953
 1803TIP3    H229605   6.366   2.117  10.864  0.7259 -0.1666 -0.1923
 1804TIP3   OH229606   4.086   4.890  10.736  0.1447  0.2722 -0.1154
 1804TIP3    H129607   4.106   4.941  10.815 -1.4965 -0.5889  0.8988
 1804TIP3    H229608   4.122   4.942  10.665  2.3970  0.6986  1.2280
 1805TIP3   OH229609   4.221   4.396   9.360  0.2343  0.3481  0.4105
 1805TIP3    H129610   4.126   4.393   9.352  0.2943 -0.0621 -0.2932
 1805TIP3    H229611   4.239   4.473   9.414 -0.5533 -0.2968  1.6510
 1806TIP3   OH229612   1.446   2.259  10.629  0.9754 -0.3720 -0.2008
 1806TIP3    H129613   1.374   2.259  10.692  0.7034 -2.8940 -0.4047
 1806TIP3    H229614   1.518   2.216  10.675  1.3382 -0.6694 -1.0321
 1807TIP3   OH229615   2.531   4.435  11.905  0.4748  0.1819 -0.1934
 1807TIP3    H129616   2.548   4.374  11.976 -1.9212 -0.6949 -0.2543
 1807TIP3    H229617   2.533   4.522  11.946  0.0773 -0.2426  0.7543
 1808TIP3   OH229618   2.070   6.118  11.741  0.1305 -0.0089 -0.3272
 1808TIP3    H129619   2.108   6.156  11.820  0.8043 -0.1680 -0.5693
 1808TIP3    H229620   1.979   6.099  11.765  1.0676 -2.8977  1.4345
 1809TIP3   OH229621   4.126   2.545   9.781  0.1159 -0.4091 -0.5325
 1809TIP3    H129622   4.095   2.627   9.743  1.7001  0.2898 -0.3787
 1809TIP3    H229623   4.169   2.500   9.709 -0.6834 -1.0903 -0.5979
 1810TIP3   OH229624   5.091   4.038  10.455  0.0603 -0.2223  0.2925
 1810TIP3    H129625   5.128   4.040  10.543  2.1996 -0.3625 -0.5320
 1810TIP3    H229626   5.079   3.946  10.435  1.6545 -0.3324 -0.3157
 1811TIP3   OH229627   5.038   4.673  10.620 -0.3134  0.3663  0.2428
 1811TIP3    H129628   5.000   4.758  10.644 -2.4134 -0.2297 -0.7146
 1811TIP3    H229629   5.131   4.691  10.609 -0.8095  2.7895 -0.7956
 1812TIP3   OH229630   2.285   1.786   8.741 -0.9183  0.2246  0.1057
 1812TIP3    H129631   2.368   1.770   8.694 -0.6439 -1.8198  1.1741
 1812TIP3    H229632   2.221   1.799   8.671  0.7426  6.1160 -0.9410
 1813TIP3   OH229633   3.626   6.427  10.451 -0.2493 -0.3075 -0.4173
 1813TIP3    H129634   3.689   6.458  10.386  0.1619  0.1790  0.1926
 1813TIP3    H229635   3.635   6.489  10.524 -0.8011 -0.7556  0.0413
 1814TIP3   OH229636   3.052   0.496  11.138 -0.0295 -0.5005  0.2502
 1814TIP3    H129637   3.085   0.569  11.190 -0.6409  0.4270 -0.6229
 1814TIP3    H229638   2.972   0.529  11.098 -0.9842 -2.0608  0.7835
 1815TIP3   OH229639   6.136   5.577  10.121  0.3184 -0.4487 -0.0889
 1815TIP3    H129640   6.111   5.570  10.213 -1.0389 -0.2397 -0.4136
 1815TIP3    H229641   6.096   5.500  10.080  3.0631 -1.9765 -0.1098
 1816TIP3   OH229642   1.037   6.291  11.073 -0.2981  0.0296 -0.1030
 1816TIP3    H129643   1.004   6.369  11.118 -0.9581 -0.4120  0.1944
 1816TIP3    H229644   0.985   6.286  10.993 -0.4470 -0.2551  0.0092
 1817TIP3   OH229645   5.413   3.001  11.279  0.2590  0.9520  0.4734
 1817TIP3    H129646   5.364   3.054  11.216 -0.3697  1.0856  1.0656
 1817TIP3    H229647   5.429   2.918  11.234  1.1588  1.5823 -0.4271
 1818TIP3   OH229648   4.189   6.449  11.202 -0.2699  0.5506  0.2433
 1818TIP3    H129649   4.112   6.398  11.179 -1.4197  3.0565 -2.1091
 1818TIP3    H229650   4.252   6.429  11.134  0.8449 -0.6746  1.5698
 1819TIP3   OH229651   0.453   5.229  11.877 -0.7700  0.0203 -0.0407
 1819TIP3    H129652   0.442   5.245  11.971  0.8995  1.4701 -0.0342
 1819TIP3    H229653   0.530   5.172  11.871 -0.6494  0.2317 -0.5401
 1820TIP3   OH229654   3.990   5.536  11.242 -0.1696  0.0605  0.1877
 1820TIP3    H129655   4.042   5.593  11.300  0.5085  0.9808 -1.2606
 1820TIP3    H229656   4.041   5.456  11.236  0.7185  0.6540 -0.5662
 1821TIP3   OH229657   3.279   2.564  12.138 -0.1306 -0.1611 -0.4135
 1821TIP3    H129658   3.269   2.633  12.203  0.7867  0.3431 -0.7910
 1821TIP3    H229659   3.220   2.590  12.067 -0.8053 -0.4865  0.0130
 1822TIP3   OH229660   6.156   0.033   9.543 -0.6985  0.1162 -0.4011
 1822TIP3    H129661   6.088  -0.025   9.510  0.9132 -0.9966 -1.9543
 1822TIP3    H229662   6.168   0.099   9.475  0.9631 -0.7605 -1.0328
 1823TIP3   OH229663   6.365   1.009  10.067  0.1650  0.5223 -0.3965
 1823TIP3    H129664   6.450   0.980  10.036 -0.4647 -1.5356 -0.3977
 1823TIP3    H229665   6.383   1.049  10.152  0.9622 -1.8602  0.6525
 1824TIP3   OH229666   5.785   0.693  12.348  0.6905 -1.1113 -0.1922
 1824TIP3    H129667   5.785   0.773  12.297 -0.1775 -0.9834  0.0040
 1824TIP3    H229668   5.810   0.625  12.286  1.8479 -0.6435 -0.2649
 1825TIP3   OH229669   6.279   3.985  12.271 -0.2074 -0.7148  0.3145
 1825TIP3    H129670   6.260   3.897  12.240  1.5091 -1.0140 -0.0334
 1825TIP3    H229671   6.369   3.980  12.304 -0.5031  0.6253  1.4255
 1826TIP3   OH229672   4.351   0.943  10.716 -0.0928  0.3318 -0.3048
 1826TIP3    H129673   4.343   0.872  10.652 -1.2921 -0.9480  1.1898
 1826TIP3    H229674   4.311   1.019  10.672  0.1586 -0.1959 -1.4959
 1827TIP3   OH229675   3.235   5.572  10.604  0.5524 -0.1326 -0.1994
 1827TIP3    H129676   3.282   5.494  10.635 -0.2000 -0.5912 -0.1775
 1827TIP3    H229677   3.256   5.578  10.511  0.4474 -0.4831 -0.2451
 1828TIP3   OH229678   3.598   1.815   9.310  0.2302  0.3699 -0.0373
 1828TIP3    H129679   3.571   1.737   9.262  0.1590  0.8083 -0.7202
 1828TIP3    H229680   3.636   1.872   9.244 -0.1322  1.1027  0.3785
 1829TIP3   OH229681   0.351   1.294  10.455 -0.6749 -0.0667 -0.4281
 1829TIP3    H129682   0.405   1.312  10.532  0.4864 -2.4908 -0.5843
 1829TIP3    H229683   0.412   1.296  10.381 -0.6658 -2.7809 -0.6176
 1830TIP3   OH229684   3.870   4.583  12.361 -0.0694 -0.4319  0.4099
 1830TIP3    H129685   3.857   4.666  12.315  0.4221 -0.9931 -0.7676
 1830TIP3    H229686   3.962   4.585  12.388 -0.1987 -0.3685  0.8550
 1831TIP3   OH229687   4.755   0.141  11.664  0.2136 -0.3145 -0.4804
 1831TIP3    H129688   4.689   0.116  11.728  0.7437 -3.1462 -0.8692
 1831TIP3    H229689   4.706   0.185  11.595 -0.8239  0.0953  0.4939
 1832TIP3   OH229690   4.769   4.442  10.706  0.2930  0.0974 -0.4195
 1832TIP3    H129691   4.850   4.489  10.726 -0.1590  0.4980  0.5675
 1832TIP3    H229692   4.719   4.446  10.787  0.0253 -1.6762 -0.4430
 1833TIP3   OH229693   0.347   1.784  10.578 -0.3367 -0.7077 -0.2509
 1833TIP3    H129694   0.330   1.698  10.538 -0.9074 -1.4730  1.5197
 1833TIP3    H229695   0.260   1.817  10.601 -0.1643  0.6195 -1.3702
 1834TIP3   OH229696   0.178   4.097  10.519  0.3650  0.0923  0.7846
 1834TIP3    H129697   0.236   4.173  10.520  0.6584 -0.1251  2.2826
 1834TIP3    H229698   0.214   4.038  10.585 -1.5330 -0.0613  1.7558
 1835TIP3   OH229699   3.052   4.560  10.876  0.4097  0.5390  0.0153
 1835TIP3    H129700   3.119   4.538  10.942  0.3474 -1.1185 -0.4228
 1835TIP3    H229701   2.992   4.486  10.878  0.5710  0.2949 -2.0944
 1836TIP3   OH229702   0.128   0.123  12.219 -0.3878 -0.5571  0.7599
 1836TIP3    H129703   0.040   0.161  12.229 -0.3982 -0.0534 -0.9793
 1836TIP3    H229704   0.121   0.066  12.143  0.9330 -0.0777  0.2584
 1837TIP3   OH229705   4.790   3.940  11.748 -0.3655 -0.0933  0.0817
 1837TIP3    H129706   4.697   3.953  11.729 -0.9977 -1.7349  1.6941
 1837TIP3    H229707   4.836   3.985  11.678 -2.3974 -0.3885 -1.5350
 1838TIP3   OH229708   2.059   1.756  12.282 -0.2175  0.4662  0.2708
 1838TIP3    H129709   1.988   1.804  12.325 -0.6008  0.1386  0.0083
 1838TIP3    H229710   2.023   1.732  12.196  0.3417  0.6196 -0.0086
 1839TIP3   OH229711   5.279   5.032  12.034  0.1927 -0.1199  0.3027
 1839TIP3    H129712   5.268   5.105  11.973  0.8634 -0.6273 -0.4544
 1839TIP3    H229713   5.374   5.018  12.039  0.0456 -2.5208 -1.5760
 1840TIP3   OH229714   6.049   4.367  10.400  0.4716 -0.3607  0.0099
 1840TIP3    H129715   6.099   4.326  10.471 -1.5051 -0.7658  1.2263
 1840TIP3    H229716   5.980   4.416  10.444  0.7556  1.5478 -1.5647
 1841TIP3   OH229717   1.451   1.330  10.538 -0.0395  0.0456 -0.3884
 1841TIP3    H129718   1.404   1.378  10.606 -2.3098  0.1936 -1.9468
 1841TIP3    H229719   1.388   1.267  10.504  1.6568 -1.4067 -1.0574
 1842TIP3   OH229720   3.469   2.838   9.919  0.1138 -0.6394  0.2009
 1842TIP3    H129721   3.391   2.831   9.974 -0.8896 -0.4830 -1.1361
 1842TIP3    H229722   3.471   2.756   9.869  1.2346 -0.9554  0.7306
 1843TIP3   OH229723   1.513   6.317  11.325 -0.4224 -0.3014 -0.1583
 1843TIP3    H129724   1.553   6.311  11.412 -0.6484  0.3177 -0.0109
 1843TIP3    H229725   1.508   6.226  11.295 -0.1040 -0.4967  0.3653
 1844TIP3   OH229726   3.498   3.859  10.570  0.1758  0.0803  0.0595
 1844TIP3    H129727   3.544   3.880  10.652  1.6776 -0.9270 -0.4694
 1844TIP3    H229728   3.482   3.764  10.576 -0.2655  0.1145 -0.5380
 1845TIP3   OH229729   4.322   5.223  10.009 -0.1930  0.3025  0.1877
 1845TIP3    H129730   4.288   5.312  10.004 -0.6359  0.1723  0.7068
 1845TIP3    H229731   4.246   5.167   9.990  0.3980  0.0438 -1.5848
 1846TIP3   OH229732   1.077   3.732   9.992 -0.1611  0.2758  0.3530
 1846TIP3    H129733   1.051   3.652   9.946  2.5314 -0.5292  0.0830
 1846TIP3    H229734   1.161   3.756   9.953 -0.2841  2.5474  1.3219
 1847TIP3   OH229735   1.213   0.389  11.172  0.5068  0.0237 -0.0369
 1847TIP3    H129736   1.219   0.317  11.235 -0.1343  1.2089  1.4376
 1847TIP3    H229737   1.146   0.360  11.110  0.4958 -0.7957  0.3305
 1848TIP3   OH229738   0.195   0.364   9.039 -0.1106 -0.2130 -0.1437
 1848TIP3    H129739   0.220   0.432   8.977 -2.6584 -1.2612 -2.5241
 1848TIP3    H229740   0.153   0.411   9.111  0.6314  0.8746 -0.4018
 1849TIP3   OH229741   2.410   1.338  12.229 -0.7955  0.4145  0.4577
 1849TIP3    H129742   2.477   1.330  12.298  0.2323 -0.3522 -0.5768
 1849TIP3    H229743   2.328   1.319  12.274 -0.0593 -0.9492  1.3254
 1850TIP3   OH229744   5.716   5.860  10.002 -0.3084 -0.2427 -0.3442
 1850TIP3    H129745   5.717   5.856  10.097 -1.0324 -0.4540 -0.3462
 1850TIP3    H229746   5.716   5.769   9.974  2.5224 -0.2563 -0.5954
 1851TIP3   OH229747   4.844   2.657  11.838 -0.2267 -0.1053 -0.0614
 1851TIP3    H129748   4.875   2.639  11.927 -0.4241  0.8573  0.2215
 1851TIP3    H229749   4.749   2.663  11.846 -0.1446  1.9024  0.0801
 1852TIP3   OH229750   1.972   4.864  12.230 -0.0339 -0.1567  0.1777
 1852TIP3    H129751   1.897   4.804  12.228  0.8536 -1.3068  0.1775
 1852TIP3    H229752   2.036   4.824  12.170 -0.6516  2.5225 -2.5488
 1853TIP3   OH229753   1.678   4.005  11.126 -0.6869 -0.0832  0.1591
 1853TIP3    H129754   1.607   4.040  11.073 -0.7188 -2.6706 -1.7417
 1853TIP3    H229755   1.756   4.018  11.073 -0.1219  0.4968  1.1135
 1854TIP3   OH229756   1.264   6.354  10.066 -0.7795 -0.2002  0.2120
 1854TIP3    H129757   1.262   6.259  10.060  0.7040 -0.2281 -0.1198
 1854TIP3    H229758   1.296   6.372  10.154  1.5214 -0.0710 -0.5991
 1855TIP3   OH229759   2.510   4.347   8.885  0.0217  0.2939 -0.0411
 1855TIP3    H129760   2.595   4.327   8.846  0.3420  1.3570  0.0737
 1855TIP3    H229761   2.525   4.426   8.936 -0.7929 -0.1193  0.8625
 1856TIP3   OH229762   1.532   3.770  12.119  0.5757 -0.1983 -0.3348
 1856TIP3    H129763   1.616   3.745  12.082  0.9339  3.6805 -2.7311
 1856TIP3    H229764   1.474   3.781  12.044 -0.6763  1.5641  0.7843
 1857TIP3   OH229765   1.809   2.245  12.312  0.4388 -0.3459 -0.4487
 1857TIP3    H129766   1.789   2.322  12.366 -0.1423 -0.9364  0.1992
 1857TIP3    H229767   1.844   2.281  12.231  0.0827  0.6096 -0.1926
 1858TIP3   OH229768   3.102   2.533   9.260 -0.2781 -0.7986 -0.1347
 1858TIP3    H129769   3.008   2.533   9.245 -0.1834 -0.5262 -0.7838
 1858TIP3    H229770   3.140   2.510   9.175  0.2817  0.6866 -0.3299
 1859TIP3   OH229771   6.304   5.587  11.021 -0.2072 -0.5792  0.3684
 1859TIP3    H129772   6.316   5.554  10.932 -0.0270  0.8486 -0.1676
 1859TIP3    H229773   6.390   5.575  11.062  0.5038  1.1282 -0.5131
 1860TIP3   OH229774   5.343   4.272   9.964  0.0504  0.2545  0.0005
 1860TIP3    H129775   5.267   4.324   9.988 -0.1039  0.4670 -0.9226
 1860TIP3    H229776   5.326   4.185  10.001  0.6596  1.0176  2.2009
 1861TIP3   OH229777   4.492   1.316  10.925  0.1966  0.6634 -0.5548
 1861TIP3    H129778   4.504   1.385  10.860 -0.2329  0.8101 -0.4819
 1861TIP3    H229779   4.521   1.236  10.882 -0.0506  0.7669 -0.9142
 1862TIP3   OH229780   4.333   5.648  11.000 -0.0575 -0.8291  0.2069
 1862TIP3    H129781   4.329   5.604  11.084  3.3273 -0.4911  0.6824
 1862TIP3    H229782   4.316   5.740  11.020 -0.5655 -0.9432  0.2992
 1863TIP3   OH229783   2.178   0.281  11.373  0.0709 -0.0539  0.0048
 1863TIP3    H129784   2.158   0.332  11.451  2.0953 -0.4273  0.8250
 1863TIP3    H229785   2.166   0.342  11.300 -0.4128  0.7306  0.7287
 1864TIP3   OH229786   5.566   1.438   9.900 -0.2586  0.5290 -0.4775
 1864TIP3    H129787   5.618   1.458   9.822  0.0119 -1.5033 -0.8794
 1864TIP3    H229788   5.609   1.361   9.938 -1.7680  0.0577  0.3471
 1865TIP3   OH229789   1.312   1.988  10.983 -0.7127 -0.4536  0.5088
 1865TIP3    H129790   1.321   1.941  10.900  0.8634 -0.0140  0.3904
 1865TIP3    H229791   1.226   2.030  10.977 -0.4823 -0.1156 -1.0826
 1866TIP3   OH229792   6.141   2.238   9.702  0.4179 -0.0092  0.8206
 1866TIP3    H129793   6.101   2.325   9.706  0.5650  0.1394 -0.5203
 1866TIP3    H229794   6.223   2.252   9.655  0.8139 -0.7498  1.2801
 1867TIP3   OH229795   5.876   5.404  11.472 -0.2405  0.3640  0.6877
 1867TIP3    H129796   5.946   5.458  11.508  0.2402 -1.6522  3.0470
 1867TIP3    H229797   5.800   5.425  11.526 -0.2577 -0.6734  1.0883
 1868TIP3   OH229798   2.886   6.373  10.327  0.2061  0.4833  0.1049
 1868TIP3    H129799   2.839   6.355  10.246  1.8659 -2.1449 -0.3887
 1868TIP3    H229800   2.859   6.304  10.388  1.6769  0.2424  0.5372
 1869TIP3   OH229801   1.573   0.147  11.829  0.5554 -0.6043  0.4259
 1869TIP3    H129802   1.487   0.116  11.799 -0.1158  0.4129  1.2183
 1869TIP3    H229803   1.624   0.157  11.749 -0.2024 -0.8164 -0.0993
 1870TIP3   OH229804   5.983   4.201   9.937  0.0624 -0.0071 -1.1189
 1870TIP3    H129805   6.041   4.275   9.920 -1.1836  1.1741 -0.3985
 1870TIP3    H229806   5.982   4.192  10.032 -1.8158  0.7458 -1.0412
 1871TIP3   OH229807   4.468   0.151  11.686 -0.3583 -0.0971  1.5082
 1871TIP3    H129808   4.481   0.093  11.611  0.4189  0.3382  1.2881
 1871TIP3    H229809   4.418   0.099  11.749 -1.0186 -0.4666  0.6941
 1872TIP3   OH229810   4.528   1.941  11.991  0.0429 -0.0031  0.1383
 1872TIP3    H129811   4.470   1.867  12.010 -2.7603  1.9128 -0.2558
 1872TIP3    H229812   4.511   2.003  12.063  0.7023  1.0931 -0.6214
 1873TIP3   OH229813   2.910   2.607  11.197  0.1602  0.2752 -0.1313
 1873TIP3    H129814   2.815   2.592  11.188  0.3794 -0.8770 -0.7861
 1873TIP3    H229815   2.923   2.619  11.291 -0.3204 -2.2846  0.3558
 1874TIP3   OH229816   6.236   2.446  11.249  0.1462 -0.2586  0.2499
 1874TIP3    H129817   6.140   2.456  11.256  0.3085  1.1110  1.0420
 1874TIP3    H229818   6.261   2.505  11.178  0.3885 -0.7803 -0.1016
 1875TIP3   OH229819   6.028   4.301   8.937  0.5244  0.2803  0.5635
 1875TIP3    H129820   6.062   4.373   8.990  0.9785 -0.7094  1.6503
 1875TIP3    H229821   6.086   4.227   8.955 -0.2386 -0.5193 -0.1202
 1876TIP3   OH229822   5.075   1.935  11.999  0.7084  0.1161  0.1173
 1876TIP3    H129823   5.030   1.871  11.944 -0.9033 -0.1369  1.6215
 1876TIP3    H229824   5.078   2.015  11.946 -0.9948 -0.0481 -0.2825
 1877TIP3   OH229825   3.967   2.007  12.410 -0.8431 -0.6166 -0.0542
 1877TIP3    H129826   4.045   2.007  12.354 -0.2222 -0.0014  0.7686
 1877TIP3    H229827   3.931   2.096  12.401 -0.2963 -0.2509  1.0680
 1878TIP3   OH229828   6.303   3.916  10.598  0.5839  0.6672  0.4450
 1878TIP3    H129829   6.382   3.956  10.634 -0.3115 -0.0195  3.4875
 1878TIP3    H229830   6.318   3.822  10.607  0.1461  0.4686 -0.7294
 1879TIP3   OH229831   5.166   2.423  12.306  0.7730  0.1831  0.4248
 1879TIP3    H129832   5.236   2.470  12.262  0.7208  1.0602  1.2371
 1879TIP3    H229833   5.206   2.339  12.331  0.9297 -0.1454 -0.8466
 1880TIP3   OH229834   3.655   3.322  11.837  0.2760  0.8887 -0.4084
 1880TIP3    H129835   3.691   3.332  11.925 -1.3395  0.2705  0.3624
 1880TIP3    H229836   3.692   3.240  11.805  0.0971  0.6084  0.0935
 1881TIP3   OH229837   2.297   5.322   9.757  0.1552  0.2062 -0.1632
 1881TIP3    H129838   2.269   5.249   9.812  1.5400  0.3092  0.7233
 1881TIP3    H229839   2.241   5.395   9.783 -0.9200 -0.4020 -0.7232
 1882TIP3   OH229840   3.078   0.456  10.512 -0.1202  0.0816 -0.1874
 1882TIP3    H129841   3.142   0.384  10.504  1.0586  1.0772  0.0030
 1882TIP3    H229842   3.131   0.535  10.507 -1.4142  0.9521 -0.4707
 1883TIP3   OH229843   4.698   0.485  10.592  0.3710 -0.0271  0.3748
 1883TIP3    H129844   4.659   0.517  10.510  1.3277  0.4027  0.0736
 1883TIP3    H229845   4.649   0.530  10.661 -0.8634 -0.8608  0.0892
 1884TIP3   OH229846   4.323   3.253  10.010  0.0951 -0.3507 -0.1144
 1884TIP3    H129847   4.290   3.331   9.967 -1.0710 -0.3023  0.8182
 1884TIP3    H229848   4.261   3.184   9.986  1.5623 -1.2406 -1.6168
 1885TIP3   OH229849   4.916   2.588   9.940 -0.0014 -0.4767  0.0074
 1885TIP3    H129850   4.823   2.605   9.927 -0.5251 -2.0175  1.4566
 1885TIP3    H229851   4.924   2.493   9.938  1.7327 -0.3409 -1.1921
 1886TIP3   OH229852   3.980   6.215  11.510 -0.1761  0.4014 -0.9003
 1886TIP3    H129853   4.074   6.197  11.510 -0.0477  0.9011 -2.6786
 1886TIP3    H229854   3.974   6.309  11.528 -0.5959 -0.1897  3.0149
 1887TIP3   OH229855   2.911   2.701  11.447  0.0143 -0.0791 -0.1806
 1887TIP3    H129856   2.970   2.764  11.488 -0.1836  0.2225 -0.3570
 1887TIP3    H229857   2.939   2.616  11.481 -0.6543  0.2269  1.2360
 1888TIP3   OH229858   0.923   4.463  12.278  0.2517  0.0673  0.0606
 1888TIP3    H129859   0.913   4.538  12.336 -0.9167  0.0638 -0.1105
 1888TIP3    H229860   1.011   4.473  12.241 -0.1084  1.7191 -0.4442
 1889TIP3   OH229861   2.865   2.832  11.826 -0.4890 -0.7297 -0.2475
 1889TIP3    H129862   2.844   2.747  11.864 -0.1937 -1.9200 -2.6080
 1889TIP3    H229863   2.902   2.813  11.740  0.2138  1.7695 -0.6036
 1890TIP3   OH229864   4.496   4.202  11.505  0.2223 -0.4066  0.3054
 1890TIP3    H129865   4.439   4.279  11.506  0.8851  0.1372 -0.7324
 1890TIP3    H229866   4.583   4.238  11.486  0.5827 -1.3954  0.0175
 1891TIP3   OH229867   0.180   3.148  11.059  0.2736  0.1377 -0.1309
 1891TIP3    H129868   0.236   3.226  11.064 -1.2272  1.1703  1.3518
 1891TIP3    H229869   0.142   3.140  11.146 -0.8596 -1.3294 -0.7308
 1892TIP3   OH229870   4.060   3.418  12.222 -0.3964  0.3248  0.0381
 1892TIP3    H129871   4.098   3.418  12.134 -1.0446  0.3518 -0.2427
 1892TIP3    H229872   4.036   3.327  12.239 -2.2776  0.6564 -0.6934
 1893TIP3   OH229873   4.838   3.994   9.644  0.5124 -0.4492  0.2432
 1893TIP3    H129874   4.916   4.021   9.693 -0.3066  0.9941  0.8186
 1893TIP3    H229875   4.797   4.077   9.617 -0.2525 -1.2009 -0.9608
 1894TIP3   OH229876   4.506   3.564   9.605  0.7641  0.3035 -0.2491
 1894TIP3    H129877   4.571   3.635   9.608 -1.4906  2.5121  0.1061
 1894TIP3    H229878   4.488   3.551   9.512  0.6283  0.7543 -0.2866
 1895TIP3   OH229879   3.466   2.472   8.531  0.4429  0.3998 -0.0862
 1895TIP3    H129880   3.399   2.446   8.594  0.8807  0.5679  0.4607
 1895TIP3    H229881   3.440   2.560   8.502  0.9475  0.8852  0.8823
 1896TIP3   OH229882   1.270   4.569  11.298 -0.8284  0.1132  0.2271
 1896TIP3    H129883   1.326   4.513  11.351  0.5160  0.3542 -0.8935
 1896TIP3    H229884   1.242   4.638  11.357  1.6154  1.0539  0.3619
 1897TIP3   OH229885   3.876   5.753   9.294  0.1775 -0.0682  0.5315
 1897TIP3    H129886   3.868   5.671   9.342 -2.9575  0.1288  0.5152
 1897TIP3    H229887   3.864   5.729   9.202  0.6470  0.2606  0.3749
 1898TIP3   OH229888   2.116   1.591   8.950  0.3726  0.3072  0.3159
 1898TIP3    H129889   2.060   1.647   9.004 -0.7820 -0.1085 -0.4226
 1898TIP3    H229890   2.078   1.595   8.863  1.5336  0.0403 -0.2186
 1899TIP3   OH229891   2.714   3.152  11.480  0.8003  0.0366  0.0725
 1899TIP3    H129892   2.712   3.056  11.484 -0.8544 -0.0578 -1.7207
 1899TIP3    H229893   2.705   3.173  11.387  0.1507  1.9513  0.5170
 1900TIP3   OH229894   6.572   2.917  11.642  0.0550 -0.3947 -0.0698
 1900TIP3    H129895   6.666   2.936  11.633 -0.0460  0.9466  1.2731
 1900TIP3    H229896   6.546   2.882  11.556  2.1403 -2.5935  0.0937
 1901TIP3   OH229897   1.390   1.966  12.147  0.2223 -0.5448 -0.2190
 1901TIP3    H129898   1.354   2.034  12.204  1.2851 -0.2692  0.1389
 1901TIP3    H229899   1.368   1.996  12.058 -1.0381 -0.7486  0.0061
 1902TIP3   OH229900   0.832   0.204  11.218 -0.3068  0.4228 -0.5948
 1902TIP3    H129901   0.745   0.169  11.238  0.1459 -1.4318 -1.6430
 1902TIP3    H229902   0.849   0.267  11.287 -1.4898 -0.9247  0.9995
 1903TIP3   OH229903   4.846   6.093  11.409  0.0312 -0.3235  0.0350
 1903TIP3    H129904   4.918   6.129  11.358 -1.9397 -0.8714 -3.4258
 1903TIP3    H229905   4.837   6.152  11.484  3.6261  0.0376  0.3343
 1904TIP3   OH229906   2.202   4.500  12.391 -0.0201  0.1123 -0.3565
 1904TIP3    H129907   2.130   4.562  12.401 -0.9682 -1.0706  0.3419
 1904TIP3    H229908   2.243   4.496  12.477  0.3299  0.0996 -0.5200
 1905TIP3   OH229909   5.360   4.784  10.319  0.2230 -0.5024  0.1198
 1905TIP3    H129910   5.322   4.857  10.367  1.5053  1.1553 -1.2707
 1905TIP3    H229911   5.437   4.758  10.369 -0.2691 -0.9824  0.6472
 1906TIP3   OH229912   3.334   4.427   9.614  0.7068  0.2886 -0.2889
 1906TIP3    H129913   3.413   4.436   9.560 -0.4643  2.2418 -1.8269
 1906TIP3    H229914   3.325   4.512   9.657  0.1253 -0.3410  0.8639
 1907TIP3   OH229915   1.627   1.698  10.916 -0.4991 -0.1786 -0.3828
 1907TIP3    H129916   1.617   1.666  10.826  0.0639  1.0212 -0.8876
 1907TIP3    H229917   1.578   1.635  10.969  0.0724 -1.5234 -1.3989
 1908TIP3   OH229918   5.437   5.485  11.570  0.5022 -0.0460  0.2205
 1908TIP3    H129919   5.362   5.537  11.539  0.8398 -0.5677 -1.5900
 1908TIP3    H229920   5.424   5.399  11.530  1.4499 -0.4980  0.8665
 1909TIP3   OH229921   3.018   3.223   8.169  0.6911 -0.5690 -0.0243
 1909TIP3    H129922   2.933   3.207   8.210  1.0292  0.2171  1.0203
 1909TIP3    H229923   3.005   3.302   8.117  0.5827 -0.8974 -0.5067
 1910TIP3   OH229924   4.767   4.280  11.121  0.4571  0.0917 -0.5055
 1910TIP3    H129925   4.844   4.337  11.123  1.4161 -1.1327 -0.7744
 1910TIP3    H229926   4.796   4.203  11.072 -0.9528 -0.3964 -0.6146
 1911TIP3   OH229927   1.236   4.274  11.660 -0.2524  0.0091 -0.0696
 1911TIP3    H129928   1.200   4.224  11.734 -0.1553 -1.1454 -0.7862
 1911TIP3    H229929   1.159   4.296  11.607 -0.1387 -0.6360 -0.5058
 1912TIP3   OH229930   1.566   3.599  10.666  0.4593 -0.5609  0.1123
 1912TIP3    H129931   1.494   3.611  10.604 -0.4019 -0.6985  1.0553
 1912TIP3    H229932   1.619   3.529  10.628  1.4187  1.0866 -1.7537
 1913TIP3   OH229933   1.414   2.197  12.428  0.0514  0.0366  0.2282
 1913TIP3    H129934   1.449   2.286  12.436  2.0056 -0.4600 -1.7662
 1913TIP3    H229935   1.341   2.206  12.366  2.6612 -0.1585 -3.1575
 1914TIP3   OH229936   2.755   4.180   8.998  0.5957  0.6469 -0.4945
 1914TIP3    H129937   2.765   4.275   9.004 -1.3417  1.1466 -3.0236
 1914TIP3    H229938   2.799   4.157   8.916  0.9288 -0.6434  0.0282
 1915TIP3   OH229939   2.556   3.782  11.843  0.2781 -0.2413 -0.6679
 1915TIP3    H129940   2.586   3.702  11.885 -0.1822  0.7862  1.8243
 1915TIP3    H229941   2.463   3.767  11.826 -0.2017  0.2372  1.2481
 1916TIP3   OH229942   2.382   3.950  12.300  0.1919 -0.5125 -0.2666
 1916TIP3    H129943   2.378   3.856  12.319 -2.6711 -0.2812  0.7491
 1916TIP3    H229944   2.335   3.959  12.217 -1.3776  0.1954  0.6585
 1917TIP3   OH229945   2.949   6.142  10.935 -0.1047 -0.2391  0.2367
 1917TIP3    H129946   3.036   6.132  10.898  0.5351  0.8315  1.3632
 1917TIP3    H229947   2.937   6.237  10.942 -1.0394 -0.3864  0.8118
 1918TIP3   OH229948   4.031   3.492  10.407  0.5688  0.1166  0.5001
 1918TIP3    H129949   4.043   3.462  10.497  0.5177 -0.8623  0.1858
 1918TIP3    H229950   4.111   3.464  10.362  0.1196 -0.3574 -0.0093
 1919TIP3   OH229951   1.626   6.110  10.614 -0.0828 -0.0655 -0.1230
 1919TIP3    H129952   1.574   6.032  10.631 -1.1304  0.5686 -0.3512
 1919TIP3    H229953   1.707   6.096  10.664 -2.1763  0.8476  3.9468
 1920TIP3   OH229954   4.412   1.083   9.241  0.0042 -0.3819 -0.2076
 1920TIP3    H129955   4.396   1.085   9.147 -0.0693 -0.4514 -0.1971
 1920TIP3    H229956   4.389   1.171   9.271 -1.3140 -0.7553 -0.0450
 1921TIP3   OH229957   0.320   3.992  10.278 -0.4508 -0.5275 -0.7737
 1921TIP3    H129958   0.332   3.900  10.301 -1.0493 -0.6616 -0.9939
 1921TIP3    H229959   0.241   4.019  10.325 -0.3979 -0.1820 -0.8786
 1922TIP3   OH229960   5.262   0.017  10.938 -0.2097 -0.7693  0.4399
 1922TIP3    H129961   5.252  -0.074  10.966 -0.2130 -0.7562  0.4800
 1922TIP3    H229962   5.200   0.066  10.991  0.3382 -0.6321  0.9663
 1923TIP3   OH229963   2.504   3.566  10.529 -0.1664  0.5432 -0.1756
 1923TIP3    H129964   2.515   3.661  10.526 -1.6363  0.7804  0.9103
 1923TIP3    H229965   2.558   3.533  10.457 -0.3893  2.2640 -1.1739
 1924TIP3   OH229966   0.732   1.001  10.041 -0.4913  0.0531 -0.2219
 1924TIP3    H129967   0.705   0.964  10.126 -1.7869  0.0401 -0.6163
 1924TIP3    H229968   0.827   0.990  10.039 -0.5507 -0.8107  0.8245
 1925TIP3   OH229969   3.022   2.343   8.800  0.0761 -0.1282 -0.1857
 1925TIP3    H129970   2.955   2.404   8.770 -0.8973 -0.6171  0.8994
 1925TIP3    H229971   2.989   2.257   8.774  0.2218 -0.3816  0.4520
 1926TIP3   OH229972   4.701   5.117  12.126 -0.4371 -0.1372  0.4430
 1926TIP3    H129973   4.621   5.109  12.178 -0.2421  1.7410  1.1060
 1926TIP3    H229974   4.769   5.076  12.179 -0.9615 -2.0872 -0.2876
 1927TIP3   OH229975   4.484   1.306  10.361 -0.7190 -0.2061  0.1116
 1927TIP3    H129976   4.549   1.376  10.363 -1.2950  0.3234  0.5408
 1927TIP3    H229977   4.408   1.346  10.319 -1.4574 -0.2177  1.3942
 1928TIP3   OH229978   5.079   2.960   9.718 -0.4637  0.7675 -0.0912
 1928TIP3    H129979   5.121   2.969   9.632  0.0190  1.5380  0.2124
 1928TIP3    H229980   5.153   2.957   9.779 -0.8304  3.0050  0.5380
 1929TIP3   OH229981   4.666   2.381  10.222 -0.3701 -0.2090 -0.2946
 1929TIP3    H129982   4.670   2.471  10.255 -1.1053  0.1765 -1.2205
 1929TIP3    H229983   4.667   2.327  10.302 -1.5839  0.6838  0.3676
 1930TIP3   OH229984   0.978   2.796  10.407 -0.5018 -0.0362 -0.0450
 1930TIP3    H129985   0.992   2.799  10.502  1.4809  2.2649 -0.2987
 1930TIP3    H229986   1.026   2.719  10.378 -2.8579 -2.0010  0.9513
 1931TIP3   OH229987   3.314   6.617  10.955  0.0848  0.0293 -0.9317
 1931TIP3    H129988   3.364   6.593  11.033  0.2402  2.5942 -0.1724
 1931TIP3    H229989   3.225   6.633  10.988 -0.3994 -0.9956 -1.6811
 1932TIP3   OH229990   3.491   5.352  11.879 -0.0356 -0.5552 -0.3458
 1932TIP3    H129991   3.498   5.447  11.882 -0.1176 -0.4926 -1.7099
 1932TIP3    H229992   3.539   5.322  11.957  2.0213  0.4983 -1.1446
 1933TIP3   OH229993   1.577   2.887   8.436  0.6329  0.1844 -0.1483
 1933TIP3    H129994   1.520   2.874   8.360  0.3682  1.2338 -0.1460
 1933TIP3    H229995   1.526   2.855   8.510  0.4484  0.1863 -0.2731
 1934TIP3   OH229996   1.760   1.454   9.739  0.2154  0.1968 -0.3032
 1934TIP3    H129997   1.683   1.494   9.699 -2.4852 -1.3887  2.8553
 1934TIP3    H229998   1.817   1.528   9.762  0.2481  1.3273 -3.5996
 1935TIP3   OH229999   4.686   6.081  10.488 -0.2440 -0.5051 -0.5381
 1935TIP3    H130000   4.706   6.071  10.581  0.1791  1.5783 -0.3390
 1935TIP3    H230001   4.590   6.087  10.484 -0.1984  1.5853  0.1130
 1936TIP3   OH230002   2.605   6.327   9.734 -0.4184 -0.0183 -0.0092
 1936TIP3    H130003   2.616   6.396   9.668 -0.9243  1.0816  1.0036
 1936TIP3    H230004   2.689   6.282   9.736 -0.9287 -1.2875 -2.6619
 1937TIP3   OH230005   4.177   0.018   9.655  0.4263  0.3115 -0.3230
 1937TIP3    H130006   4.107   0.058   9.706  0.7943 -0.1042  0.5397
 1937TIP3    H230007   4.142   0.010   9.566 -0.1313  1.3015 -0.2051
 1938TIP3   OH230008   3.868   4.065  12.486  0.9478  0.4869 -0.0446
 1938TIP3    H130009   3.947   4.071  12.540 -0.5001  2.6111  2.0745
 1938TIP3    H230010   3.822   4.148  12.502 -1.7584 -0.6956 -1.0872
 1939TIP3   OH230011   2.798   5.251  12.392  0.0642 -0.0220 -0.6468
 1939TIP3    H130012   2.844   5.205  12.322 -0.2046 -0.9283 -0.2409
 1939TIP3    H230013   2.713   5.206  12.399  0.8038 -1.2328  1.5255
 1940TIP3   OH230014   4.393   2.011   9.439  0.2327  0.4076  0.5168
 1940TIP3    H130015   4.453   1.938   9.452  0.2027  0.0597 -1.0171
 1940TIP3    H230016   4.442   2.072   9.383  0.2726  1.6105  1.8078
 1941TIP3   OH230017   2.774   4.962   9.623 -0.3020  0.4254 -0.3782
 1941TIP3    H130018   2.807   5.046   9.589  1.4366 -0.0181  0.0978
 1941TIP3    H230019   2.847   4.928   9.676 -0.6805 -1.7480 -1.1828
 1942TIP3   OH230020   4.747   3.841   8.769  0.2627  0.3024 -0.3181
 1942TIP3    H130021   4.678   3.891   8.812  0.4407  1.2820 -1.1057
 1942TIP3    H230022   4.780   3.900   8.701  0.1062 -1.1096 -1.6777
 1943TIP3   OH230023   2.440   0.731  10.337  0.2830 -0.8156 -0.3530
 1943TIP3    H130024   2.378   0.762  10.271  0.3616 -1.8758 -0.9473
 1943TIP3    H230025   2.384   0.691  10.404  0.3012 -2.9446 -1.4990
 1944TIP3   OH230026   2.408   5.179  10.911 -0.5272 -0.0359 -0.0610
 1944TIP3    H130027   2.465   5.106  10.885 -0.1338  0.4998 -0.7086
 1944TIP3    H230028   2.327   5.136  10.940  0.4829 -0.8635  1.7043
 1945TIP3   OH230029   6.418   1.097  10.989 -0.2223 -0.0141  0.0366
 1945TIP3    H130030   6.472   1.024  10.961  0.2256  0.1484  0.4675
 1945TIP3    H230031   6.470   1.175  10.969 -0.2220  0.1366  0.5998
 1946TIP3   OH230032   5.446   4.225   9.400 -0.5302  0.4093  0.8698
 1946TIP3    H130033   5.361   4.247   9.438 -1.3012 -1.2065  0.1517
 1946TIP3    H230034   5.434   4.239   9.306  0.3365  1.1542  0.8543
 1947TIP3   OH230035   6.567   0.518  11.121  0.2502  0.0099  0.4518
 1947TIP3    H130036   6.578   0.510  11.216  2.6533  0.6136  0.2804
 1947TIP3    H230037   6.594   0.434  11.087  0.3368  0.1281  0.2307
 1948TIP3   OH230038   1.544   1.526   9.560  0.2675 -0.3735 -0.2185
 1948TIP3    H130039   1.588   1.460   9.505 -0.7027 -0.2919 -1.1298
 1948TIP3    H230040   1.570   1.610   9.521 -0.3327 -0.3101 -0.4840
 1949TIP3   OH230041   0.130   6.307  10.019 -0.2043  0.0958  0.1628
 1949TIP3    H130042   0.071   6.257   9.963  0.8538  0.6932 -1.5591
 1949TIP3    H230043   0.089   6.304  10.106 -1.9988 -0.7013 -0.6649
 1950TIP3   OH230044   4.523   1.671  12.543  0.0507  0.2141 -0.1088
 1950TIP3    H130045   4.561   1.728  12.609  0.7044 -1.6046  1.1518
 1950TIP3    H230046   4.441   1.639  12.582 -0.1493  0.0248 -0.6628
 1951TIP3   OH230047   1.702   3.067  10.563 -0.2938  0.1938  0.6259
 1951TIP3    H130048   1.707   2.975  10.538  1.0537  0.8481 -1.8857
 1951TIP3    H230049   1.612   3.093  10.541  0.3846  0.3313 -2.3365
 1952TIP3   OH230050   0.761   0.889   9.517 -0.4541  0.2148 -0.2701
 1952TIP3    H130051   0.806   0.940   9.585  0.1834  0.2863 -0.7458
 1952TIP3    H230052   0.747   0.952   9.446 -0.4256 -0.0624 -0.5197
 1953TIP3   OH230053   0.910   1.417   9.025  0.1811 -0.1381 -0.0545
 1953TIP3    H130054   0.912   1.322   9.017  3.5703 -0.2451  0.4480
 1953TIP3    H230055   0.905   1.449   8.935  1.5477 -0.8633 -0.4130
 1954TIP3   OH230056   0.043   1.219  12.016 -0.2986 -0.0995  0.3144
 1954TIP3    H130057  -0.042   1.254  12.042 -1.1688 -2.9730  1.7660
 1954TIP3    H230058   0.028   1.179  11.930 -0.0739  0.4428  0.0170
 1955TIP3   OH230059   4.458   4.948  11.231  0.2946  0.2534  0.1777
 1955TIP3    H130060   4.509   4.926  11.309 -1.2307 -0.0961  1.1256
 1955TIP3    H230061   4.417   4.865  11.206  2.2570 -0.1135 -2.2115
 1956TIP3   OH230062   4.727   2.900  11.795 -0.2487  0.0833  0.5574
 1956TIP3    H130063   4.797   2.834  11.789  0.5439  1.0202 -1.5177
 1956TIP3    H230064   4.745   2.947  11.876  0.8108 -0.4829  0.6660
 1957TIP3   OH230065   4.651   2.588   8.217 -0.5720  0.1103 -0.0297
 1957TIP3    H130066   4.676   2.507   8.171  0.3236  0.6921 -0.6089
 1957TIP3    H230067   4.671   2.570   8.309 -0.9883 -0.5506 -0.0622
 1958TIP3   OH230068   3.927   2.658  12.263  0.2398 -0.5461 -0.8253
 1958TIP3    H130069   3.961   2.732  12.213  1.3317 -1.1017 -0.9319
 1958TIP3    H230070   3.856   2.624  12.209 -0.8420  0.9074 -0.3895
 1959TIP3   OH230071   3.651   4.025  11.939  0.4676 -0.0583  0.7923
 1959TIP3    H130072   3.653   4.032  11.844 -0.8953  1.8447  0.8464
 1959TIP3    H230073   3.573   4.075  11.965  1.1001 -0.1054  2.9387
 1960TIP3   OH230074   0.101   3.758   9.613 -0.1515 -0.1547  0.2648
 1960TIP3    H130075   0.116   3.679   9.665 -2.1484 -0.7931 -0.0541
 1960TIP3    H230076   0.042   3.730   9.543 -2.8459  2.0451  1.4780
 1961TIP3   OH230077   1.201   4.147  11.110  0.8840  0.9290  0.0492
 1961TIP3    H130078   1.148   4.178  11.183 -0.0703 -0.8320  0.1658
 1961TIP3    H230079   1.191   4.052  11.112 -0.1073  0.8673 -3.0337
 1962TIP3   OH230080   4.117   6.487  10.275  0.1393  0.3633 -0.3243
 1962TIP3    H130081   4.189   6.438  10.235 -0.6187 -0.0073 -1.2506
 1962TIP3    H230082   4.160   6.561  10.318  1.0757  0.1602 -0.8824
 1963TIP3   OH230083   3.973   2.107  11.412 -0.0430 -0.4471 -0.2659
 1963TIP3    H130084   4.026   2.121  11.334  1.7089  0.6354  1.0504
 1963TIP3    H230085   3.932   2.192  11.429  0.5815 -0.3191  0.6702
 1964TIP3   OH230086   1.325   1.323   8.783  0.2264 -0.4437  0.3543
 1964TIP3    H130087   1.261   1.281   8.840  0.0625 -2.7628 -1.3636
 1964TIP3    H230088   1.396   1.260   8.776  0.6379  0.1304 -1.2733
 1965TIP3   OH230089   0.495   1.922  10.414  0.3681  0.6654 -0.4047
 1965TIP3    H130090   0.440   1.875  10.477  1.3986 -0.5747 -0.3843
 1965TIP3    H230091   0.580   1.928  10.457  0.8886  0.4401 -1.3747
 1966TIP3   OH230092   1.362   1.931   9.250  0.4174 -0.0916  0.1422
 1966TIP3    H130093   1.294   1.871   9.218  0.4148 -0.2567  0.4554
 1966TIP3    H230094   1.377   1.991   9.176 -0.9507  0.7236  0.4704
 1967TIP3   OH230095   1.804   1.953  11.912  0.3290 -0.5083 -0.0524
 1967TIP3    H130096   1.846   1.902  11.842  0.0894 -0.2797 -0.3673
 1967TIP3    H230097   1.712   1.925  11.910 -0.5296  2.0513 -2.2540
 1968TIP3   OH230098   0.295   0.707  11.749 -0.2651 -0.0359  0.2652
 1968TIP3    H130099   0.268   0.638  11.689 -0.3220 -0.3493  0.6504
 1968TIP3    H230100   0.252   0.686  11.831 -2.7103  2.0931 -0.3683
 1969TIP3   OH230101   1.002   4.049   9.823  0.0426 -0.9330 -0.0605
 1969TIP3    H130102   1.026   4.046   9.730  0.3041  1.4386 -0.1258
 1969TIP3    H230103   1.082   4.023   9.869  1.2882  1.8791 -0.4421
 1970TIP3   OH230104   6.544   6.321  10.666 -0.5531  0.0773  0.0099
 1970TIP3    H130105   6.593   6.276  10.734  0.2412 -0.7012 -1.0302
 1970TIP3    H230106   6.454   6.290  10.677  0.2676 -3.6907 -2.0057
 1971TIP3   OH230107   5.975   3.727  10.569 -0.1673 -0.3031  0.2539
 1971TIP3    H130108   6.060   3.753  10.532 -0.8259 -0.7273 -1.6801
 1971TIP3    H230109   5.926   3.692  10.495 -2.1204  0.0955  1.2707
 1972TIP3   OH230110   0.044   4.637  11.562 -0.1749  0.0700  0.6706
 1972TIP3    H130111  -0.010   4.692  11.618 -1.8634 -3.0584  2.3781
 1972TIP3    H230112  -0.010   4.619  11.486 -0.6053 -1.0739  1.2280
 1973TIP3   OH230113   4.747   4.279  10.481  0.5217 -0.4258  0.0801
 1973TIP3    H130114   4.733   4.365  10.522 -2.4316  0.8736 -3.1523
 1973TIP3    H230115   4.671   4.227  10.507 -0.7006 -0.0159 -2.3877
 1974TIP3   OH230116   0.022   2.947   9.041 -0.3054  0.1528 -0.5706
 1974TIP3    H130117   0.098   2.987   8.998 -1.0433 -0.7263 -2.8377
 1974TIP3    H230118   0.024   2.856   9.014 -0.2146 -0.7842  2.2809
 1975TIP3   OH230119   2.875   4.622   9.536 -0.2686  0.0899  0.1881
 1975TIP3    H130120   2.928   4.639   9.613 -0.7812  0.1274  0.5349
 1975TIP3    H230121   2.792   4.589   9.570 -0.3495 -0.3024 -0.3607
 1976TIP3   OH230122   5.387   3.445  11.491  0.0199 -0.4891  0.1551
 1976TIP3    H130123   5.452   3.387  11.451 -1.9108 -1.4915 -1.8099
 1976TIP3    H230124   5.386   3.523  11.436 -0.0753 -0.2693  0.4658
 1977TIP3   OH230125   1.707   2.289  10.995  0.4037  0.8175  0.3575
 1977TIP3    H130126   1.637   2.232  11.027  1.7605 -0.9384  0.3622
 1977TIP3    H230127   1.731   2.343  11.071  0.4454 -0.0166  0.9494
 1978TIP3   OH230128   2.470   4.336  12.390  0.3434 -0.1599 -0.0802
 1978TIP3    H130129   2.396   4.281  12.414  0.0347 -0.2713 -1.2163
 1978TIP3    H230130   2.460   4.415  12.443 -0.4467 -0.2791 -0.0392
 1979TIP3   OH230131   4.861   4.797  11.242 -0.4818 -0.5622  0.6363
 1979TIP3    H130132   4.894   4.707  11.240 -1.1891 -0.8180 -0.1825
 1979TIP3    H230133   4.796   4.800  11.172  0.4786  0.9410 -0.2698
 1980TIP3   OH230134   3.873   4.542  11.244  0.0872  0.0712  0.0151
 1980TIP3    H130135   3.873   4.470  11.181  0.9619 -0.2231  0.3422
 1980TIP3    H230136   3.825   4.509  11.320  0.7881 -0.2975  0.3023
 1981TIP3   OH230137   4.267   1.828   9.033 -0.0211 -0.3770 -0.1423
 1981TIP3    H130138   4.215   1.889   8.981  1.4522  1.6156  0.6091
 1981TIP3    H230139   4.358   1.848   9.010  0.6462 -0.0020  2.4935
 1982TIP3   OH230140   0.136   6.299  11.453  0.2623 -0.2309 -0.5263
 1982TIP3    H130141   0.208   6.362  11.451  0.6021 -0.5963 -0.0116
 1982TIP3    H230142   0.158   6.241  11.526 -0.9076  0.0703  0.0845
 1983TIP3   OH230143   2.232   2.960   8.796  0.4205  0.3285  1.0271
 1983TIP3    H130144   2.222   2.865   8.789 -2.7518  0.6273 -0.1613
 1983TIP3    H230145   2.146   2.992   8.824  0.7818  2.9719 -0.4847
 1984TIP3   OH230146   3.871   5.591   8.734  0.0883 -0.5338 -0.2888
 1984TIP3    H130147   3.885   5.512   8.682 -0.3106  1.0779 -3.0620
 1984TIP3    H230148   3.959   5.622   8.755  0.3212 -0.2621 -1.6055
 1985TIP3   OH230149   1.207   0.476   8.988 -1.0400 -0.3455  0.6658
 1985TIP3    H130150   1.175   0.447   8.902  0.6531 -1.1228  0.2686
 1985TIP3    H230151   1.169   0.563   8.999 -2.6214 -0.8894 -0.1222
 1986TIP3   OH230152   3.926   6.410  12.522  0.2272  0.1851 -0.6050
 1986TIP3    H130153   3.889   6.392  12.609 -0.6990  0.3421 -0.9675
 1986TIP3    H230154   3.871   6.479  12.486  1.6680  1.3783 -0.6282
 1987TIP3   OH230155   4.319   1.612   9.196 -0.0178 -0.3850  0.0658
 1987TIP3    H130156   4.415   1.615   9.192  0.0212 -2.1098 -1.9742
 1987TIP3    H230157   4.291   1.688   9.144  0.2512 -0.0985  0.3379
 1988TIP3   OH230158   2.130   4.996   8.819  0.2870 -0.0574 -0.2377
 1988TIP3    H130159   2.071   4.922   8.836  1.4409 -1.9649 -3.5809
 1988TIP3    H230160   2.092   5.040   8.744  0.4326  1.9282  0.7994
 1989TIP3   OH230161   5.180   4.831  11.321 -0.3867 -0.0869  0.2968
 1989TIP3    H130162   5.232   4.771  11.374 -0.4941  0.8373  1.4990
 1989TIP3    H230163   5.132   4.884  11.385 -1.5697  0.1651 -0.7561
 1990TIP3   OH230164   5.578   6.230  12.091 -0.2703  0.1892 -0.1024
 1990TIP3    H130165   5.601   6.208  12.182  1.9488 -0.5802 -0.7756
 1990TIP3    H230166   5.590   6.148  12.043 -0.5149  0.8023 -1.2427
 1991TIP3   OH230167   2.607   6.538   9.566  0.1190  0.1846  0.0609
 1991TIP3    H130168   2.541   6.599   9.598 -0.3242 -0.2132 -0.0849
 1991TIP3    H230169   2.595   6.537   9.472 -0.8150 -1.1806  0.1765
 1992TIP3   OH230170   4.310   4.164  11.837  0.2966  0.1184  0.3368
 1992TIP3    H130171   4.353   4.220  11.901 -0.2102  0.4264  0.4096
 1992TIP3    H230172   4.269   4.095  11.889  0.1656  0.1818  0.3173
 1993TIP3   OH230173   5.049   2.656  11.046 -0.3880  0.4988  0.3699
 1993TIP3    H130174   5.143   2.642  11.054 -0.4920 -0.4103  0.1148
 1993TIP3    H230175   5.028   2.629  10.957 -0.8902  0.7122  0.4192
 1994TIP3   OH230176   2.956   4.956  10.195 -0.6316  0.0373 -0.2924
 1994TIP3    H130177   2.867   4.992  10.204 -0.1669  1.3268 -0.6346
 1994TIP3    H230178   2.982   4.934  10.284  0.0843  3.1713  0.3983
 1995TIP3   OH230179   2.085   2.649  11.311  0.4191  0.0343 -0.7619
 1995TIP3    H130180   2.070   2.563  11.350  0.8554  0.1413 -0.3585
 1995TIP3    H230181   2.025   2.708  11.358 -0.0294 -0.0785 -1.1771
 1996TIP3   OH230182   3.126   4.593  10.286  1.1217  0.5458 -0.0129
 1996TIP3    H130183   3.064   4.580  10.358  1.8372  2.5286  1.0484
 1996TIP3    H230184   3.132   4.507  10.244 -0.3889 -0.3250  1.4183
 1997TIP3   OH230185   5.875   2.844  10.282 -0.1410 -0.3976 -0.6350
 1997TIP3    H130186   5.917   2.900  10.348 -1.1389  1.2501 -1.3358
 1997TIP3    H230187   5.930   2.766  10.279 -0.8686 -1.2671  3.2223
 1998TIP3   OH230188   2.532   1.072  11.660  0.1528  0.0329  0.1452
 1998TIP3    H130189   2.443   1.065  11.628 -0.4441  0.7062  1.5582
 1998TIP3    H230190   2.574   0.990  11.635 -1.2353 -0.8194  0.5411
 1999TIP3   OH230191   3.652   1.802  10.075 -0.6153 -0.2791 -0.0960
 1999TIP3    H130192   3.620   1.853  10.149 -0.1839 -0.8136  0.4594
 1999TIP3    H230193   3.648   1.711  10.104  0.4671 -0.4228 -0.3676
 2000TIP3   OH230194   3.017   4.896  11.726  0.4714 -0.2573  0.3316
 2000TIP3    H130195   3.104   4.873  11.691 -0.1606  0.4157 -1.8912
 2000TIP3    H230196   3.006   4.988  11.702 -0.5103 -0.0900  1.3713
 2001TIP3   OH230197   3.211   1.697   8.818  0.4049 -0.0723  0.2613
 2001TIP3    H130198   3.120   1.704   8.849  0.1081 -0.4303 -0.5063
 2001TIP3    H230199   3.224   1.603   8.803  0.0242  0.1774 -2.1181
 2002TIP3   OH230200   2.035   3.271  12.097 -0.3763  0.2173  0.3361
 2002TIP3    H130201   2.099   3.227  12.154 -2.1478 -0.9306  1.5255
 2002TIP3    H230202   2.052   3.234  12.010  1.5035  1.0230  0.3064
 2003TIP3   OH230203   4.762   3.019  12.050  0.4049  0.0278  0.0203
 2003TIP3    H130204   4.711   2.962  12.108 -0.0304  0.4696  0.0807
 2003TIP3    H230205   4.849   3.021  12.089  0.2764 -0.1575  0.3207
 2004TIP3   OH230206   1.354   5.836  11.521 -0.2501 -0.0579  0.4284
 2004TIP3    H130207   1.446   5.863  11.516 -0.0243 -0.9261 -0.3277
 2004TIP3    H230208   1.338   5.827  11.615  0.2588  0.6593  0.6008
 2005TIP3   OH230209   2.700   1.088   8.991 -0.3906  0.4315  0.2378
 2005TIP3    H130210   2.665   1.002   9.016 -1.0527  0.8279  0.6826
 2005TIP3    H230211   2.629   1.149   9.010 -1.4597  0.6803 -3.6193
 2006TIP3   OH230212   4.184   4.553  12.236  0.3811 -0.1970  0.4151
 2006TIP3    H130213   4.141   4.613  12.174 -1.0744  0.7136  2.2094
 2006TIP3    H230214   4.276   4.554  12.210  0.1952  1.8620 -0.3826
 2007TIP3   OH230215   5.045   2.916  12.071 -0.0627 -0.1905 -0.1659
 2007TIP3    H130216   5.081   2.903  12.159  1.5014 -1.2305 -0.9169
 2007TIP3    H230217   5.026   2.827  12.040 -0.4492  0.1566 -0.9398
 2008TIP3   OH230218   5.050   5.906  10.772  0.0452  0.5356 -0.2972
 2008TIP3    H130219   5.145   5.899  10.782  0.2361  1.6695 -1.1302
 2008TIP3    H230220   5.017   5.817  10.787  1.2961  0.0013 -0.6360
 2009TIP3   OH230221   0.262   4.844  11.181  0.0738  0.3115  0.5441
 2009TIP3    H130222   0.210   4.773  11.143  1.1240 -0.5786  0.7332
 2009TIP3    H230223   0.198   4.899  11.226 -0.4973 -2.1498  2.9806
 2010TIP3   OH230224   4.485   4.560  11.981 -0.5814 -0.2369 -0.1040
 2010TIP3    H130225   4.516   4.604  11.902 -0.9906 -0.9201 -0.6613
 2010TIP3    H230226   4.398   4.597  11.996 -1.0402 -1.0438 -0.7336
 2011TIP3   OH230227   1.223   3.402  10.011 -0.2992  0.1378  0.0302
 2011TIP3    H130228   1.189   3.313  10.012  1.8919 -0.8095 -1.5819
 2011TIP3    H230229   1.162   3.450   9.955 -1.4987 -0.3216  0.9127
 2012TIP3   OH230230   0.854   3.990  12.026  0.1475 -0.1146 -0.0578
 2012TIP3    H130231   0.921   3.935  11.984 -2.0232 -1.5117 -1.9132
 2012TIP3    H230232   0.785   3.998  11.960 -2.4722 -0.4836  2.4383
 2013TIP3   OH230233   2.178   4.713  10.148  0.4983 -0.0335  0.3635
 2013TIP3    H130234   2.251   4.751  10.098 -0.8301  2.0335 -0.1704
 2013TIP3    H230235   2.123   4.672  10.081  0.1755  0.2045  0.4801
 2014TIP3   OH230236   3.859   0.193  11.982  0.4561 -0.0209 -0.5498
 2014TIP3    H130237   3.836   0.168  12.072  0.4427 -1.6063 -0.9526
 2014TIP3    H230238   3.871   0.287  11.986 -2.0268  0.3488  0.5899
 2015TIP3   OH230239   3.730   2.959  12.190 -0.0703  0.5208  0.1112
 2015TIP3    H130240   3.655   2.911  12.155 -0.7183  1.3991  0.2482
 2015TIP3    H230241   3.692   3.037  12.230  0.9453  1.1616 -0.1248
 2016TIP3   OH230242   0.248   2.839  10.555  0.0066  0.2920  0.4298
 2016TIP3    H130243   0.300   2.777  10.606  0.5451  1.1393  0.9148
 2016TIP3    H230244   0.258   2.923  10.600 -0.7504  0.7327 -0.1964
 2017TIP3   OH230245   2.292   6.587   9.319 -0.3170  0.0654  0.2516
 2017TIP3    H130246   2.227   6.542   9.373 -1.2148 -0.3026 -1.0895
 2017TIP3    H230247   2.243   6.616   9.242  0.5868  1.9293  0.3205
 2018TIP3   OH230248   1.023   0.789  10.511  0.3484 -0.1579 -0.5096
 2018TIP3    H130249   0.950   0.737  10.546  0.9616 -2.0530 -1.8833
 2018TIP3    H230250   1.100   0.752  10.553  0.6866  0.7580 -0.2953
 2019TIP3   OH230251   2.676   0.071  11.243 -1.0247 -0.1422  0.4830
 2019TIP3    H130252   2.580   0.077  11.242 -0.9975  3.8960  2.5637
 2019TIP3    H230253   2.697   0.038  11.330 -0.4379 -2.7768 -0.5859
 2020TIP3   OH230254   6.521   1.199  11.346  0.4826 -0.4514 -0.3715
 2020TIP3    H130255   6.497   1.264  11.279  1.2795 -1.6621 -1.8912
 2020TIP3    H230256   6.438   1.172  11.384  0.0989  1.1206 -0.0080
 2021TIP3   OH230257   3.792   6.014  11.412 -0.9293 -0.0023  0.1729
 2021TIP3    H130258   3.838   6.052  11.487  1.4231 -0.2778 -1.0146
 2021TIP3    H230259   3.774   5.924  11.438  2.7740 -1.1413 -0.5727
 2022TIP3   OH230260   0.754   3.613   9.368 -1.6478  0.4652  0.0114
 2022TIP3    H130261   0.680   3.555   9.354 -2.2498  0.7204  1.8546
 2022TIP3    H230262   0.779   3.600   9.459  0.0454  1.0145 -0.3271
 2023TIP3   OH230263   1.929   4.571  10.876 -0.0368  0.4463 -0.2927
 2023TIP3    H130264   1.845   4.601  10.843 -0.6477  0.5550  1.2835
 2023TIP3    H230265   1.946   4.489  10.829 -2.1700 -0.8283  1.0023
 2024TIP3   OH230266   3.768   4.931   9.891 -0.0140  0.0875  0.7580
 2024TIP3    H130267   3.712   5.003   9.862  0.7601  0.4675  0.1369
 2024TIP3    H230268   3.812   4.965   9.969  2.1519  1.2688 -0.8550
 2025TIP3   OH230269   5.792   2.890  11.041  0.0695 -0.0151  0.2083
 2025TIP3    H130270   5.719   2.864  10.985  0.3389 -0.4447  0.0539
 2025TIP3    H230271   5.862   2.911  10.979 -0.2265  1.3938  0.3006
 2026TIP3   OH230272   3.308   2.964   9.240 -0.3820 -0.4843  0.3974
 2026TIP3    H130273   3.247   3.038   9.239  0.9122  0.7971 -3.2534
 2026TIP3    H230274   3.387   2.999   9.282  0.1745  0.2636 -1.1838
 2027TIP3   OH230275   3.420   1.576   8.958  0.3397 -0.4428 -0.6464
 2027TIP3    H130276   3.380   1.625   8.887 -2.9879 -1.9750 -0.0319
 2027TIP3    H230277   3.497   1.535   8.919 -0.7974 -0.4106 -3.0941
 2028TIP3   OH230278   0.824   2.505  11.496  0.2245 -0.0850 -0.2439
 2028TIP3    H130279   0.770   2.435  11.532 -0.0371  0.9193  1.4091
 2028TIP3    H230280   0.803   2.582  11.548  0.3664  1.3140 -2.1306
 2029TIP3   OH230281   5.967   4.165  10.222 -0.4417 -0.4276  0.2881
 2029TIP3    H130282   6.006   4.089  10.266  2.5623  0.4670 -0.5861
 2029TIP3    H230283   5.941   4.223  10.293 -0.4531 -1.1934  0.9292
 2030TIP3   OH230284   1.816   6.316   9.484 -0.1874  0.1578 -0.0012
 2030TIP3    H130285   1.766   6.334   9.404 -1.5549 -0.0791  0.7686
 2030TIP3    H230286   1.822   6.401   9.528 -0.8464 -0.0025  0.4123
 2031TIP3   OH230287   4.643   4.559  11.170  0.3628  0.0660 -0.3136
 2031TIP3    H130288   4.735   4.533  11.172 -0.5806 -3.9054  0.8925
 2031TIP3    H230289   4.620   4.575  11.261 -0.3007  0.5394 -0.5481
 2032TIP3   OH230290   6.256   1.602  10.487  0.4003  0.2165  0.2506
 2032TIP3    H130291   6.308   1.671  10.528  1.5709 -0.9687  0.8302
 2032TIP3    H230292   6.279   1.606  10.394  1.1971  0.0054  0.4295
 2033TIP3   OH230293   5.271   0.814   9.647  0.5266 -0.4429 -0.2627
 2033TIP3    H130294   5.277   0.723   9.619  2.5252 -0.8062  1.1813
 2033TIP3    H230295   5.310   0.816   9.734  0.2655  1.7543 -0.1335
 2034TIP3   OH230296   3.898   4.285  11.741 -0.3388 -0.4120  0.2868
 2034TIP3    H130297   3.850   4.279  11.824  0.3908  0.8133  0.8191
 2034TIP3    H230298   3.871   4.368  11.703 -0.2865 -0.7331 -0.4733
 2035TIP3   OH230299   4.892   2.414  11.126 -0.2960  0.3784  0.1819
 2035TIP3    H130300   4.902   2.506  11.101 -0.9974  1.2146  2.6549
 2035TIP3    H230301   4.980   2.377  11.118 -0.1781  0.9752 -1.7307
 2036TIP3   OH230302   4.940   1.457  10.328  0.1289 -0.5180 -0.2214
 2036TIP3    H130303   4.983   1.396  10.388  0.6082  1.2687  1.3731
 2036TIP3    H230304   5.004   1.528  10.316 -1.0254  0.5001 -0.6195
 2037TIP3   OH230305   1.268   3.130  11.972  0.5937  0.4312 -0.1633
 2037TIP3    H130306   1.245   3.093  11.886  0.3191  0.9243 -0.3060
 2037TIP3    H230307   1.362   3.115  11.980  0.6078  0.3186 -0.5203
 2038TIP3   OH230308   4.621   2.366  10.558  0.2196 -0.0060  0.1808
 2038TIP3    H130309   4.684   2.412  10.614  0.7568 -1.0544  0.4634
 2038TIP3    H230310   4.555   2.331  10.619  0.0754 -0.0183  0.0210
 2039TIP3   OH230311   1.402   2.792   8.623  0.0209  0.1390 -0.0255
 2039TIP3    H130312   1.310   2.765   8.627  0.3636 -1.6437 -2.2089
 2039TIP3    H230313   1.407   2.869   8.680 -2.3687 -0.8738  1.7214
 2040TIP3   OH230314   0.437   2.517   9.955 -0.4576 -0.8677  0.3760
 2040TIP3    H130315   0.477   2.558  10.032  2.0792 -0.8988 -0.8281
 2040TIP3    H230316   0.372   2.581   9.925 -0.2482 -0.0882  1.4944
 2041TIP3   OH230317   0.532   3.197  10.869 -0.1167 -0.0160 -0.4905
 2041TIP3    H130318   0.608   3.143  10.846 -1.4081 -1.9712 -0.4072
 2041TIP3    H230319   0.469   3.135  10.907 -1.1940  1.7843  0.8366
 2042TIP3   OH230320   3.870   5.357  10.531  0.3682 -0.0696 -0.2403
 2042TIP3    H130321   3.941   5.419  10.549  1.1351 -0.2866 -2.2168
 2042TIP3    H230322   3.872   5.296  10.605 -1.7901  3.2902  2.9274
 2043TIP3   OH230323   5.560   4.226   9.797 -0.3068 -0.3777 -0.1403
 2043TIP3    H130324   5.478   4.238   9.845 -0.1016  0.7845 -0.0575
 2043TIP3    H230325   5.605   4.310   9.804  1.1313 -1.1486  0.2403
 2044TIP3   OH230326   0.363   3.097  12.382 -0.2610  0.0493  0.1101
 2044TIP3    H130327   0.432   3.088  12.317  1.1075  0.4466  1.4390
 2044TIP3    H230328   0.348   3.191  12.389  0.9118  0.1729  1.6071
 2045TIP3   OH230329   0.684   3.722   8.818  0.0250 -0.4282  0.0481
 2045TIP3    H130330   0.664   3.629   8.805  1.0226 -0.4889 -1.2872
 2045TIP3    H230331   0.703   3.729   8.911  0.1641 -1.6190  0.1306
 2046TIP3   OH230332   2.030   3.142  11.834 -0.2037  0.0132 -0.0421
 2046TIP3    H130333   2.117   3.125  11.797  0.3840 -0.1087  1.3412
 2046TIP3    H230334   1.976   3.166  11.758  0.9634 -0.1664 -0.9572
 2047TIP3   OH230335   0.460   1.028  10.854  0.1195  0.4281  0.3850
 2047TIP3    H130336   0.414   1.110  10.836 -1.3488 -0.2951  0.7040
 2047TIP3    H230337   0.552   1.054  10.864 -0.2079  1.9252 -0.2160
 2048TIP3   OH230338   1.236   3.486  10.281 -0.1390  0.5251  0.1977
 2048TIP3    H130339   1.257   3.465  10.190  1.0069  1.4015  0.2281
 2048TIP3    H230340   1.183   3.412  10.311 -1.9550  0.9715 -1.6389
 2049TIP3   OH230341   3.954   2.046  12.107  0.1653  0.0605 -1.2293
 2049TIP3    H130342   3.955   1.967  12.161 -0.3899  0.0309 -1.2575
 2049TIP3    H230343   3.862   2.072  12.104  0.4243  1.0802 -0.6788
 2050TIP3   OH230344   2.051   3.140   8.373  0.2190 -0.3039 -0.4217
 2050TIP3    H130345   2.028   3.226   8.338  0.7437 -0.1584 -0.4096
 2050TIP3    H230346   2.054   3.082   8.297  2.0485  0.1559 -0.7320
 2051TIP3   OH230347   0.098   3.770  12.301  0.0415  0.6525  0.3876
 2051TIP3    H130348   0.181   3.784  12.255  0.2157  1.9363  1.0524
 2051TIP3    H230349   0.105   3.681  12.336  1.3248  0.8998  0.8067
 2052TIP3   OH230350   1.588   0.575  11.573 -0.1841 -0.1625  0.7751
 2052TIP3    H130351   1.502   0.534  11.566  0.5812 -1.6290 -0.8123
 2052TIP3    H230352   1.573   0.655  11.622 -2.3516 -0.6558  0.9973
 2053TIP3   OH230353   2.888   1.439  11.405 -0.2380 -0.2733  0.3834
 2053TIP3    H130354   2.839   1.390  11.472 -1.5505  1.7751  1.0250
 2053TIP3    H230355   2.824   1.501  11.370  0.7507 -0.5077 -1.9997
 2054TIP3   OH230356   0.223   4.905  12.099 -0.0004  0.1245  0.1821
 2054TIP3    H130357   0.238   4.892  12.005  0.4937 -1.0255  0.4094
 2054TIP3    H230358   0.271   4.985  12.120  0.2955  0.1133 -0.4415
 2055TIP3   OH230359   2.786   1.010   9.928  0.3834 -0.0677 -0.1259
 2055TIP3    H130360   2.820   1.033   9.842  0.1426  2.9037  0.4627
 2055TIP3    H230361   2.863   1.012   9.985  0.0188  2.1844  0.3964
 2056TIP3   OH230362   1.147   0.828  11.345 -0.2084  0.3975 -0.6583
 2056TIP3    H130363   1.157   0.922  11.358 -1.0391  0.3770  0.1512
 2056TIP3    H230364   1.054   0.811  11.356 -0.0485 -0.5444 -0.6507
 2057TIP3   OH230365   0.013   4.998  11.605 -0.0095 -0.4094 -0.3505
 2057TIP3    H130366  -0.042   4.989  11.527  0.1288  0.1382 -0.5162
 2057TIP3    H230367  -0.044   4.970  11.677 -0.4144 -0.1342 -0.5538
 2058TIP3   OH230368   5.022   2.980  10.636  0.2010  0.0404  0.0725
 2058TIP3    H130369   5.055   2.976  10.546  1.9949  0.5746  0.6509
 2058TIP3    H230370   4.958   3.050  10.635  0.0701 -0.0721 -0.8161
 2059TIP3   OH230371   3.098   3.741  10.031 -0.1286 -0.5041  0.0314
 2059TIP3    H130372   3.148   3.671   9.990  1.1264 -0.3360  1.2154
 2059TIP3    H230373   3.155   3.818  10.027 -1.1346  0.2546 -0.4620
 2060TIP3   OH230374   5.297   3.521   9.323 -0.1520 -0.0523  0.5184
 2060TIP3    H130375   5.246   3.477   9.255  0.0905  1.2902 -0.5659
 2060TIP3    H230376   5.381   3.540   9.282 -0.0592  0.9163  1.1404
 2061TIP3   OH230377   0.037   4.384  10.118 -0.1064  0.3662  0.2207
 2061TIP3    H130378  -0.023   4.422  10.054  0.0831 -1.1249 -0.8895
 2061TIP3    H230379   0.089   4.321  10.069 -0.6631 -1.6177  2.0012
 2062TIP3   OH230380   3.939   6.290  11.216  0.1911 -0.0664  0.3636
 2062TIP3    H130381   3.882   6.220  11.184  0.7991  0.1932 -1.3915
 2062TIP3    H230382   3.958   6.265  11.306  1.2043 -2.7599 -0.4825
 2063TIP3   OH230383   2.530   5.276  11.429 -0.2999  0.2272 -0.5351
 2063TIP3    H130384   2.471   5.341  11.466  0.0131  1.1356 -1.5639
 2063TIP3    H230385   2.504   5.193  11.469 -1.2797  0.8485  0.1405
 2064TIP3   OH230386   1.427   5.119  10.749 -0.5993 -0.3307 -0.0454
 2064TIP3    H130387   1.476   5.183  10.696  0.2183  0.8656  2.0580
 2064TIP3    H230388   1.379   5.172  10.812  0.9557 -1.7321  2.5024
 2065TIP3   OH230389   1.782   5.446  11.301  0.5011 -0.4980  0.1361
 2065TIP3    H130390   1.865   5.400  11.286  0.1137 -1.9602  1.9868
 2065TIP3    H230391   1.738   5.394  11.369 -1.3154  1.0192  0.2136
 2066TIP3   OH230392   2.687   4.945  12.279  0.8234 -0.1341 -0.1290
 2066TIP3    H130393   2.708   4.936  12.186 -0.4997 -0.2784 -0.4379
 2066TIP3    H230394   2.674   4.855  12.310 -0.2489 -0.0223 -0.2011
 2067TIP3   OH230395   5.851   4.202  12.182  0.3255 -0.3063  0.3416
 2067TIP3    H130396   5.920   4.186  12.245  0.7242  0.3535  0.0820
 2067TIP3    H230397   5.813   4.287  12.208 -0.2705 -0.5758  0.3800
 2068TIP3   OH230398   0.434   3.717   9.906 -0.7908  0.0958 -0.1035
 2068TIP3    H130399   0.446   3.634   9.952 -3.0449  0.1636  0.7515
 2068TIP3    H230400   0.447   3.783   9.974 -0.3069  0.3877 -0.4796
 2069TIP3   OH230401   0.623   0.635  10.922 -0.1199  0.0177  0.3890
 2069TIP3    H130402   0.541   0.600  10.886 -1.2192  1.4490  1.4163
 2069TIP3    H230403   0.647   0.572  10.990 -0.7517 -0.0526  0.5584
 2070TIP3   OH230404   1.426   5.005  11.605  0.1962  0.0761  0.8096
 2070TIP3    H130405   1.477   5.011  11.524 -1.2736 -0.0345 -0.1656
 2070TIP3    H230406   1.434   5.092  11.645  2.2185 -0.3431  1.3768
 2071TIP3   OH230407   5.894   0.252  10.998  0.4002  0.3197 -0.0584
 2071TIP3    H130408   5.941   0.169  10.995  0.0411  0.1073  0.1220
 2071TIP3    H230409   5.802   0.227  10.998  0.2916  0.6830  0.8692
 2072TIP3   OH230410   3.484   0.767  11.339 -0.5491  0.7424 -0.6262
 2072TIP3    H130411   3.518   0.811  11.417 -0.4004 -2.4382  1.2844
 2072TIP3    H230412   3.550   0.785  11.272 -0.0552  2.5924  0.2737
 2073TIP3   OH230413   4.110   3.641   9.527 -0.2492 -0.1687  0.1871
 2073TIP3    H130414   4.031   3.695   9.521 -0.5167 -0.4541  1.0388
 2073TIP3    H230415   4.078   3.555   9.554  0.4099 -0.0864  1.2941
 2074TIP3   OH230416   0.135   2.712  10.191  0.7234  0.2404  0.7724
 2074TIP3    H130417   0.228   2.701  10.213  1.6007  1.0229 -2.1669
 2074TIP3    H230418   0.106   2.783  10.248  1.9325  0.0909  1.6337
 2075TIP3   OH230419   1.587   5.492  12.122 -0.3257  0.9692 -0.5436
 2075TIP3    H130420   1.612   5.523  12.035  0.4546  0.0967 -0.6419
 2075TIP3    H230421   1.598   5.397  12.117 -1.2164  0.8152  0.2146
 2076TIP3   OH230422   3.319   2.260   9.896  0.4411 -0.4397 -0.8956
 2076TIP3    H130423   3.313   2.348   9.934  2.1685  0.7395 -3.0814
 2076TIP3    H230424   3.344   2.204   9.969  1.3135  1.2644  0.1822
 2077TIP3   OH230425   1.921   3.897  11.305 -0.4463 -0.0514 -0.5340
 2077TIP3    H130426   1.902   3.857  11.390  1.1285 -0.2479 -0.2482
 2077TIP3    H230427   1.842   3.883  11.254 -1.3096 -0.1997  0.7981
 2078TIP3   OH230428   2.498   4.468   9.163  0.7179 -0.0604  0.0345
 2078TIP3    H130429   2.496   4.522   9.085 -1.0589 -2.0091 -1.3716
 2078TIP3    H230430   2.418   4.490   9.210 -0.2218 -1.6288 -0.7457
 2079TIP3   OH230431   4.378   1.548  10.520 -0.1701 -0.2490 -0.0155
 2079TIP3    H130432   4.350   1.522  10.433 -1.8837 -0.3222  0.5146
 2079TIP3    H230433   4.347   1.638  10.529 -0.2046 -0.3157  0.5928
 2080TIP3   OH230434   3.774   5.496  11.466 -0.1045  0.1749 -0.2576
 2080TIP3    H130435   3.799   5.480  11.375  0.9509  0.2201  0.0082
 2080TIP3    H230436   3.764   5.591  11.472  1.9328  0.4185  0.1477
 2081TIP3   OH230437   0.175   3.566   8.851 -0.1416 -0.0477  0.6164
 2081TIP3    H130438   0.173   3.539   8.759 -1.9219  3.3678 -0.5082
 2081TIP3    H230439   0.100   3.522   8.891 -0.2058 -0.4072  0.1105
 2082TIP3   OH230440   5.088   1.156   9.882 -0.6441 -0.3999 -0.9357
 2082TIP3    H130441   5.109   1.247   9.862  1.5104 -0.5085  0.4954
 2082TIP3    H230442   5.026   1.160   9.955  1.4111  0.0027  0.8898
 2083TIP3   OH230443   4.509   1.797   9.538  0.1525 -0.7899  0.3142
 2083TIP3    H130444   4.457   1.735   9.589 -2.3445 -0.4627 -1.6475
 2083TIP3    H230445   4.571   1.742   9.490 -3.0407 -2.1929 -2.6183
 2084TIP3   OH230446   1.723   1.585  11.789 -0.0823 -0.0068  0.2189
 2084TIP3    H130447   1.629   1.570  11.780 -0.0078 -1.0603  0.9178
 2084TIP3    H230448   1.740   1.572  11.882  1.0819 -2.1485 -0.2138
 2085TIP3   OH230449   3.558   0.979   9.544 -0.2698 -0.2957  0.0289
 2085TIP3    H130450   3.467   0.975   9.514 -0.8259 -0.1214  1.6009
 2085TIP3    H230451   3.560   0.925   9.624  0.2131  2.2418  1.8510
 2086TIP3   OH230452   0.484   5.477   9.990  0.1826  0.1027 -0.3245
 2086TIP3    H130453   0.435   5.482   9.908  0.5181 -0.0596 -0.5354
 2086TIP3    H230454   0.420   5.502  10.057 -0.0928  0.2398 -0.6320
 2087TIP3   OH230455   3.837   6.035  10.899 -0.4681 -0.0268  0.1092
 2087TIP3    H130456   3.888   6.116  10.905  1.2870 -1.0067 -0.6018
 2087TIP3    H230457   3.747   6.061  10.917  0.1182  1.9926  0.3439
 2088TIP3   OH230458   2.285   1.832  10.925 -0.3371 -0.0643  0.0248
 2088TIP3    H130459   2.327   1.822  10.839  0.2098  0.2404  0.2458
 2088TIP3    H230460   2.350   1.880  10.977 -1.3356  1.2331  0.1096
 2089TIP3   OH230461   4.560   1.883   8.546 -0.0054  0.3859  0.0436
 2089TIP3    H130462   4.484   1.826   8.533  0.1347 -0.0509  1.0403
 2089TIP3    H230463   4.633   1.833   8.511  0.1450 -0.1396  1.0843
 2090TIP3   OH230464   6.252   2.250  11.063  0.0326 -0.5134  0.4054
 2090TIP3    H130465   6.268   2.300  11.143  0.1156  0.3919 -0.1589
 2090TIP3    H230466   6.215   2.314  11.002 -0.1005 -1.2051 -0.2567
 2091TIP3   OH230467   6.571   0.633   9.742 -0.2406 -0.9930  0.0248
 2091TIP3    H130468   6.496   0.601   9.792  0.1293 -0.7944  0.7269
 2091TIP3    H230469   6.566   0.586   9.659 -1.4317 -0.6038 -0.1419
 2092TIP3   OH230470   2.737   0.170  12.212  0.1033  0.1097  0.2505
 2092TIP3    H130471   2.665   0.108  12.205  0.9227 -1.0396  1.3940
 2092TIP3    H230472   2.695   0.255  12.222 -1.0514 -0.2920 -0.9062
 2093TIP3   OH230473   1.058   5.219  11.150 -0.1374  0.2894 -0.0078
 2093TIP3    H130474   0.963   5.230  11.142 -0.3930 -1.8391 -0.7219
 2093TIP3    H230475   1.080   5.262  11.232 -2.3382 -1.9640  1.9782
 2094TIP3   OH230476   1.676   3.193   8.673  0.0266 -0.8154 -0.1394
 2094TIP3    H130477   1.636   3.122   8.723 -2.0386  0.0417 -0.4628
 2094TIP3    H230478   1.679   3.161   8.583 -1.9768 -0.1541 -0.4990
 2095TIP3   OH230479   4.943   0.616  10.888 -0.1482  0.5187 -0.3450
 2095TIP3    H130480   4.923   0.522  10.890 -1.2642  0.7479  0.5982
 2095TIP3    H230481   4.910   0.649  10.972 -1.4076  2.0574 -1.3790
 2096TIP3   OH230482   2.141   1.675   9.690 -0.0592  0.1213  0.5216
 2096TIP3    H130483   2.090   1.594   9.696 -0.4775  0.3478  0.0988
 2096TIP3    H230484   2.129   1.718   9.774 -1.8895  0.9502 -0.1299
 2097TIP3   OH230485   6.368   3.607   8.944 -0.0607 -0.2649 -0.0825
 2097TIP3    H130486   6.401   3.571   8.862  0.4932  0.5745 -0.2467
 2097TIP3    H230487   6.334   3.532   8.992  1.3309 -1.0458 -0.2712
 2098TIP3   OH230488   1.242   2.530   9.301  0.2420 -0.0473 -0.4963
 2098TIP3    H130489   1.171   2.466   9.299  0.4352 -0.2456 -1.2797
 2098TIP3    H230490   1.213   2.596   9.365 -0.3038 -0.5122 -0.2557
 2099TIP3   OH230491   3.717   2.598   9.003 -0.1129  0.0476 -0.1658
 2099TIP3    H130492   3.664   2.652   8.945 -0.7598 -0.4035 -0.0130
 2099TIP3    H230493   3.784   2.560   8.946  0.9603  1.7303 -0.1076
 2100TIP3   OH230494   4.275   3.498   9.780  0.2883  0.6523 -0.3556
 2100TIP3    H130495   4.212   3.449   9.728 -0.7552  2.1363 -0.5711
 2100TIP3    H230496   4.351   3.508   9.723  1.1416 -1.8894  0.2101
 2101TIP3   OH230497   2.731   6.346  10.104 -0.1329 -0.8163  0.7541
 2101TIP3    H130498   2.687   6.411  10.050 -1.9447 -1.2727  1.6023
 2101TIP3    H230499   2.758   6.277  10.043  0.8101  0.1779  0.0129
 2102TIP3   OH230500   3.113   6.194  10.479  0.2952  0.1092 -0.2792
 2102TIP3    H130501   3.025   6.230  10.486  1.0711  1.9367  0.9773
 2102TIP3    H230502   3.139   6.211  10.388 -0.1253  0.8951 -0.2611
 2103TIP3   OH230503   1.795   1.452   9.050 -0.0106  0.3380  0.3858
 2103TIP3    H130504   1.765   1.512   8.982 -0.2760  1.0103  1.0752
 2103TIP3    H230505   1.862   1.399   9.008 -1.0039 -0.0844 -0.7358
 2104TIP3   OH230506   0.488   2.088   9.402 -0.1866  0.0959 -0.5984
 2104TIP3    H130507   0.477   2.170   9.451 -1.4794 -0.7884  0.6762
 2104TIP3    H230508   0.567   2.048   9.438  1.2099  1.3105 -2.1119
 2105TIP3   OH230509   2.303   3.200   7.866 -0.2730  0.1793  0.3933
 2105TIP3    H130510   2.395   3.197   7.891 -0.8418 -0.2271  2.6539
 2105TIP3    H230511   2.300   3.155   7.782  1.4289 -0.9039  0.8516
 2106TIP3   OH230512   4.931   4.133  10.026  0.1123 -0.1785 -0.0524
 2106TIP3    H130513   4.896   4.222  10.035  2.5436  0.9636 -0.9422
 2106TIP3    H230514   4.926   4.097  10.114  1.1201  1.6920  0.8263
 2107TIP3   OH230515   6.428   0.280  12.480  0.0917  0.5481  0.3296
 2107TIP3    H130516   6.455   0.371  12.487 -1.3040  1.0833 -0.7551
 2107TIP3    H230517   6.370   0.265  12.555  0.7769  0.3642  0.8314
 2108TIP3   OH230518   0.807   6.456  10.739  0.1499  0.4203 -0.2293
 2108TIP3    H130519   0.777   6.413  10.820 -0.0386  1.0924  0.0626
 2108TIP3    H230520   0.727   6.470  10.689  0.2749 -0.0574 -0.5677
 2109TIP3   OH230521   2.725   2.618  11.988  0.5414 -0.3196  0.2869
 2109TIP3    H130522   2.702   2.558  11.917 -0.5725 -0.5311  0.8050
 2109TIP3    H230523   2.641   2.643  12.026  1.1026  0.0464  1.3210
 2110TIP3   OH230524   1.830   0.573  11.187  0.5092 -0.3879 -0.0775
 2110TIP3    H130525   1.855   0.542  11.274 -1.0502 -3.0601 -0.4833
 2110TIP3    H230526   1.743   0.610  11.198  0.1922 -0.9861 -0.5528
 2111TIP3   OH230527   2.827   0.501  12.355  0.1053  0.2834  0.2751
 2111TIP3    H130528   2.903   0.514  12.297  0.2814  0.8985  0.6334
 2111TIP3    H230529   2.865   0.469  12.437 -0.0959 -0.0907  0.2259
 2112TIP3   OH230530   5.896   4.969  12.207  0.0441 -0.3346 -0.6134
 2112TIP3    H130531   5.853   5.055  12.204 -2.6044 -1.5698 -1.5375
 2112TIP3    H230532   5.848   4.921  12.275  3.0686 -0.3990  1.6439
 2113TIP3   OH230533   2.515   5.689  10.219  0.3325 -0.9118  0.0100
 2113TIP3    H130534   2.598   5.641  10.218  0.7213 -0.4269  2.5760
 2113TIP3    H230535   2.471   5.658  10.298 -0.6261  0.9400  0.2404
 2114TIP3   OH230536   2.871   5.727  12.092 -1.0445 -0.1097 -0.0967
 2114TIP3    H130537   2.959   5.703  12.120 -1.7716  0.4938  3.1104
 2114TIP3    H230538   2.823   5.644  12.092 -0.6369 -0.3669 -1.3784
 2115TIP3   OH230539   3.234   4.930   9.303  0.2927  0.2605 -0.0264
 2115TIP3    H130540   3.286   4.926   9.223  1.4605  2.0601  0.5770
 2115TIP3    H230541   3.170   5.000   9.288  0.7880  0.8953  0.7225
 2116TIP3   OH230542   4.670   3.326   8.547 -0.7603  0.7629  0.0437
 2116TIP3    H130543   4.631   3.259   8.492 -1.0386  0.3702  0.7117
 2116TIP3    H230544   4.617   3.404   8.531 -2.8443 -0.1314  2.0675
 2117TIP3   OH230545   6.483   6.260  10.415  0.3939  0.0688 -0.1387
 2117TIP3    H130546   6.519   6.275  10.502  0.4322  1.4067 -0.3656
 2117TIP3    H230547   6.422   6.332  10.401 -0.2267 -0.5823 -0.9035
 2118TIP3   OH230548   0.042   1.718  10.595  0.6064 -0.1797  0.5291
 2118TIP3    H130549   0.038   1.807  10.561 -0.8002 -0.7439 -0.9453
 2118TIP3    H230550   0.066   1.665  10.519  1.5842 -1.0675  1.4201
 2119TIP3   OH230551   1.007   2.281   9.070 -0.7699 -0.2848 -0.1278
 2119TIP3    H130552   1.032   2.259   9.160  0.3510 -0.6705 -0.5107
 2119TIP3    H230553   1.006   2.197   9.024  0.9230  0.1021 -0.9841
 2120TIP3   OH230554   1.564   0.795  11.728  0.1182 -0.0296  0.4903
 2120TIP3    H130555   1.494   0.861  11.729  0.2235  0.0943  1.9497
 2120TIP3    H230556   1.573   0.768  11.820  2.1285  0.0911  0.3645
 2121TIP3   OH230557   5.805   0.270  11.608  0.2861  0.4704  0.0893
 2121TIP3    H130558   5.723   0.226  11.585 -0.0157  0.6271  0.8592
 2121TIP3    H230559   5.848   0.211  11.670  0.1031  1.0303  0.7550
 2122TIP3   OH230560   4.113   1.297  12.398 -0.6346 -0.6304 -0.1794
 2122TIP3    H130561   4.140   1.269  12.486  1.9869  0.6951 -0.4506
 2122TIP3    H230562   4.120   1.218  12.344  4.0255 -0.3683 -0.3954
 2123TIP3   OH230563   5.022   6.329  10.315  0.3765 -0.2120 -0.0153
 2123TIP3    H130564   4.953   6.371  10.263 -0.3658 -2.4710 -0.9874
 2123TIP3    H230565   4.979   6.305  10.397  0.4237 -0.2477 -0.0006
 2124TIP3   OH230566   0.996   4.743  10.308 -0.1234 -0.2670  0.2864
 2124TIP3    H130567   1.016   4.713  10.397  1.0913  0.4528  0.2774
 2124TIP3    H230568   0.913   4.701  10.287  0.4242 -1.8717  1.1000
 2125TIP3   OH230569   0.010   4.368  11.203  0.1419 -0.7859 -0.2735
 2125TIP3    H130570   0.026   4.310  11.277 -0.7483 -0.8442 -0.1178
 2125TIP3    H230571  -0.040   4.315  11.141  0.1264 -0.4715 -0.5351
 2126TIP3   OH230572   2.648   0.038  11.816  0.1491  0.2474 -0.3493
 2126TIP3    H130573   2.623   0.005  11.903  1.1555  1.2618  0.3490
 2126TIP3    H230574   2.741   0.059  11.824  0.1800  0.6389 -1.5925
 2127TIP3   OH230575   0.144   3.118   9.858 -0.0112  0.4250 -0.2344
 2127TIP3    H130576   0.190   3.063   9.922  0.8948  1.9159  0.4554
 2127TIP3    H230577   0.068   3.151   9.906 -0.9175 -0.7132 -0.8525
 2128TIP3   OH230578   1.905   5.558   9.994  0.0069  0.4774  0.1101
 2128TIP3    H130579   1.890   5.647   9.963 -1.4909  0.2558  0.1415
 2128TIP3    H230580   1.956   5.568  10.074 -0.5960  1.3391  0.3922
 2129TIP3   OH230581   4.048   3.693   9.908  0.0899  0.1150 -0.8815
 2129TIP3    H130582   4.051   3.643   9.990  1.4897  1.5263 -0.0029
 2129TIP3    H230583   4.122   3.661   9.857 -0.4233 -0.3432 -1.3478
 2130TIP3   OH230584   3.551   1.916  11.912  0.2351 -0.2321  0.1748
 2130TIP3    H130585   3.616   1.853  11.879  2.0488  0.7087  1.7464
 2130TIP3    H230586   3.474   1.863  11.931  0.9067 -1.5951 -0.7250
 2131TIP3   OH230587   4.553   2.586  11.852  0.1037 -0.3494  0.3108
 2131TIP3    H130588   4.516   2.671  11.828  0.4250 -0.5889 -1.1242
 2131TIP3    H230589   4.490   2.522  11.818 -0.7091 -0.7213  2.3400
 2132TIP3   OH230590   2.837   5.960   9.523  0.2105  0.0368  0.5177
 2132TIP3    H130591   2.884   5.954   9.440  0.5453 -0.7762  0.7618
 2132TIP3    H230592   2.746   5.972   9.498  0.4465  0.9386  0.0404
 2133TIP3   OH230593   6.103   0.235   9.394 -0.6320 -0.2598  0.0142
 2133TIP3    H130594   6.154   0.309   9.428 -0.9733  0.9649 -1.9189
 2133TIP3    H230595   6.021   0.275   9.365 -0.9628 -1.4662 -0.7670
 2134TIP3   OH230596   4.693   5.297  11.780  0.2535  0.0142 -0.2193
 2134TIP3    H130597   4.613   5.252  11.751  0.4118  0.3607 -1.2384
 2134TIP3    H230598   4.764   5.243  11.746  0.4535  1.2698 -1.9440
 2135TIP3   OH230599   6.250   2.777   8.363 -0.2881  0.0104  0.7185
 2135TIP3    H130600   6.319   2.716   8.336 -0.2599  0.6620 -0.7560
 2135TIP3    H230601   6.176   2.720   8.384 -0.1345 -0.5624 -0.2317
 2136TIP3   OH230602   1.108   5.749  11.777 -0.0490  0.6044 -0.0467
 2136TIP3    H130603   1.186   5.804  11.783 -0.3158  1.2258 -1.6651
 2136TIP3    H230604   1.058   5.786  11.704 -1.6885 -0.0078  0.7132
 2137TIP3   OH230605   0.728   1.363  11.562  0.6040  0.0859 -0.3642
 2137TIP3    H130606   0.707   1.450  11.596  3.0514  0.7216 -0.3084
 2137TIP3    H230607   0.701   1.365  11.470 -0.7240  0.3558  0.0157
 2138TIP3   OH230608   4.669   1.174  11.242 -0.1425 -0.3660 -0.2326
 2138TIP3    H130609   4.607   1.248  11.237 -0.2394 -0.2578  1.8338
 2138TIP3    H230610   4.639   1.122  11.316  1.6735 -0.8669  0.1994
 2139TIP3   OH230611   0.220   5.217  10.133  0.1655 -0.0768 -0.7498
 2139TIP3    H130612   0.235   5.154  10.203 -0.5498 -1.5321 -1.8530
 2139TIP3    H230613   0.306   5.252  10.112  0.6947 -1.2803 -0.6376
 2140TIP3   OH230614   6.382   6.006  11.372 -0.0322 -0.0095  0.8169
 2140TIP3    H130615   6.442   5.935  11.393 -0.9222 -0.7528  0.9111
 2140TIP3    H230616   6.345   5.983  11.287 -0.6307  0.1166  1.0304
 2141TIP3   OH230617   2.982   2.549  11.743  0.5304  0.3797 -0.3567
 2141TIP3    H130618   2.986   2.508  11.657 -4.4420  0.2210 -0.8354
 2141TIP3    H230619   2.965   2.476  11.803 -1.0383  0.8769 -0.1279
 2142TIP3   OH230620   1.882   5.344  10.381 -0.5320 -0.1109  0.2974
 2142TIP3    H130621   1.859   5.289  10.306 -2.0377  2.6934 -1.5048
 2142TIP3    H230622   1.962   5.389  10.354 -1.4126  1.3649  0.0196
 2143TIP3   OH230623   6.551   0.569   9.048 -0.1199 -0.5319 -0.4077
 2143TIP3    H130624   6.614   0.547   9.117  1.1975 -2.0108 -1.9579
 2143TIP3    H230625   6.486   0.499   9.051 -0.6459 -0.0334 -0.0178
 2144TIP3   OH230626   3.071   2.198   9.785 -0.6973  0.7233  0.5375
 2144TIP3    H130627   3.160   2.196   9.820 -0.9772 -0.8815  1.2564
 2144TIP3    H230628   3.082   2.225   9.694  0.7259 -1.0259  0.1417
 2145TIP3   OH230629   3.683   5.239  12.555 -0.1698  0.5125 -0.0807
 2145TIP3    H130630   3.588   5.247  12.562  0.0094  1.8565  1.0624
 2145TIP3    H230631   3.716   5.327  12.569  1.3672 -0.2820  1.7600
 2146TIP3   OH230632   2.694   5.687  12.469 -0.3278  0.1152  0.5306
 2146TIP3    H130633   2.706   5.780  12.485 -0.2684  0.7021 -2.3438
 2146TIP3    H230634   2.617   5.683  12.412 -0.1013 -1.5526  0.2993
 2147TIP3   OH230635   1.787   3.140   9.376 -0.0488 -0.1191  0.0585
 2147TIP3    H130636   1.814   3.207   9.313  0.8955  0.6998  1.2964
 2147TIP3    H230637   1.692   3.137   9.368 -0.0727  1.0480 -0.3579
 2148TIP3   OH230638   2.071   2.305  10.626  0.0388 -0.2197  0.5124
 2148TIP3    H130639   2.162   2.298  10.596 -0.0244  1.4094 -0.1725
 2148TIP3    H230640   2.070   2.384  10.681 -0.7194 -0.9034  1.5100
 2149TIP3   OH230641   0.013   2.065   9.300 -0.4618 -0.0344  0.0134
 2149TIP3    H130642   0.054   2.124   9.364 -0.3640 -1.5999  1.4790
 2149TIP3    H230643   0.085   2.039   9.242 -0.0299 -0.3975  0.7042
 2150TIP3   OH230644   0.778   2.717  10.056 -0.4217  0.2764  0.1077
 2150TIP3    H130645   0.772   2.801  10.009 -0.2666 -0.8331 -2.0040
 2150TIP3    H230646   0.770   2.651   9.987  2.2014 -1.4775  1.3428
 2151TIP3   OH230647   6.311   0.653  11.922  0.0236  0.0646  0.0553
 2151TIP3    H130648   6.217   0.668  11.930 -0.2118 -0.8789 -0.7542
 2151TIP3    H230649   6.331   0.588  11.989  0.2669  0.8475  0.7648
 2152TIP3   OH230650   6.179   2.747   9.607  0.5893  0.1327  0.2632
 2152TIP3    H130651   6.094   2.744   9.651  1.1486  0.3402  1.3906
 2152TIP3    H230652   6.240   2.707   9.670  1.4939  0.8536 -0.1347
 2153TIP3   OH230653   5.644   2.949  11.873 -0.7163  0.0683 -0.2415
 2153TIP3    H130654   5.708   2.965  11.803 -2.5514 -1.2092 -2.3407
 2153TIP3    H230655   5.684   2.988  11.951  1.2280  2.0085 -2.0598
 2154TIP3   OH230656   6.283   5.478  10.773 -0.0517  0.0013 -1.2311
 2154TIP3    H130657   6.230   5.406  10.740 -1.4186  0.3980 -0.0074
 2154TIP3    H230658   6.373   5.445  10.772 -0.6060 -1.5536 -1.1244
 2155TIP3   OH230659   5.453   0.712  12.584  0.1342  0.1389 -0.1031
 2155TIP3    H130660   5.406   0.628  12.583 -1.4940  1.0039 -0.7810
 2155TIP3    H230661   5.509   0.710  12.507 -0.5766  0.0233 -0.6254
 2156TIP3   OH230662   1.995   0.777  11.481  0.4671  0.2873  0.5916
 2156TIP3    H130663   1.973   0.718  11.552 -0.0126 -0.6049 -0.2764
 2156TIP3    H230664   1.920   0.838  11.476 -0.9560 -1.4748 -1.0245
 2157TIP3   OH230665   3.724   3.399  12.336 -0.5103  0.3588 -0.3558
 2157TIP3    H130666   3.753   3.488  12.314 -0.6033  0.0794 -1.6443
 2157TIP3    H230667   3.722   3.399  12.432 -0.3593  1.6965 -0.3238
 2158TIP3   OH230668   4.431   5.938   9.493  0.0203  0.3286  0.4080
 2158TIP3    H130669   4.493   5.985   9.438 -0.6675  0.9169  0.1161
 2158TIP3    H230670   4.375   5.891   9.432 -0.7332  0.9624  0.5842
 2159TIP3   OH230671   6.040   5.398   9.546 -0.2531  0.2094  0.5084
 2159TIP3    H130672   6.117   5.384   9.490 -1.4784 -2.2479 -0.7457
 2159TIP3    H230673   5.971   5.425   9.485 -1.0146 -0.1405  1.2072
 2160TIP3   OH230674   6.042   2.792  11.450  0.0308  0.4558 -0.1500
 2160TIP3    H130675   6.106   2.757  11.512 -0.5427 -0.0918  0.1417
 2160TIP3    H230676   6.054   2.887  11.455 -0.1473  0.4353  0.9510
 2161TIP3   OH230677   4.212   5.596   9.913 -0.5885 -0.1139 -0.6332
 2161TIP3    H130678   4.151   5.523   9.905  0.1056 -0.9003  0.7755
 2161TIP3    H230679   4.280   5.564   9.972  0.4723  1.2084 -1.0715
 2162TIP3   OH230680   0.314   0.387  11.287  0.1642  0.6886  0.6302
 2162TIP3    H130681   0.405   0.416  11.284  0.4231 -0.1379 -0.2312
 2162TIP3    H230682   0.314   0.315  11.351  0.3469  0.0097 -0.1108
 2163TIP3   OH230683   6.346   6.156   9.772 -0.2361 -0.0903  0.1219
 2163TIP3    H130684   6.307   6.211   9.840 -0.5186  1.0902 -0.9658
 2163TIP3    H230685   6.329   6.203   9.691  3.5545  0.6047 -0.4522
 2164TIP3   OH230686   3.656   1.560  10.230  0.1998  0.3939  0.4190
 2164TIP3    H130687   3.729   1.571  10.291 -0.2325  1.9419  0.7204
 2164TIP3    H230688   3.583   1.531  10.284  0.5411 -1.0419  0.1360
 2165TIP3   OH230689   3.375   4.315  11.826  0.4522 -0.0889 -0.5113
 2165TIP3    H130690   3.299   4.358  11.867  0.9736  0.6428 -0.2991
 2165TIP3    H230691   3.366   4.223  11.852 -1.3804 -0.3950 -2.0313
 2166TIP3   OH230692   3.558   3.088   9.382  0.2705 -0.4104 -0.4200
 2166TIP3    H130693   3.611   3.132   9.449  0.6163  0.5115 -1.2737
 2166TIP3    H230694   3.538   3.002   9.420  0.8632 -0.0908  0.6607
 2167TIP3   OH230695   5.301   5.348  11.098  0.3716 -0.1039 -0.3197
 2167TIP3    H130696   5.244   5.286  11.145 -0.4079  1.1799  0.4742
 2167TIP3    H230697   5.345   5.397  11.166  0.3818  0.7683 -0.9413
 2168TIP3   OH230698   3.314   3.697  11.485  0.0644 -0.5919  0.2235
 2168TIP3    H130699   3.371   3.637  11.532 -0.9019 -0.8423  1.1241
 2168TIP3    H230700   3.291   3.652  11.404 -1.3695 -1.8796  1.2859
 2169TIP3   OH230701   3.155   5.444   8.703  0.5254 -0.0105 -0.1993
 2169TIP3    H130702   3.066   5.471   8.723  0.0827 -0.7381 -1.1188
 2169TIP3    H230703   3.197   5.524   8.671 -0.0029  0.1822 -0.4294
 2170TIP3   OH230704   4.032   1.983   9.240 -0.0954  0.2240 -0.1209
 2170TIP3    H130705   4.037   1.981   9.336  1.6204 -0.8759 -0.1853
 2170TIP3    H230706   4.059   1.896   9.213 -1.3762  0.2461 -1.6209
 2171TIP3   OH230707   3.208   2.783  10.007 -0.0098 -0.0941  0.2441
 2171TIP3    H130708   3.159   2.809   9.929 -0.3182 -1.2953  0.0208
 2171TIP3    H230709   3.145   2.792  10.078  0.0104  0.1572  0.2324
 2172TIP3   OH230710   0.997   5.020  11.755  0.2804 -0.6478  0.6338
 2172TIP3    H130711   1.036   5.036  11.669 -0.4373 -0.5934  0.3145
 2172TIP3    H230712   0.950   5.100  11.775  1.0734 -0.3712  1.4276
 2173TIP3   OH230713   1.889   2.404  12.642  0.2583  0.2776  0.0032
 2173TIP3    H130714   1.828   2.444  12.580  1.2722 -0.4632 -1.5376
 2173TIP3    H230715   1.836   2.385  12.719 -1.3088  0.2003 -1.0508
 2174TIP3   OH230716   3.613   0.448  10.463 -0.0678 -0.0124  0.6238
 2174TIP3    H130717   3.628   0.535  10.426 -2.4114 -0.0766 -0.6043
 2174TIP3    H230718   3.694   0.400  10.445  0.2613  1.1120 -1.0931
 2175TIP3   OH230719   6.133   6.124  11.725 -0.0940  0.7145  0.5873
 2175TIP3    H130720   6.132   6.210  11.684  1.5353  0.3417 -0.3094
 2175TIP3    H230721   6.136   6.062  11.652  0.9906 -0.0058  1.2022
 2176TIP3   OH230722   6.028   2.166  11.550  0.9015 -0.1541  0.3444
 2176TIP3    H130723   6.113   2.141  11.514  1.1478  0.9986  0.0895
 2176TIP3    H230724   6.000   2.090  11.601  1.5086 -1.0087 -0.5798
 2177TIP3   OH230725   1.266   0.317  10.068 -0.6282 -0.1427  0.1813
 2177TIP3    H130726   1.184   0.357  10.037 -1.0656 -0.3835  1.0102
 2177TIP3    H230727   1.335   0.369  10.027 -1.1936  0.5588  0.1086
 2178TIP3   OH230728   3.131   6.392  11.598  0.2659 -0.2988  0.2962
 2178TIP3    H130729   3.045   6.359  11.622 -0.3450  1.0342  0.0431
 2178TIP3    H230730   3.117   6.437  11.515  1.4191 -0.9188 -0.2630
 2179TIP3   OH230731   0.856   4.890  11.434  0.2854 -0.2733 -0.0524
 2179TIP3    H130732   0.889   4.838  11.507  1.1681  0.4186  0.0628
 2179TIP3    H230733   0.861   4.980  11.465 -1.5945 -0.1098 -0.0998
 2180TIP3   OH230734   0.734   3.791   9.838 -0.0956  0.4675 -0.0021
 2180TIP3    H130735   0.691   3.710   9.865 -0.5206  0.6193 -0.2147
 2180TIP3    H230736   0.809   3.800   9.897 -0.3952  0.2361  0.4114
 2181TIP3   OH230737   4.349   4.449  11.139  0.0454  0.0521  0.6323
 2181TIP3    H130738   4.285   4.520  11.135  0.3421  0.2782 -1.1427
 2181TIP3    H230739   4.420   4.479  11.082 -0.3786 -2.1647 -1.2128
 2182TIP3   OH230740   2.256   4.947  12.347 -0.5796  0.1060  1.0866
 2182TIP3    H130741   2.308   4.876  12.385  0.1330  0.0515  0.0312
 2182TIP3    H230742   2.168   4.934  12.384 -0.1518 -0.5489  1.9046
 2183TIP3   OH230743   0.703   1.216   8.790  0.3340 -0.0654 -0.3147
 2183TIP3    H130744   0.761   1.259   8.727  0.2597 -0.4836 -0.6720
 2183TIP3    H230745   0.761   1.188   8.861  0.4678  0.1113 -0.3526
 2184TIP3   OH230746   0.507   3.479  11.307  0.3179  0.1701  0.0556
 2184TIP3    H130747   0.447   3.468  11.233  0.9467 -2.3605 -0.1779
 2184TIP3    H230748   0.452   3.516  11.376 -1.2774 -1.0815 -0.4674
 2185TIP3   OH230749   0.793   2.382  11.786 -0.0949 -0.4691  0.2221
 2185TIP3    H130750   0.770   2.471  11.815 -0.7872 -0.6415  0.2378
 2185TIP3    H230751   0.713   2.331  11.801 -0.6244 -0.4973 -2.2663
 2186TIP3   OH230752   1.035   6.424  11.774  0.1691  0.5834  0.0983
 2186TIP3    H130753   1.083   6.504  11.798  0.4494  0.7699 -1.0053
 2186TIP3    H230754   0.955   6.456  11.733 -0.3252  0.2776  0.8153
 2187TIP3   OH230755   6.226   0.543  12.747 -0.4818 -0.7143 -0.1091
 2187TIP3    H130756   6.252   0.502  12.829 -0.1702  0.0986  0.2081
 2187TIP3    H230757   6.137   0.574  12.762 -0.1365  0.1607  0.2164
 2188TIP3   OH230758   2.317   1.180  10.833  0.4375  0.6779 -0.7941
 2188TIP3    H130759   2.349   1.090  10.828  0.5623  0.6560  0.0709
 2188TIP3    H230760   2.364   1.227  10.764  1.5327  0.3989 -0.2689
 2189TIP3   OH230761   4.196   1.069   9.797 -0.2507 -0.1114 -0.5031
 2189TIP3    H130762   4.106   1.037   9.800 -0.6414  1.0580  0.5426
 2189TIP3    H230763   4.249   0.989   9.790 -1.3063 -0.8787  0.0306
 2190TIP3   OH230764   0.815   6.172  10.645  0.1323  0.2754 -0.8258
 2190TIP3    H130765   0.819   6.267  10.657  0.3314  0.1124  0.5177
 2190TIP3    H230766   0.887   6.138  10.698  0.7470 -0.5625 -2.1541
 2191TIP3   OH230767   1.822   2.995  11.387  0.3773  0.0679  0.3273
 2191TIP3    H130768   1.802   2.920  11.332  2.1413 -0.4643  0.3585
 2191TIP3    H230769   1.824   3.069  11.327 -0.4064 -0.0470  0.1452
 2192TIP3   OH230770   2.453   0.569  10.714  0.1866  0.0621  0.6751
 2192TIP3    H130771   2.395   0.527  10.650  0.6397  0.3966  0.0333
 2192TIP3    H230772   2.507   0.628  10.662 -0.6883  1.7673  1.5768
 2193TIP3   OH230773   4.122   0.320   9.533 -0.1947 -0.6010  0.0447
 2193TIP3    H130774   4.073   0.279   9.604 -1.8985  1.5288  0.1992
 2193TIP3    H230775   4.090   0.276   9.454 -2.3193  0.5809  0.1620
 2194TIP3   OH230776   5.978   0.563  11.438 -0.5204  0.0036  0.5168
 2194TIP3    H130777   5.994   0.562  11.533  1.2782 -0.1022  0.2472
 2194TIP3    H230778   5.962   0.471  11.416  2.1102 -0.4907  0.3133
 2195TIP3   OH230779   5.099   3.663  10.712 -0.1050  0.0327 -0.9524
 2195TIP3    H130780   5.064   3.574  10.710 -1.3116  0.4438  0.0709
 2195TIP3    H230781   5.116   3.684  10.620 -1.2890 -0.7080 -1.3688
 2196TIP3   OH230782   4.019   5.336   8.831  0.6924  0.3701 -0.3610
 2196TIP3    H130783   4.045   5.407   8.889  1.1947  1.2736 -1.6503
 2196TIP3    H230784   3.945   5.294   8.875  0.2990  1.7824  0.3562
 2197TIP3   OH230785   5.830   6.358  12.608  0.2238  0.0782 -0.4802
 2197TIP3    H130786   5.736   6.350  12.622  0.0891 -1.2439 -1.8825
 2197TIP3    H230787   5.839   6.372  12.513  1.4451 -0.0421 -0.3968
 2198TIP3   OH230788   6.353   1.851  10.645  0.2356 -0.0626 -0.6243
 2198TIP3    H130789   6.359   1.915  10.716 -2.6404  0.2156 -0.5166
 2198TIP3    H230790   6.442   1.816  10.636  1.0389  1.0973  1.9652
 2199TIP3   OH230791   6.224   0.145  12.326 -0.5641  0.0141 -0.0380
 2199TIP3    H130792   6.142   0.094  12.327 -2.5141  2.9126  0.4887
 2199TIP3    H230793   6.246   0.154  12.419 -1.5469  1.9432  0.0524
 2200TIP3   OH230794   4.743   3.512   8.983 -0.1914 -0.8256 -1.0535
 2200TIP3    H130795   4.702   3.595   8.959 -0.8778 -1.0770 -0.7787
 2200TIP3    H230796   4.720   3.452   8.912 -1.0285 -1.1927 -0.4835
 2201TIP3   OH230797   0.253   1.560  10.469 -0.0546  0.2828 -0.0856
 2201TIP3    H130798   0.317   1.493  10.443  0.2564  0.6972 -0.3933
 2201TIP3    H230799   0.195   1.569  10.394  0.0203  0.4999 -0.1175
 2202TIP3   OH230800   5.462   6.472   9.456  1.1968 -0.0701 -0.3498
 2202TIP3    H130801   5.402   6.518   9.515  1.0035 -1.1785  0.3451
 2202TIP3    H230802   5.521   6.540   9.423 -0.4966  1.0874 -1.1413
 2203TIP3   OH230803   3.860   4.309  12.070 -0.5938  0.5176  0.2417
 2203TIP3    H130804   3.827   4.399  12.062 -0.4225  0.4651 -1.3691
 2203TIP3    H230805   3.944   4.310  12.025 -0.2383 -0.2845  0.8687
 2204TIP3   OH230806   1.156   0.214  12.409  0.3534  0.3906 -0.3400
 2204TIP3    H130807   1.163   0.120  12.392 -2.3215  0.1905 -0.7378
 2204TIP3    H230808   1.217   0.230  12.481 -0.0117 -1.8860  0.5513
 2205TIP3   OH230809   3.134   5.372   9.567 -0.1377  0.6012  0.5502
 2205TIP3    H130810   3.170   5.289   9.533 -2.4508 -0.3377  0.2317
 2205TIP3    H230811   3.182   5.387   9.648 -0.5820 -1.7977  1.3287
 2206TIP3   OH230812   1.839   5.406  12.224 -0.3325  0.1244 -0.4618
 2206TIP3    H130813   1.823   5.499  12.205  1.5450  0.2849 -1.5066
 2206TIP3    H230814   1.778   5.385  12.295 -1.0169  2.0667 -0.4181
 2207TIP3   OH230815   5.871   3.125  11.327 -0.2781  0.0092  0.2826
 2207TIP3    H130816   5.911   3.168  11.402 -0.3687 -2.7012  1.9854
 2207TIP3    H230817   5.809   3.063  11.364 -0.6399 -1.1489 -2.0558
 2208TIP3   OH230818   2.174   5.423  10.346  0.0989 -0.5441  0.1447
 2208TIP3    H130819   2.187   5.484  10.274  2.3202  1.3823  1.9991
 2208TIP3    H230820   2.259   5.378  10.355  0.0492 -0.3845  1.7865
 2209TIP3   OH230821   3.490   3.095  10.129  0.4119 -0.4028  0.5072
 2209TIP3    H130822   3.486   3.088  10.034 -0.8957  0.6074  0.4632
 2209TIP3    H230823   3.471   3.187  10.147 -0.8521 -0.8909  1.8035
 2210TIP3   OH230824   2.229   0.529   9.330 -0.7757  0.0949 -0.3980
 2210TIP3    H130825   2.176   0.450   9.331  1.1990 -1.3105  1.0152
 2210TIP3    H230826   2.208   0.573   9.413  0.6539 -0.8017  0.4773
 2211TIP3   OH230827   2.027   0.756  11.196 -0.0858 -0.2378  0.2508
 2211TIP3    H130828   1.985   0.807  11.266 -0.6424 -1.6418  0.9690
 2211TIP3    H230829   1.956   0.706  11.157  0.5470 -0.9271 -0.0438
 2212TIP3   OH230830   2.523   1.376  12.496 -0.3638  0.9633 -0.1681
 2212TIP3    H130831   2.584   1.446  12.516 -1.9926  1.8466  2.1426
 2212TIP3    H230832   2.441   1.402  12.539 -1.3791 -1.7819 -0.2047
 2213TIP3   OH230833   3.326   0.544  11.293 -0.0329  0.0825 -0.5768
 2213TIP3    H130834   3.386   0.470  11.294 -0.6067 -0.4020 -1.0767
 2213TIP3    H230835   3.382   0.621  11.286  0.4797 -0.4314 -2.7267
 2214TIP3   OH230836   3.283   4.566  11.047  0.0462  0.2609 -0.0320
 2214TIP3    H130837   3.331   4.574  10.965  0.9105  0.0773  0.4446
 2214TIP3    H230838   3.345   4.525  11.108 -1.6109 -2.6223 -0.1604
 2215TIP3   OH230839   6.048   5.022  10.540  0.1032  0.0159 -0.2409
 2215TIP3    H130840   6.063   4.956  10.472 -1.4679 -0.0278 -0.5987
 2215TIP3    H230841   6.029   4.972  10.619  0.4996  0.0553 -0.1205
 2216TIP3   OH230842   2.063   4.220   9.417  0.5309 -0.4711 -0.1863
 2216TIP3    H130843   1.999   4.285   9.446 -1.6220 -2.0946 -1.0518
 2216TIP3    H230844   2.106   4.261   9.342  0.0349  0.3920 -0.0124
 2217TIP3   OH230845   0.827   5.997  11.018 -0.1682  0.3029 -0.1631
 2217TIP3    H130846   0.879   6.032  11.091  1.2871  1.2014 -1.5695
 2217TIP3    H230847   0.739   6.030  11.035 -1.0548 -3.1463  3.5319
 2218TIP3   OH230848   5.279   3.654  10.231  0.5357 -0.3414 -0.4670
 2218TIP3    H130849   5.325   3.727  10.273  2.1793 -2.0564  0.8468
 2218TIP3    H230850   5.333   3.631  10.156 -0.7592  0.6750 -1.7777
 2219TIP3   OH230851   6.617   5.530  11.460 -0.0492 -0.0132  0.0133
 2219TIP3    H130852   6.659   5.459  11.507  1.5913  0.7952 -0.1795
 2219TIP3    H230853   6.550   5.487  11.406  0.0003 -1.2351  0.8986
 2220TIP3   OH230854   0.629   3.925  10.811 -0.2035  0.5951  0.0577
 2220TIP3    H130855   0.686   3.879  10.749  1.6915  1.6914  0.8811
 2220TIP3    H230856   0.626   3.867  10.888 -0.0937  0.5913  0.0595
 2221TIP3   OH230857   5.668   2.954  11.380 -1.1548 -0.2992  0.0595
 2221TIP3    H130858   5.580   2.979  11.351 -1.5275 -2.5790 -0.9253
 2221TIP3    H230859   5.692   2.881  11.325  0.4272 -1.2283  1.8618
 2222TIP3   OH230860   5.390   5.905  12.326  0.0800  0.3692  0.1254
 2222TIP3    H130861   5.324   5.872  12.265 -1.2064  0.8864  1.1945
 2222TIP3    H230862   5.471   5.862  12.298 -0.3413  0.9359 -2.2273
 2223TIP3   OH230863   1.624   4.160  12.469  0.3232 -0.4614  0.1253
 2223TIP3    H130864   1.671   4.123  12.544  0.8383  0.2645  0.1719
 2223TIP3    H230865   1.535   4.174  12.501  0.8269  0.9675  1.0157
 2224TIP3   OH230866   1.944   5.055   9.927  0.6318 -0.1640  0.2045
 2224TIP3    H130867   1.952   5.127   9.864 -1.0911  0.8644  1.0979
 2224TIP3    H230868   1.867   5.007   9.898  0.5751 -0.4415  0.8153
 2225TIP3   OH230869   3.603   0.562  12.181 -0.1149 -0.1187 -0.3054
 2225TIP3    H130870   3.612   0.561  12.276 -0.4608 -0.6650 -0.2716
 2225TIP3    H230871   3.613   0.654  12.157  0.5742 -0.0575  0.1956
 2226TIP3   OH230872   5.993   2.614  10.400 -0.2170 -0.1697  0.1448
 2226TIP3    H130873   5.911   2.634  10.444 -0.4475 -1.5547  0.4018
 2226TIP3    H230874   6.008   2.521  10.418  1.9716  0.2738  1.0370
 2227TIP3   OH230875   4.382   2.301  11.411  0.0757 -0.2315  0.0339
 2227TIP3    H130876   4.438   2.362  11.461  2.1373 -2.1906  0.2785
 2227TIP3    H230877   4.305   2.289  11.467  1.4840 -0.9256  1.9735
 2228TIP3   OH230878   5.055   5.251  10.634  0.1927  0.4960 -0.8253
 2228TIP3    H130879   5.105   5.281  10.559  1.7354  1.2681  0.4486
 2228TIP3    H230880   5.033   5.331  10.683 -0.0254 -0.0420 -0.0101
 2229TIP3   OH230881   3.424   2.402   9.564  0.4309  0.1406  0.6009
 2229TIP3    H130882   3.459   2.321   9.527 -2.0203 -0.4558 -0.6380
 2229TIP3    H230883   3.333   2.404   9.535  0.3991  3.3775  0.5681
 2230TIP3   OH230884   4.115   2.765  10.693 -0.1153 -0.3136 -0.3664
 2230TIP3    H130885   4.182   2.825  10.660  1.2484 -1.6556 -0.1645
 2230TIP3    H230886   4.122   2.771  10.789 -1.5351  0.8475 -0.3033
 2231TIP3   OH230887   1.269   0.492  10.295 -0.0882 -0.2565 -0.2445
 2231TIP3    H130888   1.290   0.409  10.253 -2.2155 -1.4214  0.8151
 2231TIP3    H230889   1.188   0.520  10.253  0.4745  1.1940 -0.4109
 2232TIP3   OH230890   3.431   0.636  12.595  0.4016  0.6739 -0.2038
 2232TIP3    H130891   3.389   0.665  12.514  0.7650 -0.7957 -0.9604
 2232TIP3    H230892   3.521   0.616  12.569  0.5284  0.2151  0.5641
 2233TIP3   OH230893   5.717   4.482   9.802 -0.4155 -0.5246 -0.3657
 2233TIP3    H130894   5.797   4.513   9.758 -0.0350 -1.0572 -0.0673
 2233TIP3    H230895   5.717   4.527   9.886 -0.4240 -0.5307 -0.3621
 2234TIP3   OH230896   1.912   5.975  10.561  0.5776  0.5809 -0.8666
 2234TIP3    H130897   1.886   5.884  10.547 -0.7536  1.0478 -1.6680
 2234TIP3    H230898   1.884   5.995  10.650  2.1328 -0.1687 -0.1720
 2235TIP3   OH230899   1.897   0.239   9.556 -0.2184 -0.0588  0.0391
 2235TIP3    H130900   1.918   0.146   9.547 -0.2615  0.1025 -2.0907
 2235TIP3    H230901   1.813   0.240   9.602 -0.7168 -1.1307 -0.8037
 2236TIP3   OH230902   3.071   2.710  12.247  0.7842  0.2695 -0.1884
 2236TIP3    H130903   3.058   2.803  12.228  0.9292  0.3229 -0.0255
 2236TIP3    H230904   2.982   2.675  12.254  0.6836  0.8206  1.8218
 2237TIP3   OH230905   5.691   4.000  11.069 -0.1310 -0.0296  0.6537
 2237TIP3    H130906   5.764   3.942  11.089 -0.0754 -0.2346 -0.1211
 2237TIP3    H230907   5.718   4.085  11.103 -0.6426 -0.6386  2.7325
 2238TIP3   OH230908   0.531   4.933  12.094  0.3626 -0.1581  0.3966
 2238TIP3    H130909   0.471   5.001  12.124  1.7758  1.8308 -1.0346
 2238TIP3    H230910   0.557   4.960  12.006  2.0883 -1.8041  0.3246
 2239TIP3   OH230911   4.047   5.552  12.193 -0.3789  0.0786 -0.0473
 2239TIP3    H130912   4.127   5.600  12.172  0.1890 -1.3859 -1.5108
 2239TIP3    H230913   4.070   5.460  12.177 -2.4068 -0.3541 -0.7580
 2240TIP3   OH230914   0.392   5.133  12.203  0.4465 -0.0469 -0.2533
 2240TIP3    H130915   0.331   5.187  12.255  0.0215 -1.3411  0.6354
 2240TIP3    H230916   0.471   5.128  12.257  1.0938  0.9921 -1.0623
 2241TIP3   OH230917   1.106   5.082  12.039 -0.4087 -0.0378 -0.0372
 2241TIP3    H130918   1.114   5.018  11.968  0.9417  0.7132 -0.6152
 2241TIP3    H230919   1.094   5.166  11.994 -2.0948  0.1506  0.7004
 2242TIP3   OH230920   4.986   4.970  10.654 -0.5257 -0.1224  0.3262
 2242TIP3    H130921   4.964   5.063  10.651 -1.5573 -0.3478  0.3122
 2242TIP3    H230922   4.974   4.946  10.746  0.9787  0.0249  0.5784
 2243TIP3   OH230923   1.077   2.490  12.213  0.0296 -0.6754  0.2713
 2243TIP3    H130924   1.076   2.531  12.127 -1.3187 -0.6072  0.2917
 2243TIP3    H230925   0.985   2.485  12.238  0.2039 -2.7941  0.7202
 2244TIP3   OH230926   6.187   3.694  11.774 -0.4769 -0.2271  0.2760
 2244TIP3    H130927   6.213   3.617  11.826 -2.9124 -1.4526 -0.1807
 2244TIP3    H230928   6.142   3.657  11.698 -2.2840  1.6287  0.3615
 2245TIP3   OH230929   5.671   3.417  11.158  0.0126  0.4164 -0.7228
 2245TIP3    H130930   5.656   3.401  11.251 -1.0360  1.7342 -0.6422
 2245TIP3    H230931   5.686   3.330  11.121 -0.4339 -0.2116  0.5133
 2246TIP3   OH230932   2.338   2.458   8.387  0.3549 -0.1395  0.1206
 2246TIP3    H130933   2.398   2.528   8.361 -0.2081  0.9286  1.4978
 2246TIP3    H230934   2.391   2.397   8.437 -0.0385  2.1988  3.7533
 2247TIP3   OH230935   3.964   4.403   9.241  0.3272  0.0506  0.1356
 2247TIP3    H130936   3.923   4.456   9.172  1.4098 -1.3349 -1.6838
 2247TIP3    H230937   3.974   4.316   9.201  1.8791 -0.5533  1.7232
 2248TIP3   OH230938   1.146   3.311  12.112 -0.2908  0.3049  0.5066
 2248TIP3    H130939   1.227   3.361  12.123 -0.3676  1.0297 -1.7343
 2248TIP3    H230940   1.167   3.245  12.045 -1.4361  0.2973  0.1262
 2249TIP3   OH230941   4.980   3.571   9.974  0.6218  0.0701  0.8344
 2249TIP3    H130942   5.071   3.551   9.994  0.1234 -1.5790  1.6498
 2249TIP3    H230943   4.958   3.514   9.901  0.0180 -0.1598  1.1899
 2250TIP3   OH230944   2.767   1.269  12.123 -0.5895  0.6156 -0.5755
 2250TIP3    H130945   2.799   1.359  12.116  2.5481 -0.1541  1.4714
 2250TIP3    H230946   2.753   1.257  12.217 -1.7391 -0.8194 -0.9036
 2251TIP3   OH230947   6.172   6.147  10.256  0.0905 -0.3728  0.4411
 2251TIP3    H130948   6.101   6.183  10.202 -0.5696 -1.2211  0.7098
 2251TIP3    H230949   6.242   6.127  10.193 -0.5230 -0.9910 -0.0705
 2252TIP3   OH230950   2.289   2.701  12.041 -0.8566 -0.2281  0.1495
 2252TIP3    H130951   2.284   2.615  12.000  1.7635 -1.8022  2.7997
 2252TIP3    H230952   2.252   2.689  12.129  0.2542  1.1168  0.8502
 2253TIP3   OH230953   1.471   1.894  10.150 -0.7741  0.0429 -0.1534
 2253TIP3    H130954   1.552   1.873  10.103 -1.3180 -1.0265 -0.6558
 2253TIP3    H230955   1.402   1.848  10.102 -1.4573 -0.4409  1.2157
 2254TIP3   OH230956   2.318   3.712  11.709  0.3628 -0.1369  0.4639
 2254TIP3    H130957   2.288   3.621  11.712  1.1124 -0.4241 -0.4086
 2254TIP3    H230958   2.270   3.751  11.636  0.0292  0.1823  0.8477
 2255TIP3   OH230959   3.899   1.279  11.901  0.3303  0.1067 -0.3076
 2255TIP3    H130960   3.962   1.208  11.888  0.9006  0.4727  0.4137
 2255TIP3    H230961   3.843   1.250  11.973 -1.1808 -0.7806 -1.7627
 2256TIP3   OH230962   2.808   4.408  11.614  0.4021 -0.3019  0.2296
 2256TIP3    H130963   2.820   4.452  11.530 -0.4004  2.1371  1.2884
 2256TIP3    H230964   2.717   4.378  11.613 -0.0238  0.9084  0.6885
 2257TIP3   OH230965   3.005   5.803  12.422 -0.0352  0.3042 -0.2496
 2257TIP3    H130966   2.957   5.877  12.384 -0.3652  0.9537  1.3394
 2257TIP3    H230967   2.939   5.735  12.433 -0.6397  1.1195  1.7268
 2258TIP3   OH230968   0.924   4.677  11.611  0.9804  0.3174 -0.0826
 2258TIP3    H130969   0.887   4.699  11.697  1.8298 -0.4286  0.4928
 2258TIP3    H230970   0.869   4.606  11.578 -0.6253  1.9509 -1.1177
 2259TIP3   OH230971   5.624   1.810  12.119 -0.0640  0.1223  0.7674
 2259TIP3    H130972   5.588   1.722  12.108  2.1866 -1.0069  1.7903
 2259TIP3    H230973   5.574   1.864  12.057 -2.5058 -1.5310  1.1518
 2260TIP3   OH230974   3.643   5.308  11.660 -0.2022 -0.7535 -0.3479
 2260TIP3    H130975   3.594   5.316  11.579  0.4577 -0.6747 -0.7482
 2260TIP3    H230976   3.583   5.336  11.728 -0.9946 -1.4890 -0.7301
 2261TIP3   OH230977   5.154   2.156  10.089 -0.2245  0.3591  0.4636
 2261TIP3    H130978   5.231   2.104  10.065 -0.9532  0.6195 -2.8882
 2261TIP3    H230979   5.080   2.097  10.078 -0.6703  0.4555  2.5143
 2262TIP3   OH230980   1.044   4.268  11.463  0.1040 -0.1055 -0.5819
 2262TIP3    H130981   0.996   4.315  11.395 -0.1377  0.8543  0.2440
 2262TIP3    H230982   0.987   4.195  11.486 -0.3866  0.2929 -0.5174
 2263TIP3   OH230983   1.040   5.553  10.849  0.0196 -0.5421  0.1454
 2263TIP3    H130984   0.979   5.619  10.883  1.0370  0.1835  0.6065
 2263TIP3    H230985   1.078   5.514  10.927  1.2795  0.0934 -0.1347
 2264TIP3   OH230986   5.133   0.533   9.465  0.0196  0.1899  0.7359
 2264TIP3    H130987   5.106   0.442   9.460  1.2193 -0.1794  0.5986
 2264TIP3    H230988   5.229   0.529   9.469  0.1561  1.4907 -0.5376
 2265TIP3   OH230989   4.199   0.165  11.355 -0.1972  0.0740 -0.0868
 2265TIP3    H130990   4.145   0.164  11.276  0.3848 -1.7957 -0.4940
 2265TIP3    H230991   4.267   0.100  11.339  0.8522  0.7559  1.3492
 2266TIP3   OH230992   0.482   1.927   9.696  0.2456  0.6834 -0.0122
 2266TIP3    H130993   0.545   1.951   9.628  0.8597 -1.2623 -0.2065
 2266TIP3    H230994   0.524   1.855   9.743 -1.8666 -0.8235 -0.2719
 2267TIP3   OH230995   2.051   0.156  10.595  0.0216 -0.2543  0.2516
 2267TIP3    H130996   2.032   0.066  10.570  0.7584 -0.4038  0.2007
 2267TIP3    H230997   2.054   0.154  10.691 -2.3923  0.2349  0.3981
 2268TIP3   OH230998   2.341   1.521   9.939  0.0556  0.1824 -0.4661
 2268TIP3    H130999   2.362   1.530   9.846 -1.6808 -0.4036 -0.9544
 2268TIP3    H231000   2.339   1.611   9.972 -0.2157  0.4526 -1.2100
 2269TIP3   OH231001   2.999   1.554   8.953 -0.3087  0.1553 -0.3221
 2269TIP3    H131002   2.943   1.518   8.884 -0.1041 -0.5679 -0.1130
 2269TIP3    H231003   3.054   1.481   8.980 -1.0822  0.1360  1.3335
 2270TIP3   OH231004   3.119   3.651  12.146 -0.1749 -0.5282  0.4034
 2270TIP3    H131005   3.201   3.602  12.139  1.0873  1.6534 -1.7992
 2270TIP3    H231006   3.062   3.613  12.079 -0.4459 -1.0602  0.9209
 2271TIP3   OH231007   4.735   6.115  10.800  0.2245  0.1745  0.2523
 2271TIP3    H131008   4.735   6.022  10.820 -0.8075  0.3772  1.3559
 2271TIP3    H231009   4.814   6.149  10.842  0.5170 -0.1784 -0.0161
 2272TIP3   OH231010   4.590   4.391  10.927 -0.2031  0.2902  0.5760
 2272TIP3    H131011   4.614   4.406  11.019 -0.5999  0.2035  0.6928
 2272TIP3    H231012   4.537   4.311  10.929 -0.2369  0.3046  0.2717
 2273TIP3   OH231013   4.298   3.030  11.872  0.1482  0.0175  0.1154
 2273TIP3    H131014   4.378   3.073  11.901 -0.1135  1.0219 -0.5876
 2273TIP3    H231015   4.328   2.949  11.832  0.8165  0.3314 -0.0465
 2274TIP3   OH231016   5.585   0.077   9.364 -0.5833  0.2989 -0.3446
 2274TIP3    H131017   5.671   0.091   9.404 -0.5414  1.1842 -0.7234
 2274TIP3    H231018   5.531   0.149   9.397 -1.4215 -0.6948  0.5191
 2275TIP3   OH231019   4.451   1.772  12.283 -0.2900  0.0169 -0.2319
 2275TIP3    H131020   4.485   1.731  12.363 -2.4820  0.4553  1.0242
 2275TIP3    H231021   4.501   1.732  12.212  1.0316 -1.1544  1.2801
 2276TIP3   OH231022   0.370   2.535   9.397  0.4089 -0.4913  0.0201
 2276TIP3    H131023   0.330   2.551   9.311 -1.9650 -0.8480  0.9871
 2276TIP3    H231024   0.341   2.609   9.451  0.6156 -1.0423  0.9060
 2277TIP3   OH231025   1.790   4.998  11.215 -0.0801 -1.0788 -0.3007
 2277TIP3    H131026   1.719   5.060  11.198 -1.4223 -2.0478  1.5280
 2277TIP3    H231027   1.751   4.912  11.201  1.3791 -1.6013 -1.4237
 2278TIP3   OH231028   2.677   1.089  11.103 -0.7242 -0.3102 -0.1719
 2278TIP3    H131029   2.637   1.013  11.060 -0.4105 -0.7721  0.3510
 2278TIP3    H231030   2.658   1.078  11.196 -0.6887  0.2634 -0.0899
 2279TIP3   OH231031   6.222   1.081  12.298 -0.1525 -0.0795  0.2258
 2279TIP3    H131032   6.302   1.086  12.246  1.4639 -1.2959  2.4221
 2279TIP3    H231033   6.214   1.167  12.338 -0.6235  0.4075 -0.8653
 2280TIP3   OH231034   0.185   0.007  11.123  0.4181 -0.6157 -0.0676
 2280TIP3    H131035   0.256  -0.016  11.183  0.8906 -1.5616 -0.9492
 2280TIP3    H231036   0.113  -0.050  11.148 -0.4504  1.0467  1.4964
 2281TIP3   OH231037   5.251   1.808   9.098 -0.1277 -0.3184 -0.8278
 2281TIP3    H131038   5.320   1.789   9.162 -0.1533  0.2810 -0.6166
 2281TIP3    H231039   5.292   1.868   9.036 -0.5916  0.4000 -0.4457
 2282TIP3   OH231040   4.419   6.337  11.979  0.1413 -0.1834  0.0908
 2282TIP3    H131041   4.403   6.397  12.052  2.0722 -0.5015  0.8576
 2282TIP3    H231042   4.336   6.332  11.933 -2.1176 -2.2150  3.9098
 2283TIP3   OH231043   3.205   2.472  10.017 -0.2476 -0.2338  0.0298
 2283TIP3    H131044   3.124   2.467   9.966 -0.0809  1.1227 -0.4009
 2283TIP3    H231045   3.216   2.566  10.036  1.5480 -0.3093 -0.4493
 2284TIP3   OH231046   5.867   1.707   9.693 -0.0295 -0.4162 -0.0204
 2284TIP3    H131047   5.784   1.660   9.684 -1.3299  1.9312 -1.2064
 2284TIP3    H231048   5.893   1.691   9.784 -0.4525 -3.1716 -0.2775
 2285TIP3   OH231049   6.260   5.129  11.696 -0.2605 -0.0857  0.1278
 2285TIP3    H131050   6.295   5.048  11.659 -0.5952 -0.9518  1.6344
 2285TIP3    H231051   6.168   5.129  11.670 -1.4481 -2.4838  3.6565
 2286TIP3   OH231052   5.033   3.304  11.775  0.0881  0.1199 -1.1528
 2286TIP3    H131053   5.021   3.388  11.818 -0.2175  0.8609 -2.6110
 2286TIP3    H231054   5.072   3.248  11.842 -1.0787  0.9674  0.3106
 2287TIP3   OH231055   5.630   2.964   8.767 -0.0026  0.0022 -0.0555
 2287TIP3    H131056   5.562   2.949   8.702 -0.3640  1.0542  0.0571
 2287TIP3    H231057   5.623   3.057   8.788 -1.0531 -0.5914  2.7517
 2288TIP3   OH231058   4.120   1.997   9.495 -0.1558  0.2928 -0.2716
 2288TIP3    H131059   4.213   1.975   9.504  0.0743  1.2954 -0.0714
 2288TIP3    H231060   4.119   2.092   9.480 -1.2163  0.5046  0.9338
 2289TIP3   OH231061   0.518   0.158   9.619 -0.2159 -0.4135  0.2430
 2289TIP3    H131062   0.562   0.075   9.600  0.3343 -0.4961  1.7465
 2289TIP3    H231063   0.444   0.133   9.673  0.3116  0.1223  1.2308
 2290TIP3   OH231064   0.559   5.407  11.472  0.5049 -0.2586  0.7720
 2290TIP3    H131065   0.635   5.422  11.528  1.6654  1.0826 -1.0111
 2290TIP3    H231066   0.526   5.495  11.453  0.8057 -0.5593 -1.4177
 2291TIP3   OH231067   3.101   2.165  10.182  0.7344 -0.2778  0.0433
 2291TIP3    H131068   3.101   2.136  10.273  0.1132  0.5850  0.3234
 2291TIP3    H231069   3.018   2.134  10.147  0.1615  0.9363  0.2831
 2292TIP3   OH231070   0.253   3.095  11.350  0.2064 -0.6349  0.2290
 2292TIP3    H131071   0.312   3.157  11.393 -1.3263  0.8206  0.3332
 2292TIP3    H231072   0.230   3.032  11.418  1.4315 -1.0885  0.2442
 2293TIP3   OH231073   4.706   3.915  12.050  0.1557  0.0456  0.0760
 2293TIP3    H131074   4.793   3.893  12.083  0.4405 -0.0874 -0.7644
 2293TIP3    H231075   4.718   3.933  11.957 -0.8311 -0.6030 -0.1920
 2294TIP3   OH231076   1.175   5.582   9.798  0.0437 -0.0329  0.0311
 2294TIP3    H131077   1.260   5.617   9.771  0.8278 -0.3949  1.8475
 2294TIP3    H231078   1.127   5.659   9.831  0.4662 -0.1281  0.8898
 2295TIP3   OH231079   1.308   5.611  10.156  0.2797 -0.2398 -0.3099
 2295TIP3    H131080   1.282   5.616  10.248  0.0074  2.3346 -0.4585
 2295TIP3    H231081   1.241   5.556  10.115  0.7917 -1.9975  1.1008
 2296TIP3   OH231082   5.890   2.483  10.921 -0.1496  0.3337 -0.2352
 2296TIP3    H131083   5.837   2.550  10.965 -1.0760  0.3241 -1.3041
 2296TIP3    H231084   5.882   2.406  10.978 -1.2836  0.3356 -0.3691
 2297TIP3   OH231085   4.477   3.387  10.949 -0.6545  0.0247  0.6276
 2297TIP3    H131086   4.506   3.296  10.959 -1.7660 -0.5242 -0.8676
 2297TIP3    H231087   4.504   3.430  11.031  3.5413 -0.5930 -0.2094
 2298TIP3   OH231088   1.491   3.541   9.289 -0.1993 -0.0691 -0.1088
 2298TIP3    H131089   1.521   3.496   9.211  2.1030 -0.8630  1.1537
 2298TIP3    H231090   1.526   3.630   9.280  0.3480 -0.2572  0.1848
 2299TIP3   OH231091   6.059   0.001  11.807  0.0248 -0.1771  0.1275
 2299TIP3    H131092   5.975  -0.010  11.762  0.1756 -0.1838 -0.1551
 2299TIP3    H231093   6.078  -0.085  11.845 -1.2252  0.4091  2.1873
 2300TIP3   OH231094   6.592   3.254  11.991  0.2483 -0.1013 -0.1807
 2300TIP3    H131095   6.678   3.222  12.018 -0.4805 -1.1083  1.0264
 2300TIP3    H231096   6.588   3.343  12.025  2.3160  1.5181 -3.6047
 2301TIP3   OH231097   2.506   4.688  11.537 -0.5500 -0.1379  0.1394
 2301TIP3    H131098   2.534   4.596  11.545  0.2618 -0.2228 -2.5104
 2301TIP3    H231099   2.562   4.736  11.597 -0.0803 -1.2295  0.5982
 2302TIP3   OH231100   1.366   1.800  10.528  0.5014  0.6768 -0.3445
 2302TIP3    H131101   1.371   1.883  10.481 -2.0873 -0.0418 -2.1471
 2302TIP3    H231102   1.405   1.736  10.468 -1.4109 -0.0120 -0.9218
 2303TIP3   OH231103   3.207   4.657   8.839  0.2970  0.8278 -0.3842
 2303TIP3    H131104   3.123   4.644   8.796 -0.0736  1.5260  0.1235
 2303TIP3    H231105   3.220   4.751   8.840  0.9817  0.7389 -0.2605
 2304TIP3   OH231106   5.145   1.167  11.915  0.1103 -0.2729  0.1826
 2304TIP3    H131107   5.111   1.135  11.831 -2.7486  0.2936  1.0211
 2304TIP3    H231108   5.078   1.144  11.979  1.0561  1.4757  1.9213
 2305TIP3   OH231109   5.449   5.260  11.387 -0.4363  0.1374 -0.3464
 2305TIP3    H131110   5.531   5.288  11.346 -0.8215 -1.0038 -2.0320
 2305TIP3    H231111   5.418   5.188  11.331 -2.0349 -0.1820  0.8697
 2306TIP3   OH231112   4.445   6.442   9.670 -0.1996  0.6402  0.2974
 2306TIP3    H131113   4.425   6.349   9.676  0.2287  0.4276 -1.1384
 2306TIP3    H231114   4.403   6.471   9.589  1.4833  1.1678 -0.4480
 2307TIP3   OH231115   6.384   0.230  11.164 -0.5433 -0.7932 -0.0789
 2307TIP3    H131116   6.476   0.251  11.180 -0.6318  0.7542 -1.3803
 2307TIP3    H231117   6.336   0.275  11.234 -0.3924 -0.6548 -0.0667
 2308TIP3   OH231118   4.995   2.329   9.943  0.4076 -0.1035 -0.2831
 2308TIP3    H131119   5.055   2.281  10.001  1.0033  0.8880 -0.0530
 2308TIP3    H231120   4.947   2.260   9.897  1.4393 -0.9294 -0.1780
 2309TIP3   OH231121   0.867   5.482  12.084  0.7684 -0.2676  0.9951
 2309TIP3    H131122   0.775   5.508  12.089  1.1975  1.1661  2.1194
 2309TIP3    H231123   0.869   5.392  12.117 -0.4888 -1.1393 -1.0915
 2310TIP3   OH231124   5.188   3.256   9.929 -0.0314  0.1599 -0.1860
 2310TIP3    H131125   5.122   3.189   9.948 -0.8581  0.8336 -0.5853
 2310TIP3    H231126   5.268   3.207   9.912 -0.7760 -0.7878 -1.1175
 2311TIP3   OH231127   3.480   1.484  11.323 -0.0962  0.1062  0.4857
 2311TIP3    H131128   3.524   1.443  11.397  0.4396  1.2738  0.8461
 2311TIP3    H231129   3.551   1.511  11.264 -0.5604 -2.2275 -1.2976
 2312TIP3   OH231130   6.459   3.439   8.684  0.2718 -0.1616 -0.0519
 2312TIP3    H131131   6.494   3.389   8.758  0.2056  0.5017  0.4408
 2312TIP3    H231132   6.475   3.384   8.608 -0.9057 -1.4908  0.6157
 2313TIP3   OH231133   0.957   4.067  10.863 -0.1591  0.4908 -0.0399
 2313TIP3    H131134   0.975   3.986  10.814 -2.0592  0.3792 -0.6071
 2313TIP3    H231135   1.013   4.060  10.940  0.0555 -1.1671 -0.2938
 2314TIP3   OH231136   4.664   2.483  10.982  0.4921  0.2965  0.1409
 2314TIP3    H131137   4.723   2.471  10.908 -0.6560 -0.7849 -0.6607
 2314TIP3    H231138   4.702   2.430  11.052  0.2712 -0.7830 -0.5207
 2315TIP3   OH231139   0.622   1.743   9.252  0.0520 -0.3432  0.3630
 2315TIP3    H131140   0.602   1.736   9.159  0.4797 -1.5539  0.3398
 2315TIP3    H231141   0.710   1.706   9.261  0.1363  0.0186  1.2097
 2316TIP3   OH231142   2.726   2.044  10.593  0.5498  0.4981  0.2428
 2316TIP3    H131143   2.675   2.105  10.540  1.4535  1.5973  0.5942
 2316TIP3    H231144   2.741   1.969  10.535 -1.3658  0.1633  0.1107
 2317TIP3   OH231145   0.873   0.545  11.164  0.3715 -0.2758 -0.1014
 2317TIP3    H131146   0.940   0.491  11.121  0.0090 -1.4884  0.8084
 2317TIP3    H231147   0.791   0.500  11.144  0.1275 -0.4512  1.2297
 2318TIP3   OH231148   0.099   4.631  11.131  0.6212  0.0700 -0.4641
 2318TIP3    H131149   0.081   4.544  11.168 -1.8447  0.6527 -0.1329
 2318TIP3    H231150   0.014   4.664  11.105  1.7777  1.4556 -2.8317
 2319TIP3   OH231151   6.288   1.569  10.907 -0.1383 -0.0825 -0.3690
 2319TIP3    H131152   6.359   1.628  10.934  0.3845 -1.7656  2.3363
 2319TIP3    H231153   6.208   1.619  10.925  0.2926  0.8904 -1.0386
 2320TIP3   OH231154   2.068   6.033  11.297  0.6360  0.3023  0.2250
 2320TIP3    H131155   2.016   6.021  11.218  1.3543  1.9867 -0.5585
 2320TIP3    H231156   2.155   6.057  11.265  0.8055  1.5569  1.5099
 2321TIP3   OH231157   2.570   0.541   9.987  0.1152 -0.1639 -0.0934
 2321TIP3    H131158   2.589   0.635   9.980  0.2097 -0.1634  0.1850
 2321TIP3    H231159   2.506   0.534  10.057  1.2134 -0.4579  0.9081
 2322TIP3   OH231160   6.489   3.813   9.081 -0.1377 -0.2095 -0.8345
 2322TIP3    H131161   6.417   3.870   9.110  0.1186 -0.1022 -0.4024
 2322TIP3    H231162   6.447   3.727   9.068 -0.3424 -0.1549 -0.5609
 2323TIP3   OH231163   3.118   3.663  12.437  0.1241  0.3370 -0.0743
 2323TIP3    H131164   3.098   3.667  12.344  1.8205 -3.4343 -0.7923
 2323TIP3    H231165   3.203   3.706  12.446  0.1880  0.2793 -0.3972
 2324TIP3   OH231166   2.208   3.226  11.201 -0.1920  0.7472 -0.3437
 2324TIP3    H131167   2.174   3.239  11.113 -0.5389  0.1840 -0.3026
 2324TIP3    H231168   2.300   3.254  11.196  0.3795 -1.1326 -1.4144
 2325TIP3   OH231169   6.030   5.337   9.251 -0.0891  0.1010 -0.2767
 2325TIP3    H131170   5.971   5.395   9.298  0.3800  0.4952 -0.1631
 2325TIP3    H231171   6.117   5.358   9.285  0.3215  0.7404 -1.6521
 2326TIP3   OH231172   5.379   0.147   9.894  0.1841 -0.6481  0.6901
 2326TIP3    H131173   5.389   0.065   9.942  1.2508 -0.5079  0.7332
 2326TIP3    H231174   5.294   0.182   9.923  0.8315 -0.5234  2.5452
 2327TIP3   OH231175   3.937   1.676   9.354 -0.3548 -0.2479 -0.0012
 2327TIP3    H131176   3.944   1.660   9.260  0.4137 -1.6912  0.2844
 2327TIP3    H231177   3.877   1.609   9.385 -1.2898  0.7553  0.4306
 2328TIP3   OH231178   0.071   6.163  11.163  0.9788 -0.0624 -0.5168
 2328TIP3    H131179   0.097   6.071  11.171  1.9858  0.3402  1.9544
 2328TIP3    H231180   0.153   6.212  11.169  0.3460  1.0311 -0.5053
 2329TIP3   OH231181   4.484   5.450   1.657 -1.0629 -0.9413 -0.6715
 2329TIP3    H131182   4.472   5.371   1.604  0.1748  0.1699 -2.7719
 2329TIP3    H231183   4.572   5.480   1.635 -1.2022  0.5693  0.6986
 2330TIP3   OH231184   5.313   6.198  12.291 -0.0133  0.6780  0.2892
 2330TIP3    H131185   5.355   6.131  12.345  0.0074  0.7089  0.3119
 2330TIP3    H231186   5.384   6.257  12.266  0.5263 -0.8799 -2.1318
 2331TIP3   OH231187   5.862   2.765  10.605 -0.0349  0.2816 -0.0869
 2331TIP3    H131188   5.936   2.767  10.665 -0.0509 -1.4169  0.0322
 2331TIP3    H231189   5.787   2.746  10.661 -0.4122  0.9500 -0.3558
 2332TIP3   OH231190   3.290   0.793  11.027  0.0943 -0.4656 -0.4804
 2332TIP3    H131191   3.256   0.856  10.964 -0.1743 -2.0543 -1.9958
 2332TIP3    H231192   3.385   0.805  11.025  0.0815 -0.4253 -1.1197
 2333TIP3   OH231193   5.149   0.587  10.286 -0.0585 -0.0488  0.4175
 2333TIP3    H131194   5.118   0.517  10.228 -0.9422  0.3860  0.3492
 2333TIP3    H231195   5.204   0.542  10.350 -0.7027 -0.8349  0.4412
 2334TIP3   OH231196   3.815   1.698  10.756 -0.5653  0.2216  0.1745
 2334TIP3    H131197   3.907   1.721  10.745 -0.9503  1.6781 -0.2165
 2334TIP3    H231198   3.774   1.721  10.673 -1.2924 -0.4453  0.3300
 2335TIP3   OH231199   1.616   0.740  12.272 -0.4819 -0.4654 -0.4620
 2335TIP3    H131200   1.521   0.753  12.271 -0.5112 -0.5850  0.3144
 2335TIP3    H231201   1.653   0.828  12.282 -0.4897 -0.3651 -1.2609
 2336TIP3   OH231202   2.208   6.263  10.507  0.3984  0.0033 -0.1429
 2336TIP3    H131203   2.282   6.210  10.537 -0.0504 -0.9470 -0.6398
 2336TIP3    H231204   2.247   6.345  10.477  1.1590 -0.1905  0.2917
 2337TIP3   OH231205   1.410   6.302  10.923  0.0796  0.5990 -0.4689
 2337TIP3    H131206   1.418   6.318  11.017 -0.2650  1.5834 -0.5953
 2337TIP3    H231207   1.475   6.360  10.884 -0.2389  0.6855 -0.8743
 2338TIP3   OH231208   6.617   4.806  12.202  0.1457 -0.0156  0.2331
 2338TIP3    H131209   6.696   4.852  12.173 -0.6975  1.4064  0.1028
 2338TIP3    H231210   6.624   4.806  12.298  1.6123 -2.3599  0.2248
 2339TIP3   OH231211   0.170   0.084   9.100  0.3123 -0.4188 -0.3088
 2339TIP3    H131212   0.174   0.178   9.080 -0.0843 -0.4352 -0.4890
 2339TIP3    H231213   0.218   0.075   9.182  4.1360 -0.6984 -2.3711
 2340TIP3   OH231214   1.351   0.832  12.175  0.2598 -0.0579  0.1373
 2340TIP3    H131215   1.292   0.766  12.138 -0.0108  1.2717 -1.9786
 2340TIP3    H231216   1.293   0.901  12.206  0.4210 -1.3696  3.9182
 2341TIP3   OH231217   0.438   0.967  12.527  0.3523 -0.2693 -0.8468
 2341TIP3    H131218   0.386   0.930  12.598  0.8732 -0.4697 -0.5627
 2341TIP3    H231219   0.523   0.923  12.533  1.6494  2.1607  0.6525
 2342TIP3   OH231220   3.709   0.247  11.031 -0.0022  0.5186  0.2153
 2342TIP3    H131221   3.717   0.258  11.125  4.0712  0.8922 -0.0217
 2342TIP3    H231222   3.713   0.337  10.997 -1.0404  0.3554 -0.3934
 2343TIP3   OH231223   1.450   1.531  11.427 -0.2341 -0.1453 -0.1709
 2343TIP3    H131224   1.482   1.621  11.427  0.0447 -0.2439 -0.7872
 2343TIP3    H231225   1.422   1.516  11.517 -3.3536  1.6678 -0.6869
 2344TIP3   OH231226   3.854   1.216   9.922 -0.6814 -0.4754  0.1210
 2344TIP3    H131227   3.774   1.183   9.882 -1.0521 -1.3793  1.5235
 2344TIP3    H231228   3.914   1.142   9.920  0.4744  0.4606 -1.7383
 2345TIP3   OH231229   2.847   2.279  11.211  0.0311 -0.2745  0.0167
 2345TIP3    H131230   2.806   2.355  11.254  0.3201 -0.9193  1.5003
 2345TIP3    H231231   2.905   2.243  11.277 -0.0135 -1.7317 -0.6986
 2346TIP3   OH231232   0.286   4.615  10.066  0.3126  0.1746  0.0480
 2346TIP3    H131233   0.208   4.669  10.080 -0.1133 -0.5485  0.4981
 2346TIP3    H231234   0.301   4.571  10.150  1.6666  0.8885  0.2166
 2347TIP3   OH231235   4.274   1.241  11.888  0.0611  0.2605 -0.2388
 2347TIP3    H131236   4.237   1.327  11.867 -0.7741 -0.6000 -2.5547
 2347TIP3    H231237   4.210   1.178  11.856 -0.0501 -1.3158  2.7005
 2348TIP3   OH231238   4.703   0.497  11.884 -0.1458  0.1404 -0.3864
 2348TIP3    H131239   4.641   0.426  11.899 -0.7470  0.4183 -1.4450
 2348TIP3    H231240   4.736   0.482  11.795 -0.2430  1.1463 -0.6091
 2349TIP3   OH231241   3.427   0.285   9.539 -0.1213  0.0918 -0.5713
 2349TIP3    H131242   3.385   0.366   9.514  0.5609  0.5006 -0.4328
 2349TIP3    H231243   3.404   0.273   9.632  1.7474  1.4388  0.1398
 2350TIP3   OH231244   3.027   0.651  10.741  0.0740  0.2437 -0.2080
 2350TIP3    H131245   2.990   0.563  10.732 -0.5101  0.5584 -0.9322
 2350TIP3    H231246   3.118   0.636  10.766 -0.0434 -0.5657 -0.2351
 2351TIP3   OH231247   4.417   0.111  10.985  0.2177  0.9595 -0.0001
 2351TIP3    H131248   4.414   0.173  10.912  0.5752  0.8851 -0.0795
 2351TIP3    H231249   4.453   0.031  10.946 -3.5952 -0.5740 -0.8447
 2352TIP3   OH231250   5.664   6.463  11.938 -0.4141  0.4664 -0.3850
 2352TIP3    H131251   5.750   6.420  11.937 -0.3633  0.5538 -1.7588
 2352TIP3    H231252   5.606   6.399  11.978  0.3478  0.5505  0.9066
 2353TIP3   OH231253   1.524   1.517  12.181  0.4341 -0.0896 -0.1113
 2353TIP3    H131254   1.561   1.604  12.165  1.1626 -0.0869  1.3560
 2353TIP3    H231255   1.430   1.532  12.185  0.6389  1.1657  2.5300
 2354TIP3   OH231256   0.923   6.003  10.144  0.1681 -0.1552  0.2891
 2354TIP3    H131257   0.860   6.043  10.203 -0.2498  0.6721 -0.6875
 2354TIP3    H231258   0.944   5.918  10.184 -1.0203 -0.1338  0.9847
 2355TIP3   OH231259   1.950   2.167  11.193  0.0790  0.3201 -0.2265
 2355TIP3    H131260   1.892   2.157  11.117  0.1575 -2.2852 -0.0262
 2355TIP3    H231261   1.890   2.164  11.268  0.1329  1.6030 -0.1093
 2356TIP3   OH231262   3.374   1.365  11.932 -0.1301  0.3629  0.5901
 2356TIP3    H131263   3.396   1.409  12.014 -1.5204  0.5853  0.8740
 2356TIP3    H231264   3.279   1.374  11.925 -0.0275  0.4314 -1.1036
 2357TIP3   OH231265   1.862   0.844   9.412  0.2423 -0.1136  0.3464
 2357TIP3    H131266   1.882   0.918   9.355  0.7418 -0.9572 -0.6092
 2357TIP3    H231267   1.948   0.813   9.442  0.0640 -0.4879  0.4814
 2358TIP3   OH231268   4.911   4.615  11.592 -0.5353 -0.0930  0.3238
 2358TIP3    H131269   4.980   4.681  11.592  1.2957 -1.8954  1.7483
 2358TIP3    H231270   4.835   4.659  11.630  0.0522  1.6915 -0.4921
 2359TIP3   OH231271   2.755   5.936  11.608 -0.3018  0.8040 -0.3270
 2359TIP3    H131272   2.846   5.962  11.624 -0.0947  1.5425 -2.3936
 2359TIP3    H231273   2.717   6.011  11.562 -1.2945 -0.3937 -1.5189
 2360TIP3   OH231274   5.963   0.535   9.902  0.2098  0.2262 -0.3003
 2360TIP3    H131275   5.983   0.475   9.830  1.0639  0.1665 -0.0203
 2360TIP3    H231276   5.969   0.481   9.981 -1.1157  0.1952 -0.1915
 2361TIP3   OH231277   1.354   6.586  12.120 -0.3771 -0.3529  0.6048
 2361TIP3    H131278   1.447   6.569  12.105 -0.7559 -1.3963 -0.8045
 2361TIP3    H231279   1.335   6.663  12.067 -0.3963 -0.3702  0.5860
 2362TIP3   OH231280   3.091   4.928  10.436  0.1114 -0.3159  0.1491
 2362TIP3    H131281   3.170   4.974  10.465 -0.4218 -0.7014  2.3525
 2362TIP3    H231282   3.081   4.856  10.498 -1.1212 -1.2186 -1.0392
 2363TIP3   OH231283   3.447   5.951  10.250 -0.1201  0.0824  0.3896
 2363TIP3    H131284   3.434   6.024  10.310  1.5701  1.2819 -0.6170
 2363TIP3    H231285   3.509   5.984  10.185 -0.9338 -1.5526 -1.3340
 2364TIP3   OH231286   5.108   5.377  11.622 -0.0432 -0.0186  0.1104
 2364TIP3    H131287   5.129   5.443  11.687 -0.7831  0.0329  0.3083
 2364TIP3    H231288   5.043   5.321  11.664 -1.7737  0.9607 -1.0877
 2365TIP3   OH231289   5.131   0.744  12.449 -0.4751  0.1338 -0.6089
 2365TIP3    H131290   5.157   0.815  12.507  1.7591  0.0219 -1.3923
 2365TIP3    H231291   5.164   0.769  12.363 -2.9248 -0.1419 -1.7160
 2366TIP3   OH231292   1.868   5.472  11.020  0.2432 -0.1168 -0.0607
 2366TIP3    H131293   1.915   5.389  11.029 -0.1980 -0.3475  0.1718
 2366TIP3    H231294   1.824   5.483  11.104  0.3763  0.4035 -0.0585
 2367TIP3   OH231295   3.321   6.227  12.320 -0.3255 -0.2523  0.1464
 2367TIP3    H131296   3.229   6.213  12.297 -0.2818 -0.1239 -0.1109
 2367TIP3    H231297   3.365   6.145  12.296 -0.4623 -0.5098  0.7634
 2368TIP3   OH231298   1.471   3.486   9.887  0.3002  0.0408  0.3730
 2368TIP3    H131299   1.410   3.454   9.953 -0.3391  0.8616  0.1884
 2368TIP3    H231300   1.544   3.423   9.889 -0.0166 -0.3025  1.3870
 2369TIP3   OH231301   1.352   4.667  10.003  0.0128  0.6103  0.3922
 2369TIP3    H131302   1.422   4.726   9.977 -0.4023  0.1879 -2.0038
 2369TIP3    H231303   1.298   4.717  10.064 -1.4257  3.6005 -2.9173
 2370TIP3   OH231304   2.390   2.338  11.082  0.2048 -0.0502  0.3809
 2370TIP3    H131305   2.316   2.296  11.037  0.3025  0.0852  0.0921
 2370TIP3    H231306   2.406   2.283  11.159 -0.6191  0.2716  0.8065
 2371TIP3   OH231307   0.335   4.439  12.107 -0.0136  0.0435 -0.4962
 2371TIP3    H131308   0.251   4.424  12.149  0.8781  0.4194  1.5291
 2371TIP3    H231309   0.364   4.525  12.140  0.3451  0.7896 -2.6027
 2372TIP3   OH231310   0.586   5.981  12.041  0.6192 -0.2696  0.6485
 2372TIP3    H131311   0.602   6.075  12.030  1.2571 -0.4331  0.0716
 2372TIP3    H231312   0.665   5.939  12.005 -0.0331 -1.0455  0.0698
 2373TIP3   OH231313   0.531   1.581  11.092 -0.0069  0.3642  0.9189
 2373TIP3    H131314   0.503   1.654  11.148 -0.8780  0.5094  0.3147
 2373TIP3    H231315   0.518   1.614  11.003  2.1672  0.4622  0.5745
 2374TIP3   OH231316   1.883   4.043  10.596  0.1057  0.4403 -0.1640
 2374TIP3    H131317   1.833   4.093  10.660 -0.2856  0.8746 -0.7925
 2374TIP3    H231318   1.866   4.088  10.512  2.6960  1.5149 -0.2171
 2375TIP3   OH231319   1.813   1.971  12.196 -0.3207 -0.0712 -0.6546
 2375TIP3    H131320   1.785   2.041  12.255  1.0127  0.8493 -1.0448
 2375TIP3    H231321   1.829   2.015  12.113  1.3340 -0.6667 -0.6895
 2376TIP3   OH231322   4.794   3.120   9.470 -0.3669  0.0651 -0.4019
 2376TIP3    H131323   4.766   3.038   9.509  0.2417 -0.4017 -0.9313
 2376TIP3    H231324   4.887   3.109   9.453  0.0011  1.3189  0.6424
 2377TIP3   OH231325   1.373   4.089  11.519  0.4625  0.6427 -0.1112
 2377TIP3    H131326   1.321   4.135  11.585 -0.2338 -0.5767  0.2168
 2377TIP3    H231327   1.442   4.046  11.569  1.2357  1.4624 -0.4410
 2378TIP3   OH231328   3.174   3.302  11.873 -0.5289  0.2341  0.8646
 2378TIP3    H131329   3.213   3.339  11.794 -0.8852  0.9939  1.0419
 2378TIP3    H231330   3.100   3.359  11.893 -1.8813 -1.2941  0.4313
 2379TIP3   OH231331   6.598   3.524  10.770 -0.8382 -0.2715  0.3637
 2379TIP3    H131332   6.597   3.462  10.842 -0.9825 -1.0687 -0.3082
 2379TIP3    H231333   6.607   3.470  10.692  0.3367  0.6336 -0.1596
 2380TIP3   OH231334   1.092   5.309  10.729 -0.2076  0.2342 -0.1607
 2380TIP3    H131335   1.052   5.396  10.734 -1.7128 -0.4452  0.4049
 2380TIP3    H231336   1.070   5.277  10.641  0.3354  0.4084 -0.3644
 2381TIP3   OH231337   0.939   1.271  11.325  0.6443 -0.2131  0.3749
 2381TIP3    H131338   0.875   1.200  11.327 -0.9434  1.1629  0.3071
 2381TIP3    H231339   0.954   1.292  11.417  0.1340  0.2033  0.3658
 2382TIP3   OH231340   2.032   3.166  10.287  0.1484  0.0986  0.6374
 2382TIP3    H131341   1.992   3.187  10.371  0.1554  1.1975  0.3833
 2382TIP3    H231342   1.959   3.169  10.225  0.3366  0.4429  0.4314
 2383TIP3   OH231343   6.167   3.331   9.981 -0.2078 -0.0239 -0.0859
 2383TIP3    H131344   6.176   3.335   9.886 -3.0109 -0.0520 -0.4440
 2383TIP3    H231345   6.138   3.419  10.006 -2.4533 -0.7900  0.2643
 2384TIP3   OH231346   5.229   0.286  11.078 -0.0427 -0.0862 -0.0221
 2384TIP3    H131347   5.215   0.374  11.042 -1.2283 -0.8776 -1.6633
 2384TIP3    H231348   5.322   0.270  11.067  0.4335  1.4067  1.4552
 2385TIP3   OH231349   0.517   1.409  10.679  0.2539 -0.1880 -0.1146
 2385TIP3    H131350   0.524   1.477  10.746  1.6948  1.5218 -1.8911
 2385TIP3    H231351   0.605   1.374  10.671  0.2353  0.0090 -1.4435
 2386TIP3   OH231352   5.781   4.914  11.067 -0.2141 -0.0875 -0.0727
 2386TIP3    H131353   5.794   4.995  11.018  1.6034 -1.0405 -1.2843
 2386TIP3    H231354   5.811   4.934  11.156  0.7883  0.4089 -0.5150
 2387TIP3   OH231355   6.069   4.088  11.481 -0.0766  0.2066  0.3555
 2387TIP3    H131356   6.116   4.029  11.422 -2.0515  0.0456 -1.1713
 2387TIP3    H231357   6.103   4.067  11.568  2.0141 -0.4568 -0.5560
 2388TIP3   OH231358   2.570   0.792   8.381 -0.2132 -0.0398  0.5377
 2388TIP3    H131359   2.587   0.838   8.299  1.1707 -1.0132  0.2331
 2388TIP3    H231360   2.553   0.861   8.445  0.7956  0.8498 -0.1144
 2389TIP3   OH231361   3.269   1.836   9.652  0.3143  0.1237 -0.2553
 2389TIP3    H131362   3.290   1.903   9.717 -2.0900 -0.7679  1.6225
 2389TIP3    H231363   3.339   1.771   9.661  1.0171  0.9062  0.0875
 2390TIP3   OH231364   6.048   6.083  12.184 -0.6330  0.6692  0.3011
 2390TIP3    H131365   6.014   6.076  12.095  0.1648 -1.0228  0.0661
 2390TIP3    H231366   5.975   6.059  12.240 -0.7018  0.0914 -0.0210
 2391TIP3   OH231367   2.743   5.295  10.043 -0.5996 -0.3805  0.3277
 2391TIP3    H131368   2.675   5.244   9.999 -0.3099 -1.5236  1.1614
 2391TIP3    H231369   2.825   5.261  10.008 -0.4177  0.1820  0.1928
 2392TIP3   OH231370   3.140   0.897  11.517  0.1902  0.0014 -0.3645
 2392TIP3    H131371   3.222   0.912  11.565  0.5974 -1.1688 -0.6671
 2392TIP3    H231372   3.096   0.827  11.565 -1.1280  1.2765  0.3624
 2393TIP3   OH231373   0.318   6.292  11.174  0.0530 -0.1224 -0.5039
 2393TIP3    H131374   0.405   6.258  11.194 -0.7311 -1.3867  1.1065
 2393TIP3    H231375   0.315   6.377  11.217  0.9239  0.5463 -1.7214
 2394TIP3   OH231376   3.407   2.084  10.103 -0.0505 -0.3227  0.1427
 2394TIP3    H131377   3.360   2.006  10.074 -2.1091  0.9605 -0.1888
 2394TIP3    H231378   3.376   2.099  10.192 -0.2574  0.5164 -0.0639
 2395TIP3   OH231379   4.277   1.805   9.936  0.2021 -0.7806 -0.6606
 2395TIP3    H131380   4.239   1.892   9.929  0.3271 -0.6566  0.1406
 2395TIP3    H231381   4.318   1.790   9.851  3.4946  1.4870  0.3514
 2396TIP3   OH231382   0.969   2.939   9.401  0.5221 -0.7899 -0.2732
 2396TIP3    H131383   0.890   2.987   9.424  1.2309  0.3880 -0.1887
 2396TIP3    H231384   1.036   3.007   9.389  1.6166 -1.7709  0.0524
 2397TIP3   OH231385   1.346   0.727  10.946 -0.1447 -0.0030 -0.2065
 2397TIP3    H131386   1.403   0.802  10.962 -0.5506  0.3147 -0.2317
 2397TIP3    H231387   1.323   0.696  11.033 -2.8749  2.1197 -0.0116
 2398TIP3   OH231388   2.422   3.315  10.162 -0.2339 -0.1682 -0.0664
 2398TIP3    H131389   2.426   3.397  10.112 -0.4060  0.4549  0.9184
 2398TIP3    H231390   2.363   3.259  10.111 -1.7572  1.0644  0.2713
 2399TIP3   OH231391   3.152   6.305   9.095 -0.1972  0.2610 -0.0479
 2399TIP3    H131392   3.075   6.360   9.078  0.4390  1.3903  0.5412
 2399TIP3    H231393   3.169   6.317   9.189 -1.0214 -2.3134  0.5157
 2400TIP3   OH231394   0.173   5.529  11.802 -0.0157 -0.8752 -0.8894
 2400TIP3    H131395   0.256   5.482  11.794  0.5003 -0.0198 -0.7334
 2400TIP3    H231396   0.182   5.602  11.741  0.4243  0.7249  0.9825
 2401TIP3   OH231397   3.139   0.548  10.112 -0.3339  0.5210 -0.0107
 2401TIP3    H131398   3.178   0.577  10.195  0.5749 -0.0052 -0.2393
 2401TIP3    H231399   3.180   0.463  10.095 -2.8955 -0.9459  0.6299
 2402TIP3   OH231400   5.758   5.599   9.690 -0.4096 -0.2921 -0.2179
 2402TIP3    H131401   5.749   5.642   9.605 -0.2378  0.1979  0.0086
 2402TIP3    H231402   5.691   5.640   9.745  1.0474  1.1324  0.5771
 2403TIP3   OH231403   5.005   3.741   8.829  0.2623 -0.1069  0.0941
 2403TIP3    H131404   5.056   3.721   8.751 -0.3392  1.2677 -0.6842
 2403TIP3    H231405   4.932   3.794   8.798 -0.2347  0.1077  1.5272
 2404TIP3   OH231406   3.870   1.589  10.402 -0.1796  0.2780  0.1356
 2404TIP3    H131407   3.839   1.655  10.465 -0.0031  0.0686  0.4430
 2404TIP3    H231408   3.964   1.583  10.418 -0.3433 -0.7672  0.8036
 2405TIP3   OH231409   4.220   4.948  12.599  0.1974  0.2273  0.7883
 2405TIP3    H131410   4.189   5.038  12.599  0.1778  0.2575  2.5842
 2405TIP3    H231411   4.310   4.953  12.631  0.0073 -0.4150  1.4780
 2406TIP3   OH231412   2.697   2.039   9.188 -0.0686 -0.3955 -0.0924
 2406TIP3    H131413   2.608   2.063   9.163  0.1077 -0.7597 -1.1143
 2406TIP3    H231414   2.731   2.117   9.232 -0.2208  0.4986 -1.4962
 2407TIP3   OH231415   2.691   3.778  11.450 -0.1215 -0.1159 -0.1189
 2407TIP3    H131416   2.656   3.697  11.486  0.2626  0.1347  0.8651
 2407TIP3    H231417   2.782   3.779  11.478  0.1353  0.2037 -0.9362
 2408TIP3   OH231418   3.088   0.161  10.777 -0.2737 -0.4945  0.8481
 2408TIP3    H131419   3.119   0.240  10.822 -2.2222  0.0459  1.3260
 2408TIP3    H231420   3.153   0.146  10.708 -0.5754  2.3725 -0.1961
 2409TIP3   OH231421   3.717   3.631  11.091 -0.0876 -0.0006  0.2217
 2409TIP3    H131422   3.658   3.558  11.076 -0.5391  0.0940  1.4589
 2409TIP3    H231423   3.694   3.663  11.178  0.5525  1.1905 -0.0260
 2410TIP3   OH231424   6.341   3.169  12.180  0.2411 -0.0096 -0.2076
 2410TIP3    H131425   6.274   3.123  12.130 -1.0368  2.5863 -1.0546
 2410TIP3    H231426   6.349   3.119  12.262 -1.7265 -1.1287 -0.6420
 2411TIP3   OH231427   5.270   0.219   9.245 -0.1395  0.1293  0.0757
 2411TIP3    H131428   5.344   0.207   9.305  0.2564 -1.3858 -0.6412
 2411TIP3    H231429   5.305   0.275   9.176  0.0169  0.2838  0.2783
 2412TIP3   OH231430   1.104   5.335   9.679 -0.0523 -0.1081  0.2338
 2412TIP3    H131431   1.136   5.408   9.733  0.5773 -0.7211  0.7005
 2412TIP3    H231432   1.183   5.295   9.644 -0.4616  0.7523 -1.8238
 2413TIP3   OH231433   5.056   0.869  10.295 -0.0178 -0.0911 -0.6053
 2413TIP3    H131434   5.049   0.887  10.201  2.0003  0.0639 -0.7684
 2413TIP3    H231435   5.091   0.780  10.300  1.3851  0.4568 -0.0665
 2414TIP3   OH231436   0.295   5.345  12.349 -0.2787 -0.3625  0.5307
 2414TIP3    H131437   0.348   5.425  12.357 -1.5292  0.5245  0.3441
 2414TIP3    H231438   0.231   5.352  12.420 -1.7122 -0.1414 -0.7357
 2415TIP3   OH231439   5.102   1.584   9.021 -0.3155 -0.3862 -0.7076
 2415TIP3    H131440   5.180   1.532   9.000  0.1888  0.1184 -0.1516
 2415TIP3    H231441   5.122   1.671   8.987 -1.1860 -0.5575 -1.7054
 2416TIP3   OH231442   3.504   5.658  11.883 -0.3525 -0.6349  0.2638
 2416TIP3    H131443   3.546   5.732  11.839  3.2028 -2.2298  0.6038
 2416TIP3    H231444   3.502   5.682  11.976  0.6603 -0.8384  0.3521
 2417TIP3   OH231445   1.616   1.085  10.421 -0.2842 -0.5271  0.3244
 2417TIP3    H131446   1.612   1.179  10.438 -0.8162 -0.5159  0.1390
 2417TIP3    H231447   1.681   1.076  10.351  1.4232 -0.5082  1.8284
 2418TIP3   OH231448   1.043   4.010   9.562  0.0215  0.0607 -0.1143
 2418TIP3    H131449   0.959   3.966   9.575  0.6254 -0.5720  2.0816
 2418TIP3    H231450   1.038   4.045   9.473 -1.9937 -1.1656 -0.5522
 2419TIP3   OH231451   5.756   2.907  10.051  0.5884  0.1897  0.2847
 2419TIP3    H131452   5.801   2.890  10.134 -0.9163  0.0141  1.1053
 2419TIP3    H231453   5.664   2.890  10.070  0.4460 -2.6862 -2.1863
 2420TIP3   OH231454   0.566   6.067  11.054 -0.1667  0.4130 -0.1384
 2420TIP3    H131455   0.526   5.996  11.004 -0.1677  0.4193 -0.1464
 2420TIP3    H231456   0.521   6.065  11.138 -0.7988  0.9815 -0.4565
 2421TIP3   OH231457   4.307   3.136  12.151 -0.0524  0.0483 -0.3173
 2421TIP3    H131458   4.217   3.131  12.183 -0.5740  0.0869 -1.7066
 2421TIP3    H231459   4.305   3.092  12.066  1.5622 -1.1812  0.2321
 2422TIP3   OH231460   2.551   1.888  11.336  0.2085 -0.1507 -0.6256
 2422TIP3    H131461   2.627   1.899  11.280  0.3996 -0.7903 -0.4982
 2422TIP3    H231462   2.586   1.878  11.424 -0.1080  1.2684 -0.3045
 2423TIP3   OH231463   2.433   5.438  10.826 -0.2545 -0.0561  0.8663
 2423TIP3    H131464   2.368   5.456  10.894  0.2601  0.7666  1.1629
 2423TIP3    H231465   2.439   5.343  10.823 -2.8731 -0.2686 -0.5428
 2424TIP3   OH231466   6.502   5.070  10.020  0.2759  0.1363  0.3454
 2424TIP3    H131467   6.524   5.153   9.978 -0.9505  0.8068  0.9832
 2424TIP3    H231468   6.555   5.070  10.100  0.3683  0.2436  0.2846
 2425TIP3   OH231469   6.486   2.867   9.957  0.0421 -0.3841  0.4175
 2425TIP3    H131470   6.421   2.900   9.895 -2.1066 -2.3264  1.4946
 2425TIP3    H231471   6.542   2.809   9.905 -0.7137 -0.6972 -0.0655
 2426TIP3   OH231472   6.103   2.644  10.145 -0.1465 -0.0001  0.1070
 2426TIP3    H131473   6.186   2.692  10.142  0.1597 -0.5636 -0.5267
 2426TIP3    H231474   6.079   2.643  10.238  0.6617 -0.0236  0.3206
 2427TIP3   OH231475   5.252   2.729  11.786 -0.0929 -0.3529 -0.0462
 2427TIP3    H131476   5.253   2.803  11.725 -0.4701 -0.3797 -0.0901
 2427TIP3    H231477   5.298   2.760  11.864 -0.0203 -0.1626 -0.1654
 2428TIP3   OH231478   6.246   0.421  10.158  0.1378 -1.0826 -0.2966
 2428TIP3    H131479   6.342   0.427  10.155  0.1392 -0.2481  0.8542
 2428TIP3    H231480   6.218   0.503  10.199 -1.2151 -0.4218 -2.3421
 2429TIP3   OH231481   3.968   1.696  12.123  0.2545  0.6244 -0.0295
 2429TIP3    H131482   4.046   1.671  12.074 -0.1398 -2.3198  0.6565
 2429TIP3    H231483   3.895   1.664  12.070 -0.1997 -2.0950  2.0255
 2430TIP3   OH231484   2.152   4.321   9.830 -0.0812  0.2019  0.1964
 2430TIP3    H131485   2.201   4.369   9.763 -1.6902  1.5797 -0.0659
 2430TIP3    H231486   2.107   4.251   9.783 -0.7066  0.7801 -0.0818
 2431TIP3   OH231487   3.516   3.976  10.140  0.2722 -0.2727  0.3068
 2431TIP3    H131488   3.477   4.029  10.070  0.3183 -1.0214 -0.2957
 2431TIP3    H231489   3.607   4.005  10.144  0.0130  0.5097  0.7825
 2432TIP3   OH231490   1.008   3.629  12.183 -0.0035  0.0003 -0.0291
 2432TIP3    H131491   0.979   3.630  12.092  1.8134  0.2055 -0.6438
 2432TIP3    H231492   1.101   3.650  12.179 -0.2314  1.8030  2.0217
 2433TIP3   OH231493   6.251   6.531  12.582  0.5229 -0.0284 -0.6937
 2433TIP3    H131494   6.192   6.551  12.654  0.9632 -1.5067  0.1211
 2433TIP3    H231495   6.223   6.444  12.551  1.4947 -0.2193 -1.0896
 2434TIP3   OH231496   3.530   5.544  10.746 -0.4861 -0.1458  0.0367
 2434TIP3    H131497   3.612   5.532  10.794 -0.6283  0.7601  0.5176
 2434TIP3    H231498   3.462   5.544  10.813 -0.7429  0.5111 -0.2132
 2435TIP3   OH231499   5.720   4.414  11.316 -0.2969  0.0200 -0.2261
 2435TIP3    H131500   5.713   4.506  11.291 -0.7861  0.0984  0.1751
 2435TIP3    H231501   5.757   4.416  11.404  0.7480 -0.2224 -0.6472
 2436TIP3   OH231502   2.274   3.299   9.721 -0.4129  0.6995  0.1203
 2436TIP3    H131503   2.237   3.329   9.638 -3.4160  0.8367  1.3667
 2436TIP3    H231504   2.243   3.209   9.729  0.8039  0.3140  0.5828
 2437TIP3   OH231505   3.929   4.562  10.150 -0.5540 -0.2476  0.4022
 2437TIP3    H131506   3.992   4.631  10.126 -0.5810 -0.3336  0.0896
 2437TIP3    H231507   3.954   4.538  10.239  0.0282 -0.4688  0.1859
 2438TIP3   OH231508   3.120   5.781   8.906  0.1992  0.1629  0.3631
 2438TIP3    H131509   3.216   5.787   8.905  0.1636  1.3523 -1.9035
 2438TIP3    H231510   3.099   5.709   8.847 -0.3212  0.8946 -0.3629
 2439TIP3   OH231511   6.367   0.063  11.996 -0.0426 -0.5834 -0.4860
 2439TIP3    H131512   6.290   0.010  11.975 -0.4085 -0.4013  0.3704
 2439TIP3    H231513   6.436   0.027  11.940 -0.2189 -2.1373  0.2468
 2440TIP3   OH231514   1.089   4.616  11.099 -0.4807 -0.5240  0.6156
 2440TIP3    H131515   1.148   4.614  11.174 -1.8436 -2.2642  1.7033
 2440TIP3    H231516   1.054   4.705  11.098  1.8791  0.4773  0.0951
 2441TIP3   OH231517   1.534   1.322   9.047 -0.3710  0.2401 -0.0029
 2441TIP3    H131518   1.620   1.350   9.078 -0.4205  0.4273 -0.0338
 2441TIP3    H231519   1.540   1.325   8.952 -0.4905  0.4972 -0.0032
 2442TIP3   OH231520   6.437   4.143  11.731  0.4906  0.0474 -0.3074
 2442TIP3    H131521   6.428   4.120  11.824 -1.5418  0.5049 -0.3519
 2442TIP3    H231522   6.491   4.073  11.694 -0.1199 -1.0853  0.8647
 2443TIP3   OH231523   6.484   4.766  10.242 -0.4317 -0.1045 -0.3901
 2443TIP3    H131524   6.558   4.827  10.251  0.0539 -0.7467  0.0273
 2443TIP3    H231525   6.480   4.722  10.327 -2.7712  1.5663  0.4715
 2444TIP3   OH231526   1.811   4.156  10.358 -0.4627  0.0819  0.0054
 2444TIP3    H131527   1.781   4.128  10.271 -0.3763  0.4950 -0.1579
 2444TIP3    H231528   1.816   4.251  10.352 -0.0954  0.0852  0.3510
 2445TIP3   OH231529   5.884   0.366  12.385  0.0948 -0.1755  0.5339
 2445TIP3    H131530   5.967   0.398  12.420  1.1025 -0.7953 -1.1851
 2445TIP3    H231531   5.818   0.422  12.425  1.4084  0.8785  1.2971
 2446TIP3   OH231532   2.169   4.983  10.960 -0.7910  0.0264  0.0662
 2446TIP3    H131533   2.105   4.943  11.020  0.4929 -1.0840  0.7623
 2446TIP3    H231534   2.207   4.909  10.913  0.1505  0.6369 -0.1560
 2447TIP3   OH231535   5.875   0.906  11.263  0.0629  0.2579 -0.0382
 2447TIP3    H131536   5.840   0.839  11.322 -0.2284  0.7986  0.4054
 2447TIP3    H231537   5.814   0.979  11.272  0.8222  0.8778  0.0687
 2448TIP3   OH231538   1.681   5.289  12.413  0.0038 -0.0326 -0.0746
 2448TIP3    H131539   1.599   5.242  12.429 -0.3740  0.2246 -1.1781
 2448TIP3    H231540   1.747   5.221  12.404  0.0254 -0.2233  1.3506
 2449TIP3   OH231541   4.666   0.767  10.338 -0.0164  0.0604 -0.5713
 2449TIP3    H131542   4.731   0.718  10.288  2.0240 -0.1464  2.0544
 2449TIP3    H231543   4.600   0.702  10.362  0.1877 -0.3351 -1.0751
 2450TIP3   OH231544   6.128   6.440  11.119 -0.2201 -0.1252  0.3821
 2450TIP3    H131545   6.088   6.368  11.168 -2.8342  0.9026 -0.1022
 2450TIP3    H231546   6.080   6.518  11.146  1.4908  1.2312 -0.2951
 2451TIP3   OH231547   5.681   1.637  10.953 -0.0602  0.2995 -0.2674
 2451TIP3    H131548   5.762   1.673  10.917 -0.4566  0.9941 -0.4863
 2451TIP3    H231549   5.624   1.627  10.876  0.7439 -2.8504 -0.5941
 2452TIP3   OH231550   2.973   5.513   9.378 -0.9623 -0.1068  0.2207
 2452TIP3    H131551   3.030   5.494   9.453 -0.2548 -0.4328 -0.3863
 2452TIP3    H231552   2.975   5.433   9.326 -2.1348 -0.1863  0.2695
 2453TIP3   OH231553   3.000   3.691   9.576  0.3887  0.1408 -0.5243
 2453TIP3    H131554   3.027   3.720   9.489  0.6997 -0.6635 -0.7051
 2453TIP3    H231555   2.977   3.599   9.565  2.8601 -0.7143  0.7271
 2454TIP3   OH231556   5.207   4.285  10.762 -0.3597 -0.8342 -0.4315
 2454TIP3    H131557   5.164   4.349  10.704 -0.8177 -0.4337  0.3254
 2454TIP3    H231558   5.230   4.336  10.840  0.4425 -1.3159 -0.3484
 2455TIP3   OH231559   3.257   4.102  10.254  0.1678  0.3520 -0.8520
 2455TIP3    H131560   3.248   4.017  10.296 -1.1279  1.1109  0.5271
 2455TIP3    H231561   3.282   4.083  10.163 -1.3517 -1.5412 -0.9202
 2456TIP3   OH231562   1.177   5.663  10.402  0.2772  0.5911  0.0506
 2456TIP3    H131563   1.251   5.685  10.459 -0.2506  0.7967  0.6590
 2456TIP3    H231564   1.102   5.706  10.442 -0.2623 -0.0146 -0.2915
 2457TIP3   OH231565   2.094   1.590  10.630  0.1023  0.6740  0.0118
 2457TIP3    H131566   2.063   1.519  10.687  0.8979  0.5988  0.3556
 2457TIP3    H231567   2.179   1.614  10.665 -0.1980  1.8720 -0.0526
 2458TIP3   OH231568   2.621   1.373   9.630  0.2925 -0.0915  0.3307
 2458TIP3    H131569   2.571   1.452   9.610  0.6829 -0.2466 -1.3485
 2458TIP3    H231570   2.555   1.303   9.632  0.1757  0.0091  0.0687
 2459TIP3   OH231571   5.196   0.521  10.942 -0.1283  0.5602 -0.2601
 2459TIP3    H131572   5.264   0.581  10.910 -0.9384  3.7678  3.2599
 2459TIP3    H231573   5.116   0.573  10.943 -1.4309 -1.3300  0.8591
 2460TIP3   OH231574   5.114   2.078  12.264  0.2851 -0.3946  0.1162
 2460TIP3    H131575   5.041   2.137  12.246  1.7545  1.2461 -0.8414
 2460TIP3    H231576   5.103   2.006  12.203 -0.2753  0.0965 -0.3708
 2461TIP3   OH231577   3.374   5.594  11.432  0.3731 -0.2969 -0.1848
 2461TIP3    H131578   3.432   5.611  11.358  1.3520 -2.1000  0.1102
 2461TIP3    H231579   3.306   5.537  11.396  0.6382 -0.8600  0.1807
 2462TIP3   OH231580   3.929   1.013  12.107  0.4332 -0.6380  0.0623
 2462TIP3    H131581   4.009   1.065  12.106  1.0118 -1.5001 -1.3318
 2462TIP3    H231582   3.866   1.068  12.154  1.9088 -0.1032  1.5477
 2463TIP3   OH231583   5.077   5.132  11.344 -0.2766 -0.5482  0.7929
 2463TIP3    H131584   5.100   5.134  11.251  0.3428 -0.2271  0.9422
 2463TIP3    H231585   4.983   5.151  11.346 -0.0038  1.0556  0.3101
 2464TIP3   OH231586   0.350   3.706  10.703  0.2163 -0.1543  0.0361
 2464TIP3    H131587   0.307   3.642  10.646  0.1607  1.1907 -1.5182
 2464TIP3    H231588   0.436   3.718  10.664 -0.7181  2.7248 -1.4757
 2465TIP3   OH231589   2.843   1.802  12.232  0.4289 -0.4600  0.0721
 2465TIP3    H131590   2.767   1.845  12.192  0.6935 -0.7762 -0.8040
 2465TIP3    H231591   2.891   1.874  12.274 -0.3450 -0.2586  0.6265
 2466TIP3   OH231592   6.607   1.624  11.440 -0.1514 -0.2532 -0.3131
 2466TIP3    H131593   6.513   1.639  11.439 -0.1136 -0.0465 -0.6944
 2466TIP3    H231594   6.644   1.700  11.396  0.2673  0.2101  0.8112
 2467TIP3   OH231595   2.726   2.423  11.452 -0.3210  0.1200  0.0355
 2467TIP3    H131596   2.717   2.371  11.532  0.6028 -1.0260 -0.5801
 2467TIP3    H231597   2.643   2.470  11.444 -0.7096 -0.3276  1.2616
 2468TIP3   OH231598   2.714   5.072  10.219  0.6033 -0.4433 -0.2004
 2468TIP3    H131599   2.684   5.098  10.132  2.1472  0.3822 -0.5365
 2468TIP3    H231600   2.755   5.151  10.254 -0.0538 -0.7422  1.3224
 2469TIP3   OH231601   5.883   3.519  10.747 -0.1506 -0.0600 -0.4321
 2469TIP3    H131602   5.788   3.528  10.739 -0.2466 -0.5421  0.0670
 2469TIP3    H231603   5.918   3.600  10.711 -0.6996 -0.3198 -1.6027
 2470TIP3   OH231604   4.413   5.582  10.426  0.1872  0.2280  0.6348
 2470TIP3    H131605   4.363   5.653  10.387 -0.7016  0.9239  2.8977
 2470TIP3    H231606   4.354   5.507  10.423  0.7145 -0.1754 -0.7197
 2471TIP3   OH231607   0.611   1.660   9.763  0.7654  0.4639  0.1150
 2471TIP3    H131608   0.588   1.646   9.855 -1.2245  0.6224 -0.3148
 2471TIP3    H231609   0.698   1.622   9.754  0.7881 -0.0021  1.9505
 2472TIP3   OH231610   4.777   1.422  11.649  0.4504  0.2107  0.0065
 2472TIP3    H131611   4.831   1.483  11.600 -1.1679  0.2996 -1.7619
 2472TIP3    H231612   4.694   1.419  11.602 -0.6653 -0.8922  1.8836
 2473TIP3   OH231613   5.979   6.612  12.676 -0.0186  0.1732  0.2015
 2473TIP3    H131614   5.930   6.534  12.652 -1.2400  1.1014 -0.4145
 2473TIP3    H231615   5.931   6.650  12.750  0.2641  0.6120  0.1688
 2474TIP3   OH231616   1.540   2.365   9.775 -0.4072 -0.1774  0.2928
 2474TIP3    H131617   1.473   2.297   9.781  0.0984 -0.6287  1.0025
 2474TIP3    H231618   1.615   2.321   9.734  0.0233 -0.1417  1.0164
 2475TIP3   OH231619   3.654   4.326   9.916 -0.2829 -0.2135 -0.5561
 2475TIP3    H131620   3.694   4.306   9.831 -0.3288 -0.8291 -0.4405
 2475TIP3    H231621   3.721   4.302   9.980 -0.1023  0.6159 -0.4286
 2476TIP3   OH231622   6.545   1.903  12.350 -0.5056  0.4282  0.1781
 2476TIP3    H131623   6.539   1.992  12.316  2.4386 -0.1466 -2.3220
 2476TIP3    H231624   6.626   1.903  12.401  0.1830 -1.0177 -0.8287
 2477TIP3   OH231625   6.542   3.531  12.037 -0.2130  0.0543  0.3655
 2477TIP3    H131626   6.483   3.590  12.084  0.1931  0.0080  0.9406
 2477TIP3    H231627   6.629   3.554  12.069  0.2712  1.1496 -1.5689
 2478TIP3   OH231628   4.944   3.530  11.923  0.7794  0.7093 -0.3518
 2478TIP3    H131629   4.937   3.624  11.943 -0.3971  0.6023 -0.2079
 2478TIP3    H231630   5.024   3.503  11.968  0.0457  1.2250  1.3594
 2479TIP3   OH231631   0.430   1.574  11.869  0.0846 -0.1853 -0.2687
 2479TIP3    H131632   0.384   1.560  11.786  0.4197 -0.7203 -0.3698
 2479TIP3    H231633   0.385   1.647  11.909  0.2612  0.4392 -1.1725
 2480TIP3   OH231634   2.766   4.400  12.056  0.0335 -0.4776 -0.2844
 2480TIP3    H131635   2.782   4.466  11.989 -1.6444 -0.4588 -0.7219
 2480TIP3    H231636   2.809   4.434  12.134  0.4259  0.4154 -0.8806
 2481TIP3   OH231637   0.571   6.523  10.585 -0.4190  0.0280 -0.1381
 2481TIP3    H131638   0.530   6.437  10.587  0.1632 -0.3083 -1.6208
 2481TIP3    H231639   0.571   6.548  10.493 -0.0269  1.3495  0.1984
 2482TIP3   OH231640   5.873   2.052  12.357 -0.2960 -0.2214 -1.1013
 2482TIP3    H131641   5.936   2.045  12.285 -2.6049 -0.7835 -3.1926
 2482TIP3    H231642   5.873   1.965  12.397 -0.7069 -0.6573 -2.0045
 2483TIP3   OH231643   6.450   2.589  10.800 -0.0294  0.8563 -0.5029
 2483TIP3    H131644   6.381   2.585  10.866  0.4575  2.2594  0.1256
 2483TIP3    H231645   6.410   2.635  10.726 -0.0670  0.7755 -0.5330
 2484TIP3   OH231646   0.159   5.119   9.790  0.6503 -0.1908  0.4731
 2484TIP3    H131647   0.178   5.177   9.716  0.7498 -0.4888  0.2630
 2484TIP3    H231648   0.102   5.170   9.847  0.5106  0.0101  0.1518
 2485TIP3   OH231649   4.890   0.010  11.041  0.0890 -0.0456  0.1252
 2485TIP3    H131650   4.966   0.045  11.087 -1.3538 -0.7410  3.3379
 2485TIP3    H231651   4.826   0.082  11.042  0.3299  0.2421 -1.7534
 2486TIP3   OH231652   0.967   6.178   9.938 -0.3425 -0.3121  0.5438
 2486TIP3    H131653   0.967   6.257   9.993 -0.5151 -0.1653  0.3335
 2486TIP3    H231654   0.959   6.106  10.000  5.2251 -0.6433  1.4566
 2487TIP3   OH231655   5.186   5.640   9.763 -0.5145 -0.4149  0.1999
 2487TIP3    H131656   5.150   5.567   9.814 -3.3559 -0.2695 -1.3752
 2487TIP3    H231657   5.180   5.611   9.672  3.0932 -0.1141 -0.2733
 2488TIP3   OH231658   0.272   4.524   9.815  0.7251 -0.3803 -0.4045
 2488TIP3    H131659   0.274   4.568   9.901 -1.1533  1.7830 -1.3689
 2488TIP3    H231660   0.342   4.567   9.765  0.6059 -0.3389 -0.5352
 2489TIP3   OH231661   5.493   3.579  10.068 -0.2623 -0.3268  0.0195
 2489TIP3    H131662   5.574   3.556  10.112 -0.8165 -0.3698  1.0345
 2489TIP3    H231663   5.515   3.657  10.017  0.4294 -0.3864  0.2227
 2490TIP3   OH231664   2.026   3.811  11.835 -0.3341 -0.0755  0.3670
 2490TIP3    H131665   1.991   3.785  11.920  0.6414  2.1078  1.5119
 2490TIP3    H231666   2.120   3.814  11.848 -0.2721  1.9386 -0.2417
 2491TIP3   OH231667   0.324   3.508  12.111 -0.2893 -0.0028  0.0238
 2491TIP3    H131668   0.301   3.415  12.111 -0.4013  0.0248  0.1958
 2491TIP3    H231669   0.411   3.511  12.152 -0.6881  0.0675  0.8705
 2492TIP3   OH231670   0.508   0.872   9.640 -0.0253 -1.2304 -0.0545
 2492TIP3    H131671   0.529   0.942   9.701 -1.1450 -0.4998 -0.4711
 2492TIP3    H231672   0.584   0.866   9.582 -0.5295  0.7562 -1.0057
 2493TIP3   OH231673   0.246   4.924   9.071  0.1665 -0.4681 -0.0737
 2493TIP3    H131674   0.287   4.924   8.985 -0.3142 -2.1419 -0.3436
 2493TIP3    H231675   0.301   4.867   9.124 -1.3224 -2.1121 -0.2252
 2494TIP3   OH231676   4.997   4.529   9.204 -0.1537  0.6821  0.4551
 2494TIP3    H131677   4.949   4.446   9.208  1.3753 -0.3421 -0.9278
 2494TIP3    H231678   5.086   4.506   9.233 -0.0389  2.1524  1.3579
 2495TIP3   OH231679   1.276   2.238   9.822 -0.9197 -0.4005 -0.1029
 2495TIP3    H131680   1.276   2.222   9.917  2.2825  2.0613  0.5000
 2495TIP3    H231681   1.241   2.327   9.814 -0.2345 -0.2215 -1.1373
 2496TIP3   OH231682   4.499   0.885  10.046  0.7354 -0.0621 -0.3859
 2496TIP3    H131683   4.511   0.966  10.095 -0.0917 -0.2180  0.0918
 2496TIP3    H231684   4.580   0.836  10.060  0.5896 -0.0158  0.6605
 2497TIP3   OH231685   4.505   1.078  11.431 -0.2162  0.2109 -0.3522
 2497TIP3    H131686   4.489   1.128  11.511  0.3513 -0.0887 -0.0437
 2497TIP3    H231687   4.420   1.040  11.409  0.1308 -1.9675  1.6599
 2498TIP3   OH231688   4.449   2.944  12.353  0.3031  0.0167 -0.0850
 2498TIP3    H131689   4.409   3.006  12.292  1.9234  0.3083 -0.9204
 2498TIP3    H231690   4.375   2.906  12.400 -0.9688  0.3658 -1.6769
 2499TIP3   OH231691   0.641   4.978  11.854 -0.9062 -0.0904 -0.1474
 2499TIP3    H131692   0.714   4.918  11.875 -0.4056  0.3692 -0.5320
 2499TIP3    H231693   0.597   4.936  11.780 -1.1148 -0.4379  0.1722
 2500TIP3   OH231694   3.433   0.388   8.485  0.1245 -0.0929  0.7091
 2500TIP3    H131695   3.415   0.296   8.468  0.7035 -0.4065  1.6727
 2500TIP3    H231696   3.445   0.427   8.399  0.4600 -1.0477  0.3100
 2501TIP3   OH231697   4.713   5.295  10.700  0.1233 -0.4213  0.0547
 2501TIP3    H131698   4.654   5.370  10.707  1.0303  0.5573 -1.7370
 2501TIP3    H231699   4.669   5.235  10.640 -0.7180 -1.4787  1.6910
 2502TIP3   OH231700   2.797   1.390   9.308  0.3084  0.3569 -0.3925
 2502TIP3    H131701   2.841   1.343   9.237  0.4950 -1.2034  0.7255
 2502TIP3    H231702   2.829   1.480   9.300  1.1014 -0.0095 -1.6479
 2503TIP3   OH231703   5.159   1.076  12.239 -0.0209  0.8502  0.1464
 2503TIP3    H131704   5.158   1.115  12.152 -1.8469  0.5803  0.0079
 2503TIP3    H231705   5.080   1.021  12.242 -0.6498  1.7608  2.3528
 2504TIP3   OH231706   1.727   1.876   8.396 -0.2501 -0.0793 -0.1697
 2504TIP3    H131707   1.713   1.940   8.327  2.6556  1.1088  0.1807
 2504TIP3    H231708   1.796   1.818   8.361  0.0573 -0.4892  1.0595
 2505TIP3   OH231709   3.144   3.572   9.085  0.0930 -0.2183 -0.2475
 2505TIP3    H131710   3.110   3.608   9.003 -0.7631  0.2297  0.2945
 2505TIP3    H231711   3.067   3.542   9.133  0.5055  0.2201  0.7267
 2506TIP3   OH231712   2.071   0.457  11.543  0.0001 -0.0143  0.5715
 2506TIP3    H131713   2.067   0.537  11.596  0.8436  0.6383 -0.3082
 2506TIP3    H231714   1.992   0.461  11.488  1.1732  1.4908 -1.1560
 2507TIP3   OH231715   6.126   0.245  10.432 -0.1403 -0.0305 -0.4554
 2507TIP3    H131716   6.175   0.257  10.513 -0.3972 -1.3969 -0.0657
 2507TIP3    H231717   6.101   0.334  10.406 -0.1084  0.4349  0.9920
 2508TIP3   OH231718   1.453   3.123   9.599  0.0768 -0.4233  0.4064
 2508TIP3    H131719   1.501   3.106   9.517  0.2818  0.0371  0.4252
 2508TIP3    H231720   1.399   3.046   9.611  2.3456 -1.9510  1.4884
 2509TIP3   OH231721   4.132   2.603  10.116 -0.0994 -0.1136 -0.3497
 2509TIP3    H131722   4.075   2.527  10.129 -0.2797  0.0994  0.1023
 2509TIP3    H231723   4.167   2.591  10.027 -0.0059 -0.8001 -0.2263
 2510TIP3   OH231724   4.533   3.506   9.323 -0.4401 -0.6675 -0.4184
 2510TIP3    H131725   4.519   3.600   9.314 -1.3703 -0.8051 -0.4549
 2510TIP3    H231726   4.470   3.466   9.263 -3.2415 -1.4633  2.7587
 2511TIP3   OH231727   4.762   0.456  11.602 -0.1036 -0.1680  0.1426
 2511TIP3    H131728   4.795   0.535  11.559  1.6075 -0.3931  0.9461
 2511TIP3    H231729   4.763   0.390  11.533 -0.5664  0.2595 -0.2812
 2512TIP3   OH231730   5.648   4.633  10.038 -0.2516 -0.4081 -0.0881
 2512TIP3    H131731   5.674   4.721  10.067  0.5318 -0.6971  0.1248
 2512TIP3    H231732   5.553   4.633  10.042 -0.2521  0.3849  0.0599
 2513TIP3   OH231733   4.273   0.793  10.493 -0.5609 -0.5000  0.2816
 2513TIP3    H131734   4.290   0.884  10.469 -2.3426 -0.2198 -0.0460
 2513TIP3    H231735   4.178   0.789  10.506 -0.6697 -2.5480 -0.7839
 2514TIP3   OH231736   2.710   2.264   9.361 -0.2029 -0.3335 -0.0115
 2514TIP3    H131737   2.748   2.350   9.341 -0.2969 -0.6074 -1.4757
 2514TIP3    H231738   2.616   2.277   9.345 -0.0802 -0.9979 -1.4013
 2515TIP3   OH231739   0.408   0.211  11.006  0.4894  0.3821  0.4563
 2515TIP3    H131740   0.386   0.267  10.931  2.1269  2.5276  1.4422
 2515TIP3    H231741   0.334   0.219  11.065  0.1588  0.5063  0.0255
 2516TIP3   OH231742   4.518   2.318   9.607  0.1454 -0.0187 -0.0513
 2516TIP3    H131743   4.579   2.388   9.629 -1.4729  1.5270 -0.2972
 2516TIP3    H231744   4.538   2.297   9.515 -1.0982  2.0632 -0.8677
 2517TIP3   OH231745   5.826   4.762  10.327  0.2181  0.1638 -0.2138
 2517TIP3    H131746   5.847   4.846  10.285 -1.2889  0.2356 -0.8992
 2517TIP3    H231747   5.747   4.780  10.379  1.0121 -0.3790  1.2297
 2518TIP3   OH231748   4.725   1.202  10.537  0.3062  0.1330  0.1533
 2518TIP3    H131749   4.745   1.293  10.560 -0.8638  0.6155 -0.6713
 2518TIP3    H231750   4.658   1.208  10.469 -0.3548 -1.3565  0.6317
 2519TIP3   OH231751   2.189   6.610  10.212 -0.5238 -0.7773  0.5996
 2519TIP3    H131752   2.096   6.631  10.219 -0.3093  0.4421  0.0406
 2519TIP3    H231753   2.218   6.596  10.302 -0.8941  0.5115  0.9404
 2520TIP3   OH231754   4.625   3.604  10.246 -0.0316 -0.1568  0.1556
 2520TIP3    H131755   4.703   3.659  10.241  0.9695 -1.6050 -0.6596
 2520TIP3    H231756   4.656   3.522  10.284 -1.0518 -0.9323 -0.6305
 2521TIP3   OH231757   3.086   3.679   8.558 -0.2901  0.1762 -0.0483
 2521TIP3    H131758   3.104   3.715   8.645  1.5702 -0.4606 -0.1363
 2521TIP3    H231759   3.147   3.606   8.549 -1.4090 -0.6570 -1.3586
 2522TIP3   OH231760   2.257   1.007   9.128  0.2122  0.3098  0.5885
 2522TIP3    H131761   2.276   0.971   9.042  1.7034  0.0216  1.0112
 2522TIP3    H231762   2.215   0.935   9.175 -2.5955  1.1161 -0.5267
 2523TIP3   OH231763   2.118   6.503  10.684 -0.9312  0.3464  0.1367
 2523TIP3    H131764   2.048   6.443  10.712 -0.0377 -0.2013  1.2963
 2523TIP3    H231765   2.107   6.580  10.740 -1.1680  0.6473 -0.3215
 2524TIP3   OH231766   2.421   1.825  11.877 -0.0550  0.5190  0.3391
 2524TIP3    H131767   2.402   1.823  11.971 -1.0037  2.9078  0.2472
 2524TIP3    H231768   2.339   1.850  11.836  0.5204  0.1420 -1.1002
 2525TIP3   OH231769   0.690   3.516   9.906 -0.0616 -0.1357 -0.2596
 2525TIP3    H131770   0.672   3.429   9.870 -0.4511  0.3737 -1.3625
 2525TIP3    H231771   0.701   3.501  10.000 -0.5324 -1.3158 -0.3651
 2526TIP3   OH231772   5.692   0.464  12.561 -0.7680  0.3278 -0.0610
 2526TIP3    H131773   5.709   0.557  12.574 -1.0667  0.1762  1.6789
 2526TIP3    H231774   5.612   0.461  12.508 -2.1295  1.1222  1.8478
 2527TIP3   OH231775   5.971   3.480   9.332 -0.1123 -0.4740  0.5711
 2527TIP3    H131776   6.016   3.400   9.304 -0.8701 -0.3091 -1.2123
 2527TIP3    H231777   5.903   3.493   9.267  1.2912  2.8055 -0.4289
 2528TIP3   OH231778   1.288   6.518   9.861 -0.0589 -0.1405  0.2179
 2528TIP3    H131779   1.199   6.517   9.825 -0.0665 -0.2508  0.2386
 2528TIP3    H231780   1.283   6.463   9.939 -0.2712  0.8642  0.9380
 2529TIP3   OH231781   3.794   6.209   9.383  0.3682 -0.8170 -0.1920
 2529TIP3    H131782   3.809   6.120   9.414 -0.6418 -0.8928  0.1228
 2529TIP3    H231783   3.721   6.201   9.321  0.7120 -0.3006 -0.6746
 2530TIP3   OH231784   4.177   0.932  10.928 -0.2873  0.3615 -0.1570
 2530TIP3    H131785   4.234   0.915  10.853  1.7687  1.7351  0.9782
 2530TIP3    H231786   4.194   1.023  10.951  2.3380 -0.9163  4.3482
 2531TIP3   OH231787   0.393   6.237   9.909  0.3086  0.4660  0.1649
 2531TIP3    H131788   0.401   6.188   9.827  1.3240  0.3392  0.3258
 2531TIP3    H231789   0.299   6.253   9.918 -0.0249 -1.2376 -0.0112
 2532TIP3   OH231790   0.817   2.984  11.729 -0.5907 -0.3398  0.3966
 2532TIP3    H131791   0.859   3.016  11.649 -0.0740 -1.5426  0.1743
 2532TIP3    H231792   0.725   3.011  11.720 -0.3776  0.2168 -0.2257
 2533TIP3   OH231793   3.951   4.963  11.317  0.0755  0.1410  0.2058
 2533TIP3    H131794   3.875   4.958  11.374 -0.1294  1.5850  0.1069
 2533TIP3    H231795   3.929   4.908  11.242  0.7030 -2.5019  1.8314
 2534TIP3   OH231796   2.208   2.221   8.784  0.0674 -0.3315 -0.1340
 2534TIP3    H131797   2.211   2.134   8.823 -1.1443 -0.2604  0.1333
 2534TIP3    H231798   2.126   2.223   8.735  0.5545  0.3244 -0.9412
 2535TIP3   OH231799   2.176   5.560  10.661  0.5508 -0.0839 -0.1811
 2535TIP3    H131800   2.202   5.583  10.750  1.7354  0.4340 -0.6375
 2535TIP3    H231801   2.187   5.466  10.656 -1.3139 -0.4104  0.7519
 2536TIP3   OH231802   3.152   0.574  11.531 -0.3361  0.0937 -0.3687
 2536TIP3    H131803   3.230   0.529  11.497 -0.5426 -0.4028 -0.1946
 2536TIP3    H231804   3.084   0.506  11.532 -0.4380  0.2047  0.6424
 2537TIP3   OH231805   3.149   4.767  11.963  0.1869  0.0624  0.7480
 2537TIP3    H131806   3.135   4.673  11.957  1.1865 -0.1544  1.5791
 2537TIP3    H231807   3.108   4.803  11.884 -0.2218 -1.0557  0.4413
 2538TIP3   OH231808   3.711   4.814  10.279  0.0538 -0.0223 -0.0013
 2538TIP3    H131809   3.695   4.725  10.248  0.9094  0.3092 -1.4575
 2538TIP3    H231810   3.793   4.809  10.327 -0.0235 -0.0548  0.1290
 2539TIP3   OH231811   1.630   6.389  11.080  0.3199 -0.2067  0.0401
 2539TIP3    H131812   1.716   6.424  11.100  0.1745 -0.1919  0.6542
 2539TIP3    H231813   1.581   6.397  11.161 -0.7829  1.2732 -0.7398
 2540TIP3   OH231814   4.748   0.893  10.568  0.2365  0.1990  0.1797
 2540TIP3    H131815   4.766   0.980  10.531  0.6581  0.0568  0.0562
 2540TIP3    H231816   4.698   0.848  10.500  1.7828 -0.3867 -0.6173
 2541TIP3   OH231817   4.845   4.725  12.276  0.9473  0.1459 -0.0502
 2541TIP3    H131818   4.914   4.701  12.337  2.1850  0.3180 -1.3469
 2541TIP3    H231819   4.872   4.689  12.192  0.3863  1.7710 -0.9800
 2542TIP3   OH231820   3.623   2.902  10.566  0.8514 -0.4375 -0.3334
 2542TIP3    H131821   3.647   2.810  10.574  0.2863 -0.7736 -2.0561
 2542TIP3    H231822   3.575   2.907  10.483  0.5032  1.3332 -0.0649
 2543TIP3   OH231823   1.439   1.292   9.329  0.0493 -0.4392 -0.1333
 2543TIP3    H131824   1.526   1.293   9.369 -0.6080  0.2642  1.3783
 2543TIP3    H231825   1.454   1.322   9.240  1.2458  0.7497  0.4204
 2544TIP3   OH231826   5.150   1.408   9.783  0.4296 -0.5034 -0.1654
 2544TIP3    H131827   5.103   1.378   9.705 -0.1729  0.7895 -0.3241
 2544TIP3    H231828   5.167   1.501   9.766 -0.5791  0.0568  1.6428
 2545TIP3   OH231829   0.170   1.534  10.068  0.0676 -0.3025 -0.7382
 2545TIP3    H131830   0.159   1.511   9.976  0.8248 -0.9165 -0.6788
 2545TIP3    H231831   0.246   1.484  10.097  0.0046  0.0966  0.1506
 2546TIP3   OH231832   4.483   1.809  10.100 -0.3815  0.2921  0.4566
 2546TIP3    H131833   4.399   1.823  10.056 -0.8949 -0.9492  1.0057
 2546TIP3    H231834   4.545   1.859  10.047 -1.0613 -0.6924 -1.3838
 2547TIP3   OH231835   0.302   1.325   9.666 -0.4403 -0.4313 -0.1706
 2547TIP3    H131836   0.297   1.319   9.570  0.4470 -3.6123 -0.1281
 2547TIP3    H231837   0.287   1.236   9.696 -0.8069  0.5160  2.7011
 2548TIP3   OH231838   1.325   3.626  10.526 -0.0105  0.2106  0.3349
 2548TIP3    H131839   1.303   3.556  10.464 -0.5389  0.0896  0.6547
 2548TIP3    H231840   1.241   3.665  10.549  0.3928  2.2723 -1.3477
 2549TIP3   OH231841   1.496   0.479  10.064  0.1686 -0.5262  0.8037
 2549TIP3    H131842   1.488   0.574  10.055  0.1557 -0.6945 -1.6522
 2549TIP3    H231843   1.568   0.467  10.125  2.3213  1.1492 -1.2157
 2550TIP3   OH231844   5.528   4.296  10.788 -0.3313  0.2228  0.4126
 2550TIP3    H131845   5.502   4.385  10.813  0.3439  0.1518  1.4268
 2550TIP3    H231846   5.449   4.259  10.747 -0.8399  1.0553  0.6108
 2551TIP3   OH231847   2.642   4.593  10.354 -0.4998 -0.5307 -0.0987
 2551TIP3    H131848   2.697   4.546  10.417  0.6933 -1.0899 -1.4829
 2551TIP3    H231849   2.639   4.683  10.387  1.0574 -0.5473  0.1726
 2552TIP3   OH231850   3.954   1.937   9.704  0.2967  0.3489 -0.4404
 2552TIP3    H131851   3.897   1.863   9.685 -1.0360  0.8629  1.2750
 2552TIP3    H231852   3.998   1.956   9.621 -0.2355 -1.5741 -1.2060
 2553TIP3   OH231853   3.942   4.811  10.472 -0.0702 -0.6048 -0.1586
 2553TIP3    H131854   3.966   4.899  10.442 -1.2567 -0.7735 -1.7813
 2553TIP3    H231855   4.015   4.756  10.444  0.9723 -0.0900  1.4149
 2554TIP3   OH231856   2.697   2.279   8.996 -0.1205  0.0232 -0.3239
 2554TIP3    H131857   2.712   2.204   9.054 -0.8151 -0.1915 -0.4113
 2554TIP3    H231858   2.623   2.252   8.941 -0.7231  0.9628 -0.0094
 2555TIP3   OH231859   5.359   3.039  11.536  0.0455  0.1723  0.2244
 2555TIP3    H131860   5.284   3.098  11.546 -0.9279 -1.3125  2.6422
 2555TIP3    H231861   5.370   3.030  11.441 -0.9401  2.6927 -0.2084
 2556TIP3   OH231862   6.007   1.582  10.643 -0.5860 -1.1680 -0.2583
 2556TIP3    H131863   5.926   1.551  10.604 -1.7326  1.7274 -0.4503
 2556TIP3    H231864   6.068   1.592  10.570  0.5824 -4.7225  0.0542
 2557TIP3   OH231865   4.671   1.197  12.048 -0.4770  0.0049  0.4592
 2557TIP3    H131866   4.708   1.272  12.001  0.1013  0.1654  1.1445
 2557TIP3    H231867   4.628   1.236  12.124 -2.0095 -0.1922 -0.2710
 2558TIP3   OH231868   4.439   5.646  11.513  0.1177  0.1920  0.4037
 2558TIP3    H131869   4.368   5.651  11.577  0.9384 -2.0467  1.5917
 2558TIP3    H231870   4.506   5.705  11.547  1.3900 -2.4608  2.8696
 2559TIP3   OH231871   2.321   1.726  11.312 -0.3823 -0.0727 -0.2691
 2559TIP3    H131872   2.362   1.640  11.300  0.6576  0.3935 -0.0937
 2559TIP3    H231873   2.394   1.786  11.325 -1.1531  0.4793  1.8995
 2560TIP3   OH231874   2.187   2.607  12.285  0.2962 -0.0096  0.3500
 2560TIP3    H131875   2.119   2.605  12.217  0.9850 -0.9518 -0.3486
 2560TIP3    H231876   2.138   2.600  12.367 -0.4964  0.0411 -0.0986
 2561TIP3   OH231877   5.884   2.144  11.314  0.5726 -0.1159 -0.0910
 2561TIP3    H131878   5.849   2.055  11.314 -1.6061  0.6796 -0.1338
 2561TIP3    H231879   5.916   2.156  11.404 -0.7165 -0.3869  0.4314
 2562TIP3   OH231880   2.631   4.671  12.248 -0.4937  0.1425  0.5297
 2562TIP3    H131881   2.603   4.656  12.158  0.8861 -1.1229  0.2782
 2562TIP3    H231882   2.727   4.678  12.243 -0.3369 -0.5491  1.9599
 2563TIP3   OH231883   6.531   3.735  11.737  0.0395  0.2051 -0.2675
 2563TIP3    H131884   6.588   3.804  11.701 -0.2499  1.5519  1.6938
 2563TIP3    H231885   6.517   3.761  11.828 -1.7244 -1.4155 -0.0229
 2564TIP3   OH231886   5.411   2.529  10.730  0.0769 -0.4737  0.2937
 2564TIP3    H131887   5.381   2.590  10.797 -0.9283 -0.6919  0.0620
 2564TIP3    H231888   5.436   2.585  10.656  2.7428 -0.1096  1.3536
 2565TIP3   OH231889   3.163   1.334  11.631  0.1671  0.2226  0.0718
 2565TIP3    H131890   3.112   1.415  11.623  0.0046  0.0775 -0.3763
 2565TIP3    H231891   3.099   1.268  11.657  0.1452  0.0660 -0.3714
 2566TIP3   OH231892   3.581   2.151   8.740 -0.2973  0.1500  0.0520
 2566TIP3    H131893   3.626   2.091   8.682 -0.8134  0.9576 -1.2139
 2566TIP3    H231894   3.498   2.106   8.760 -0.4833  0.2395 -0.5141
 2567TIP3   OH231895   1.288   4.883  10.767  0.3154 -0.0640  0.2811
 2567TIP3    H131896   1.341   4.962  10.755  1.6582 -1.0055 -0.1724
 2567TIP3    H231897   1.241   4.898  10.849  1.8805  0.4873  1.1081
 2568TIP3   OH231898   0.172   1.207  11.160  0.1652  0.1650 -0.2977
 2568TIP3    H131899   0.212   1.121  11.143  0.3766  0.2257 -0.1082
 2568TIP3    H231900   0.105   1.190  11.225  0.3623  0.1797 -0.0885
 2569TIP3   OH231901   5.334   5.434  12.287 -0.3598  0.2089 -0.4267
 2569TIP3    H131902   5.266   5.396  12.343 -0.6833 -0.4699 -1.2535
 2569TIP3    H231903   5.285   5.487  12.224  0.0162  1.1612  0.0628
 2570TIP3   OH231904   6.313   1.610  11.454 -0.4666  0.1952 -0.5223
 2570TIP3    H131905   6.310   1.620  11.549 -0.3910 -2.8077 -0.1072
 2570TIP3    H231906   6.238   1.554  11.434  1.3155 -1.9103 -1.7442
 2571TIP3   OH231907   4.543   4.105  10.537  0.2762 -0.0509 -0.1467
 2571TIP3    H131908   4.598   4.026  10.534  0.8898  0.1750  2.5945
 2571TIP3    H231909   4.464   4.077  10.584  1.5407  1.3805  3.1786
 2572TIP3   OH231910   1.050   0.556  11.585  0.3477 -0.0542 -0.5804
 2572TIP3    H131911   0.993   0.631  11.567  1.3992  0.3282 -2.6248
 2572TIP3    H231912   1.030   0.494  11.515  0.1252 -1.3475  0.5896
 2573TIP3   OH231913   1.494   5.979  12.502  0.6209  0.1418  0.0070
 2573TIP3    H131914   1.578   5.954  12.464 -0.5278 -1.7658 -1.5318
 2573TIP3    H231915   1.460   6.046  12.443  0.2215 -0.5341 -0.5487
 2574TIP3   OH231916   2.660   1.583   9.461 -0.3902  0.0114  0.1218
 2574TIP3    H131917   2.702   1.505   9.424  0.3282 -0.0357  1.0076
 2574TIP3    H231918   2.733   1.642   9.480 -0.9865  1.3343 -1.4531
 2575TIP3   OH231919   3.591   3.175  12.273 -0.3050  0.0616 -0.0414
 2575TIP3    H131920   3.634   3.260  12.281  1.3391 -0.7953  0.8963
 2575TIP3    H231921   3.497   3.194  12.278  0.0146  1.8456 -0.3366
 2576TIP3   OH231922   4.666   0.696  12.091 -0.5670  0.2358 -0.0742
 2576TIP3    H131923   4.577   0.714  12.060 -0.8465 -1.9472 -0.7346
 2576TIP3    H231924   4.699   0.629  12.032  1.9739  1.7478 -0.4916
 2577TIP3   OH231925   1.678   3.325  11.724  0.1316  0.0660  0.2721
 2577TIP3    H131926   1.630   3.270  11.785 -0.9010  0.0201 -0.5640
 2577TIP3    H231927   1.735   3.264  11.677  0.8785  0.0918  1.1130
 2578TIP3   OH231928   3.750   4.271  10.362  0.1977 -0.5672  0.2885
 2578TIP3    H131929   3.717   4.185  10.389 -1.5861  0.5046  1.7522
 2578TIP3    H231930   3.693   4.333  10.406  1.5641  1.3994 -0.5897
 2579TIP3   OH231931   5.359   5.044  11.240 -0.0742  1.0240 -0.0187
 2579TIP3    H131932   5.397   4.990  11.170  0.4549 -2.0825  2.4430
 2579TIP3    H231933   5.283   4.995  11.269 -0.5623  2.4794  1.2773
 2580TIP3   OH231934   5.657   1.814  10.184  0.3534 -0.3393 -0.1445
 2580TIP3    H131935   5.722   1.836  10.251 -1.7716 -0.2194  2.0191
 2580TIP3    H231936   5.621   1.730  10.213 -2.3596  0.8856  0.3391
 2581TIP3   OH231937   2.029   0.317  10.216  0.3322 -0.6002  0.2715
 2581TIP3    H131938   1.972   0.355  10.149  0.5359 -0.4042  0.2045
 2581TIP3    H231939   1.999   0.356  10.298  0.6483 -0.1590  0.1815
 2582TIP3   OH231940   2.420   5.948   9.716 -0.1897 -0.1404 -0.5419
 2582TIP3    H131941   2.352   6.012   9.734  0.7245  1.5668 -2.6147
 2582TIP3    H231942   2.389   5.867   9.756 -2.2940  1.1319  0.5636
 2583TIP3   OH231943   5.907   2.431   9.146  0.0350 -0.6367 -0.7987
 2583TIP3    H131944   5.895   2.406   9.238 -0.0189  0.3382 -0.5289
 2583TIP3    H231945   5.951   2.515   9.150 -1.0317 -0.0193 -1.6394
 2584TIP3   OH231946   4.151   4.026  12.580 -0.1928 -0.0964  0.4389
 2584TIP3    H131947   4.232   3.977  12.588  0.8517  1.0649 -1.8641
 2584TIP3    H231948   4.163   4.103  12.635  0.6052  0.4027 -0.3961
 2585TIP3   OH231949   3.920   5.179  11.533 -0.7190 -0.7891  0.0850
 2585TIP3    H131950   3.978   5.127  11.478 -0.5845  0.4269 -0.9632
 2585TIP3    H231951   3.832   5.162  11.500 -0.4555  2.0561 -2.4855
 2586TIP3   OH231952   3.061   3.808   9.345 -1.0279 -0.7171  0.2365
 2586TIP3    H131953   3.144   3.797   9.299 -0.6384  0.0654  0.7380
 2586TIP3    H231954   3.050   3.902   9.354 -1.5319 -0.8358  0.9632
 2587TIP3   OH231955   0.346   0.286  10.760  0.0428 -0.2159  0.1620
 2587TIP3    H131956   0.418   0.299  10.699  1.1093  0.3689  1.4900
 2587TIP3    H231957   0.285   0.357  10.741 -0.0299 -0.5160 -0.7515
 2588TIP3   OH231958   5.331   2.582  11.050  0.4541  0.1331 -0.0707
 2588TIP3    H131959   5.339   2.556  11.142  0.6504 -0.6516 -0.2991
 2588TIP3    H231960   5.342   2.501  11.001  1.8452  0.7485 -0.8503
 2589TIP3   OH231961   0.937   0.966  11.116 -0.3188 -0.3738  0.6333
 2589TIP3    H131962   0.974   0.927  11.037 -1.7259 -0.3945 -0.0446
 2589TIP3    H231963   0.866   0.907  11.141  0.6414 -0.8354  2.4356
 2590TIP3   OH231964   5.935   3.142   8.387 -0.3905  0.2906  0.6334
 2590TIP3    H131965   5.927   3.069   8.448 -0.5131  1.5639  2.2069
 2590TIP3    H231966   5.983   3.209   8.435 -0.0515  1.1609 -0.8519
 2591TIP3   OH231967   1.535   4.305   9.800 -0.6655 -0.0892 -0.3147
 2591TIP3    H131968   1.527   4.220   9.842  1.7193  0.9012  2.4727
 2591TIP3    H231969   1.629   4.323   9.798 -1.1112  2.7870 -0.0487
 2592TIP3   OH231970   2.840   0.110   8.706 -0.3003 -0.7328 -0.4364
 2592TIP3    H131971   2.828   0.115   8.612 -0.6485 -1.3351 -0.4278
 2592TIP3    H231972   2.782   0.039   8.734 -0.3092 -0.4680  0.2465
 2593TIP3   OH231973   6.379   3.818  11.953  0.0568 -0.1855 -0.5737
 2593TIP3    H131974   6.381   3.913  11.948  1.0343 -0.2061 -0.8120
 2593TIP3    H231975   6.311   3.791  11.891 -1.1347  0.3957  0.4345
 2594TIP3   OH231976   2.270   6.149  11.119 -0.2849 -0.1113 -0.5687
 2594TIP3    H131977   2.239   6.223  11.171 -3.4514 -1.0933 -0.8152
 2594TIP3    H231978   2.205   6.141  11.049 -1.1317 -4.1073  0.4266
 2595TIP3   OH231979   1.853   1.582  10.098  0.2138  0.5440 -0.1651
 2595TIP3    H131980   1.869   1.620  10.011 -0.4736 -0.9148 -0.9498
 2595TIP3    H231981   1.932   1.605  10.148  0.5119  1.6185 -1.0829
 2596TIP3   OH231982   1.025   0.822  12.192 -0.0563  0.6197 -0.6763
 2596TIP3    H131983   1.076   0.748  12.224  0.1614  1.2121  0.4176
 2596TIP3    H231984   1.058   0.897  12.242 -1.7191  1.0865 -0.2222
 2597TIP3   OH231985   1.444   0.017  11.058  0.1803  0.0961  0.0476
 2597TIP3    H131986   1.374   0.080  11.037  0.1141 -0.2295 -0.7613
 2597TIP3    H231987   1.398  -0.066  11.072  0.2620  0.2221  1.1767
 2598TIP3   OH231988   2.141   1.151  10.518 -0.3916 -0.0043 -0.5156
 2598TIP3    H131989   2.089   1.119  10.445  0.0697  0.9695 -1.2966
 2598TIP3    H231990   2.171   1.238  10.490  1.0853 -0.2515  0.1852
 2599TIP3   OH231991   1.731   3.725   9.533  0.0387  0.0951  0.0781
 2599TIP3    H131992   1.656   3.727   9.593  0.6799 -0.7738  0.9322
 2599TIP3    H231993   1.726   3.809   9.486 -0.8087  0.5512  0.9406
 2600TIP3   OH231994   2.682   1.952  12.089 -0.0719  0.1859 -0.0719
 2600TIP3    H131995   2.715   2.041  12.104  0.9790 -0.2904  0.6012
 2600TIP3    H231996   2.590   1.957  12.115 -0.3307  1.3316 -1.1001
 2601TIP3   OH231997   3.222   5.103  11.928 -0.1186  0.0478 -0.1447
 2601TIP3    H131998   3.131   5.084  11.902 -0.3967  1.1233 -0.0248
 2601TIP3    H231999   3.223   5.198  11.942  0.6335 -0.1640  1.4245
 2602TIP3   OH232000   0.955   5.810   9.053  0.2507 -0.2044  0.4203
 2602TIP3    H132001   1.049   5.822   9.048  0.5206 -2.2005 -0.5987
 2602TIP3    H232002   0.942   5.715   9.041 -1.9042  0.0763 -0.0508
 2603TIP3   OH232003   5.768   2.197  10.154  0.0353 -0.1735  0.2209
 2603TIP3    H132004   5.765   2.269  10.090 -1.8666  1.1339  1.6569
 2603TIP3    H232005   5.825   2.132  10.114  1.0202  1.6926 -1.6234
 2604TIP3   OH232006   5.357   2.793   8.312 -0.3177 -0.1471 -0.4331
 2604TIP3    H132007   5.425   2.730   8.290 -0.2443 -0.7420  1.3744
 2604TIP3    H232008   5.276   2.754   8.278 -0.2400 -1.1224  0.4794
 2605TIP3   OH232009   0.354   6.152  10.176 -0.3412  0.4443  0.2050
 2605TIP3    H132010   0.331   6.070  10.132 -0.3984  0.8123 -0.4625
 2605TIP3    H232011   0.406   6.200  10.111 -0.6041  1.0885  0.4682
 2606TIP3   OH232012   3.459   5.010  11.746 -1.0450 -0.5773 -0.5901
 2606TIP3    H132013   3.397   5.033  11.815 -0.9949  1.7002 -1.2406
 2606TIP3    H232014   3.406   4.965  11.680 -1.6817 -0.1208 -0.3990
 2607TIP3   OH232015   5.992   6.128  12.674  0.1517  0.4409  0.7449
 2607TIP3    H132016   5.959   6.212  12.641 -1.5711 -0.4956 -0.0736
 2607TIP3    H232017   5.969   6.128  12.767  0.1642  0.8879  0.7491
 2608TIP3   OH232018   4.266   6.061   9.934 -0.0563 -0.3738 -0.5365
 2608TIP3    H132019   4.183   6.105   9.917  0.7301  1.6041  0.3827
 2608TIP3    H232020   4.315   6.071   9.853 -0.5108 -1.1329 -0.9201
 2609TIP3   OH232021   5.157   6.547   9.735  0.3106  0.2600  0.4447
 2609TIP3    H132022   5.169   6.455   9.712  0.7164  0.4377 -0.0582
 2609TIP3    H232023   5.176   6.595   9.655 -0.6538  0.7483  0.4866
 2610TIP3   OH232024   1.667   2.097  10.721 -0.2724  0.0290  0.3337
 2610TIP3    H132025   1.648   2.008  10.690 -3.4810  0.4747  0.6348
 2610TIP3    H232026   1.731   2.084  10.791 -0.0341 -1.9434 -0.1699
 2611TIP3   OH232027   2.897   4.715  12.146  0.1089  0.8264  0.4850
 2611TIP3    H132028   2.907   4.796  12.096  0.3168  3.0396  3.7814
 2611TIP3    H232029   2.980   4.705  12.193 -0.2183 -0.9029  0.7793
 2612TIP3   OH232030   2.669   3.957  10.228 -0.1068 -0.2056 -0.0878
 2612TIP3    H132031   2.745   3.953  10.170  1.7023  0.1659  2.1369
 2612TIP3    H232032   2.633   3.868  10.226  2.6053 -1.4924  1.5203
 2613TIP3   OH232033   1.919   3.572  10.357 -0.2513 -0.5008  0.2230
 2613TIP3    H132034   1.908   3.650  10.412  0.3458 -0.0982 -0.2205
 2613TIP3    H232035   1.868   3.504  10.402 -0.0501 -0.0916  1.0918
 2614TIP3   OH232036   3.481   2.868   9.528 -0.5647  0.0988 -0.7451
 2614TIP3    H132037   3.434   2.802   9.477  0.2683 -0.8856 -0.2676
 2614TIP3    H232038   3.488   2.830   9.616 -2.7929  2.1552  0.4322
 2615TIP3   OH232039   6.349   5.812  11.903 -0.2506 -0.1672 -0.5663
 2615TIP3    H132040   6.395   5.745  11.953  0.2527  1.5199  1.3758
 2615TIP3    H232041   6.355   5.783  11.812 -0.5976 -3.0277  0.2233
 2616TIP3   OH232042   2.232   5.755  11.463  0.0536 -0.0378 -0.2948
 2616TIP3    H132043   2.299   5.820  11.487  0.0528 -0.0765 -0.1868
 2616TIP3    H232044   2.150   5.793  11.494  0.1834 -0.5930  0.7867
 2617TIP3   OH232045   2.407   3.495   9.943  0.6503 -0.3921  0.2869
 2617TIP3    H132046   2.380   3.420   9.890  0.0844 -0.5225  0.7563
 2617TIP3    H232047   2.502   3.498   9.933  0.5487 -0.3967 -0.7620
 2618TIP3   OH232048   5.298   1.888  10.370  0.0732  0.7006  0.1225
 2618TIP3    H132049   5.373   1.947  10.366  1.0741 -0.5281  0.0403
 2618TIP3    H232050   5.283   1.862  10.280  1.0041 -0.7690  0.3500
 2619TIP3   OH232051   3.783   4.809  10.739 -0.4126 -0.2415  0.0152
 2619TIP3    H132052   3.824   4.877  10.793 -0.5396  1.4416 -1.8707
 2619TIP3    H232053   3.831   4.813  10.656 -1.6751 -1.1453 -0.7888
 2620TIP3   OH232054   1.429   4.629  10.852  0.0468  0.1116  0.0076
 2620TIP3    H132055   1.347   4.669  10.823  0.3845  0.4675 -0.4628
 2620TIP3    H232056   1.411   4.601  10.942 -0.3044  1.0173  0.2333
 2621TIP3   OH232057   5.223   3.999  10.738  0.4517 -0.7210  0.0495
 2621TIP3    H132058   5.194   4.085  10.770 -0.3399 -1.3677  1.1357
 2621TIP3    H232059   5.180   3.936  10.796  0.6041 -1.8814 -1.0534
 2622TIP3   OH232060   1.798   5.295  10.036 -0.3395  0.4310  0.6804
 2622TIP3    H132061   1.819   5.387  10.026  1.3759 -0.0355 -0.4519
 2622TIP3    H232062   1.791   5.262   9.947 -0.7363 -0.5781  1.0668
 2623TIP3   OH232063   5.048   3.667  11.228  0.8999 -0.0121 -0.2211
 2623TIP3    H132064   4.984   3.714  11.174 -0.0300 -0.2553  0.6473
 2623TIP3    H232065   5.113   3.635  11.165  0.3451  0.5165 -1.0820
 2624TIP3   OH232066   4.289   2.430  11.139 -0.3877  0.3100  0.2332
 2624TIP3    H132067   4.370   2.449  11.093 -0.2670  2.0396  1.0575
 2624TIP3    H232068   4.317   2.384  11.218 -0.3040  0.0700  0.0654
 2625TIP3   OH232069   5.611   2.426  11.421 -0.2750 -0.1213 -0.0473
 2625TIP3    H132070   5.583   2.338  11.395  0.1385  0.0185 -0.9725
 2625TIP3    H232071   5.690   2.412  11.474  2.2844 -0.1562 -3.5612
 2626TIP3   OH232072   1.173   4.520  12.189  0.3871  0.1103 -0.3431
 2626TIP3    H132073   1.230   4.448  12.216  1.5855  0.1339 -2.5185
 2626TIP3    H232074   1.212   4.598  12.228  1.6241  0.0574 -1.3904
 2627TIP3   OH232075   6.009   3.862  11.886 -0.0262  0.0738  0.4084
 2627TIP3    H132076   6.041   3.941  11.843 -0.4199  0.1954  0.3395
 2627TIP3    H232077   6.061   3.791  11.847 -1.3656 -0.0036 -1.3427
 2628TIP3   OH232078   0.936   6.168  11.855 -0.0031 -0.1206 -0.3291
 2628TIP3    H132079   0.974   6.255  11.849  0.5668 -0.3574 -0.1980
 2628TIP3    H232080   0.938   6.135  11.765 -0.0932 -0.0526 -0.3560
 2629TIP3   OH232081   0.784   3.087  12.374  0.2199 -0.0795 -0.1461
 2629TIP3    H132082   0.767   3.077  12.468 -0.8005 -0.8535 -0.3917
 2629TIP3    H232083   0.857   3.148  12.369 -0.0358  0.3630  1.1404
 2630TIP3   OH232084   2.498   5.687  11.027 -0.4580 -0.2770 -0.8224
 2630TIP3    H132085   2.450   5.747  11.085 -0.1761  0.3527 -1.2213
 2630TIP3    H232086   2.430   5.646  10.973 -0.8223 -1.5731  0.5558
 2631TIP3   OH232087   4.458   3.809  10.404  0.0160  0.6828 -0.1332
 2631TIP3    H132088   4.407   3.774  10.476 -0.0391  1.7429  0.3624
 2631TIP3    H232089   4.542   3.833  10.443  0.3800  0.2822 -0.6488
 2632TIP3   OH232090   6.400   2.521  11.927  0.0685  0.3396  0.4735
 2632TIP3    H132091   6.304   2.516  11.932 -0.1747  1.4429 -1.8155
 2632TIP3    H232092   6.427   2.544  12.016 -1.7973  0.1662  1.1342
 2633TIP3   OH232093   4.408   0.018  11.238  0.2192  0.3575  0.0729
 2633TIP3    H132094   4.345  -0.050  11.216  0.7335  0.0584 -0.5083
 2633TIP3    H232095   4.424   0.064  11.156 -0.2488  1.2993  0.4952
 2634TIP3   OH232096   5.624   2.846  10.375 -0.3737 -0.8364 -0.0003
 2634TIP3    H132097   5.580   2.897  10.307  0.3669  0.1819  0.2554
 2634TIP3    H232098   5.715   2.841  10.346 -0.0900 -0.5500  0.8077
 2635TIP3   OH232099   5.249   1.196  10.951  0.3554  0.3102 -0.4623
 2635TIP3    H132100   5.236   1.135  10.879  0.2333 -0.1528 -0.0577
 2635TIP3    H232101   5.194   1.161  11.021 -0.5251  1.4531 -0.5581
 2636TIP3   OH232102   1.144   0.033   9.573 -0.4179  0.4500 -1.0563
 2636TIP3    H132103   1.104  -0.033   9.631 -0.6432 -0.0392 -1.7544
 2636TIP3    H232104   1.233   0.003   9.560  0.2236  1.5422  0.5003
 2637TIP3   OH232105   5.611   4.093  11.450 -0.6926 -0.0634 -0.2490
 2637TIP3    H132106   5.614   4.001  11.473 -0.6403  0.1634  0.6817
 2637TIP3    H232107   5.694   4.129  11.482 -1.8609  0.8630  1.9280
 2638TIP3   OH232108   2.195   3.181   9.177 -0.6534  0.2715  0.1892
 2638TIP3    H132109   2.251   3.256   9.197  2.6656 -0.8375 -3.4328
 2638TIP3    H232110   2.203   3.124   9.253  0.7865  1.5042  1.0192
 2639TIP3   OH232111   3.016   5.756   9.146  0.8395  0.0382 -0.2868
 2639TIP3    H132112   3.094   5.701   9.142 -0.0494 -1.4352  1.1649
 2639TIP3    H232113   2.999   5.782   9.055 -0.5404 -4.8480 -1.7056
 2640TIP3   OH232114   3.904   3.638  12.286  0.6978  0.1502 -0.0065
 2640TIP3    H132115   3.964   3.704  12.319  0.8705  0.4723 -0.9456
 2640TIP3    H232116   3.958   3.560  12.275  0.2025 -0.6618  2.5334
 2641TIP3   OH232117   3.029   2.916  11.590  0.2025  0.2873 -0.2534
 2641TIP3    H132118   3.014   2.979  11.520  0.6423  2.5167  1.5373
 2641TIP3    H232119   3.124   2.912  11.599  0.1828  2.6414  2.2907
 2642TIP3   OH232120   2.751   1.984  11.825 -0.0243 -0.2130 -0.1831
 2642TIP3    H132121   2.744   2.078  11.812 -0.8362 -0.0786  1.0659
 2642TIP3    H232122   2.681   1.962  11.886  1.4169 -1.2785  1.2024
 2643TIP3   OH232123   2.802   5.851   9.259  0.1240 -0.4468  0.1877
 2643TIP3    H132124   2.787   5.939   9.223 -0.2606 -0.7246 -0.3582
 2643TIP3    H232125   2.877   5.818   9.209  0.1444 -0.5041  0.2571
 2644TIP3   OH232126   5.950   5.955  11.171  0.2411 -0.4189  0.2736
 2644TIP3    H132127   6.017   5.969  11.104  0.6120 -0.1571  0.6947
 2644TIP3    H232128   5.932   5.861  11.168  0.2413 -0.4042 -0.2066
 2645TIP3   OH232129   6.420   1.139  10.330 -0.1511 -0.0934  0.1470
 2645TIP3    H132130   6.363   1.087  10.386 -2.5665 -0.3311 -2.3345
 2645TIP3    H232131   6.456   1.206  10.389 -0.6052 -1.7363  2.4387
 2646TIP3   OH232132   6.219   4.816  10.793  0.3048  0.2114 -0.0048
 2646TIP3    H132133   6.289   4.831  10.729  0.5419 -1.2649 -0.1203
 2646TIP3    H232134   6.251   4.744  10.847 -1.0709 -0.3918  0.0288
 2647TIP3   OH232135   3.055   0.890  10.599 -0.1175  0.2677 -0.3593
 2647TIP3    H132136   3.016   0.823  10.656  0.6250 -0.0619 -0.2319
 2647TIP3    H232137   3.094   0.953  10.660 -0.3820  0.5586 -0.4875
 2648TIP3   OH232138   1.620   6.545  11.991 -0.1595  0.4461  0.2771
 2648TIP3    H132139   1.615   6.612  11.923 -2.5028  0.4204  0.3524
 2648TIP3    H232140   1.582   6.467  11.950 -0.1379 -0.0164  1.1258
 2649TIP3   OH232141   5.178   2.218  10.364 -0.3665 -0.7524  0.1881
 2649TIP3    H132142   5.084   2.230  10.353 -0.2437 -0.4075 -0.5529
 2649TIP3    H232143   5.211   2.203  10.276  0.1073 -2.1829  0.5798
 2650TIP3   OH232144   4.054   5.180  11.064  0.9571  0.5794  0.1148
 2650TIP3    H132145   4.075   5.119  11.135  0.1205 -1.1512 -1.0396
 2650TIP3    H232146   3.973   5.222  11.091  1.6798  1.3980  1.0442
 2651TIP3   OH232147   2.018   2.461  10.202  0.2027 -0.4417 -0.2671
 2651TIP3    H132148   1.951   2.424  10.259 -0.0203  1.1393  0.5411
 2651TIP3    H232149   2.101   2.434  10.241  0.1273  2.4106  2.2099
 2652TIP3   OH232150   0.428   3.722   9.010 -0.1184  0.4981  0.0389
 2652TIP3    H132151   0.442   3.631   8.982 -0.3812  0.9399 -1.6038
 2652TIP3    H232152   0.413   3.715   9.104 -0.8490 -1.2483 -0.1591
 2653TIP3   OH232153   3.014   0.777   8.901  0.4778  0.0812  0.7158
 2653TIP3    H132154   3.107   0.798   8.902  0.1015  1.9124  0.9109
 2653TIP3    H232155   3.010   0.685   8.875  2.2193  0.6305 -1.7855
 2654TIP3   OH232156   4.257   1.508   9.978  0.0276  0.3547 -0.0073
 2654TIP3    H132157   4.346   1.541   9.987 -0.4062  1.5066  0.1531
 2654TIP3    H232158   4.201   1.585   9.985 -1.0960 -0.5321  1.7787
 2655TIP3   OH232159   6.124   3.719   9.785  0.1129 -0.5403  0.3258
 2655TIP3    H132160   6.130   3.699   9.692 -1.5038 -2.1691  0.5205
 2655TIP3    H232161   6.099   3.811   9.789 -1.4335 -0.8784 -0.9103
 2656TIP3   OH232162   4.310   4.027  10.642  0.1640  0.0573  0.4027
 2656TIP3    H132163   4.228   4.041  10.689 -0.4811  1.0013 -0.9218
 2656TIP3    H232164   4.301   3.940  10.603 -0.8692  0.7354 -0.9430
 2657TIP3   OH232165   1.063   0.722   9.054 -0.4001 -0.1861  0.0347
 2657TIP3    H132166   1.054   0.817   9.065  0.0333 -0.3331  1.9393
 2657TIP3    H232167   1.011   0.684   9.124  2.8045 -1.2536  2.0432
 2658TIP3   OH232168   6.254   4.500  11.585 -0.0809  0.5118  0.4938
 2658TIP3    H132169   6.318   4.462  11.646 -2.2020 -1.1182  1.8698
 2658TIP3    H232170   6.196   4.552  11.641 -2.3924 -1.4549  0.1005
 2659TIP3   OH232171   1.725   2.778  11.226  0.2870  0.1487 -0.2691
 2659TIP3    H132172   1.668   2.707  11.198 -1.8030  1.8165 -0.4440
 2659TIP3    H232173   1.774   2.803  11.148 -0.1535 -0.0386 -0.6035
 2660TIP3   OH232174   3.870   2.518   8.780 -0.5654  0.0566 -0.0212
 2660TIP3    H132175   3.870   2.445   8.842  0.8090  0.4961  0.5359
 2660TIP3    H232176   3.836   2.481   8.699 -1.3102 -0.8180  0.6683
 2661TIP3   OH232177   4.387   0.320  10.411  0.0563  0.2943 -0.1620
 2661TIP3    H132178   4.424   0.278  10.334  1.0409 -0.2075  0.5664
 2661TIP3    H232179   4.430   0.406  10.415  0.4445  0.0907  0.1421
 2662TIP3   OH232180   1.839   1.864  12.488 -0.3105  0.0071 -0.1556
 2662TIP3    H132181   1.803   1.799  12.427  1.7798 -0.1418 -1.3296
 2662TIP3    H232182   1.798   1.946  12.461 -1.2832 -0.4491 -0.1226
 2663TIP3   OH232183   1.251   2.490  10.349 -0.2953 -0.3837 -0.4364
 2663TIP3    H132184   1.224   2.549  10.420  2.1753 -1.5423  1.6193
 2663TIP3    H232185   1.313   2.541  10.298 -0.3164 -0.2978 -0.3774
 2664TIP3   OH232186   2.588   6.587   8.471  0.0505  0.4209 -0.8597
 2664TIP3    H132187   2.618   6.677   8.477 -0.1666  0.4069  0.5362
 2664TIP3    H232188   2.601   6.551   8.558 -1.3053 -0.4537 -0.9950
 2665TIP3   OH232189   3.125   1.968  11.281 -0.6611  0.1138  0.2072
 2665TIP3    H132190   3.174   1.916  11.346  0.9907  0.0968 -0.9965
 2665TIP3    H232191   3.125   1.914  11.202 -3.5843 -0.3405  0.4288
 2666TIP3   OH232192   1.509   5.745  11.238  0.4166  0.5436  0.0317
 2666TIP3    H132193   1.515   5.705  11.152  0.4049 -1.6165  0.9741
 2666TIP3    H232194   1.429   5.707  11.277  0.9740  0.6652  1.3642
 2667TIP3   OH232195   3.271   5.152  11.261  0.4212  0.8401  0.3652
 2667TIP3    H132196   3.176   5.141  11.255  0.5640 -1.1620  0.9691
 2667TIP3    H232197   3.298   5.178  11.172 -0.6529  1.2323  0.1423
 2668TIP3   OH232198   1.874   1.344  11.438 -0.4370 -0.9812 -0.7301
 2668TIP3    H132199   1.858   1.427  11.394 -0.2514  0.0233  0.9741
 2668TIP3    H232200   1.963   1.353  11.474 -1.5311 -0.5463  2.1568
 2669TIP3   OH232201   3.559   6.009  12.167  0.3549 -0.2487  0.5625
 2669TIP3    H132202   3.464   6.004  12.158  0.1083  2.5318  0.8384
 2669TIP3    H232203   3.590   6.032  12.079  0.9819 -2.5170  0.1266
 2670TIP3   OH232204   5.373   5.603  10.041  0.2171 -0.2609 -0.1619
 2670TIP3    H132205   5.285   5.571  10.061  0.8197 -2.4524 -0.6816
 2670TIP3    H232206   5.362   5.696  10.023 -1.7354 -0.1653  1.2746
 2671TIP3   OH232207   5.527   0.199  10.671  0.0455 -0.2533  0.1081
 2671TIP3    H132208   5.473   0.122  10.653 -3.1201  1.6885  0.4907
 2671TIP3    H232209   5.540   0.197  10.765  0.0458 -0.3438  0.1069
 2672TIP3   OH232210   4.609   5.218  11.395 -0.5942  0.0331  0.0721
 2672TIP3    H132211   4.666   5.186  11.325  0.2943  0.6327  0.5076
 2672TIP3    H232212   4.582   5.305  11.367  1.7908  1.3649  1.5386
 2673TIP3   OH232213   5.435   5.340  10.177  0.3746 -0.5010 -0.0683
 2673TIP3    H132214   5.408   5.287  10.102 -0.4474 -0.5508  0.2616
 2673TIP3    H232215   5.411   5.429  10.154  0.4483 -0.4666 -0.0136
 2674TIP3   OH232216   3.853   2.436  11.149  0.0379  0.1003  0.6258
 2674TIP3    H132217   3.851   2.342  11.166  0.4711  0.0218  0.2518
 2674TIP3    H232218   3.774   2.470  11.192 -0.2659 -0.4718  0.5259
 2675TIP3   OH232219   1.744   0.271  10.364 -0.5844  0.5003 -0.2443
 2675TIP3    H132220   1.767   0.356  10.327 -0.0940  0.0478 -1.0108
 2675TIP3    H232221   1.685   0.291  10.437 -2.9228  1.3638 -2.2492
 2676TIP3   OH232222   5.710   0.807  11.887 -0.2217  0.1782 -0.5894
 2676TIP3    H132223   5.729   0.885  11.835 -0.0938  0.0776 -0.6979
 2676TIP3    H232224   5.656   0.752  11.830 -0.4480  0.2584 -0.4530
 2677TIP3   OH232225   2.197   2.208  11.481  0.0750  0.5340  0.2107
 2677TIP3    H132226   2.279   2.207  11.432  0.7817  0.4836  1.3503
 2677TIP3    H232227   2.190   2.120  11.518 -0.0200  0.8151  0.8737
 2678TIP3   OH232228   4.010   5.625  10.178 -0.4215 -0.3556  0.7215
 2678TIP3    H132229   4.087   5.663  10.137 -0.2500 -1.2737  0.1610
 2678TIP3    H232230   4.026   5.632  10.272 -0.9428  2.0477  0.7020
 2679TIP3   OH232231   5.035   0.774   9.411  0.0875  0.0564  0.3684
 2679TIP3    H132232   5.108   0.815   9.365 -0.3358 -0.5673 -0.9448
 2679TIP3    H232233   5.068   0.688   9.436  0.5779  0.6825  2.0231
 2680TIP3   OH232234   5.153   1.850   9.547  0.0516 -0.4477 -0.3924
 2680TIP3    H132235   5.087   1.786   9.520  0.1163 -1.0921  0.9145
 2680TIP3    H232236   5.232   1.798   9.562 -0.2610 -0.3239  2.0392
 2681TIP3   OH232237   5.000   0.118  10.724 -0.4680  0.4100  0.1006
 2681TIP3    H132238   4.994   0.059  10.649 -4.3836  1.7715 -0.9640
 2681TIP3    H232239   4.973   0.065  10.799  0.4650 -0.2002  0.0216
 2682TIP3   OH232240   5.801   5.805  12.033 -0.5313 -0.1599  0.0654
 2682TIP3    H132241   5.868   5.771  12.091  0.1509  0.1403 -0.5353
 2682TIP3    H232242   5.722   5.811  12.088  0.0623 -0.0066  0.9129
 2683TIP3   OH232243   6.346   6.372  12.247  0.2423 -0.3517 -0.2292
 2683TIP3    H132244   6.381   6.456  12.278 -0.4137 -0.5760  1.1743
 2683TIP3    H232245   6.424   6.318  12.232  0.5969 -0.2663  1.1705
 2684TIP3   OH232246   4.051   5.653  10.455 -0.4244  0.0881  0.1987
 2684TIP3    H132247   4.082   5.564  10.472  0.1243  0.6253  2.2922
 2684TIP3    H232248   4.006   5.678  10.536  0.3793  2.0989  0.0815
 2685TIP3   OH232249   3.333   0.163  11.193  0.6740  0.0229 -0.3268
 2685TIP3    H132250   3.393   0.224  11.234 -0.7991  2.6984 -1.8514
 2685TIP3    H232251   3.248   0.180  11.235  0.1622 -0.8231 -0.9630
 2686TIP3   OH232252   2.310   2.838  10.091 -0.2572 -0.6028  0.1533
 2686TIP3    H132253   2.217   2.859  10.083  0.3927  2.5208 -0.3001
 2686TIP3    H232254   2.340   2.888  10.166  0.9257 -2.3246  0.8856
 2687TIP3   OH232255   0.811   2.181  12.046  0.0348  0.1609 -0.5192
 2687TIP3    H132256   0.831   2.257  11.992 -0.6075  0.2151 -0.6883
 2687TIP3    H232257   0.764   2.217  12.122  0.3542  0.0105 -0.2436
 2688TIP3   OH232258   6.531   4.845  11.116 -0.1222  0.4221 -0.2398
 2688TIP3    H132259   6.528   4.837  11.211 -2.9217  1.5711 -0.1464
 2688TIP3    H232260   6.575   4.928  11.100  1.6090 -0.4208 -0.0557
 2689TIP3   OH232261   6.448   3.031   9.216 -0.6150  0.2712  0.7218
 2689TIP3    H132262   6.388   3.087   9.167 -0.7466  0.3178  0.9318
 2689TIP3    H232263   6.508   2.996   9.151 -1.2416 -0.2516  0.4143
 2690TIP3   OH232264   4.194   5.663  11.373 -0.1965 -0.1924 -0.0215
 2690TIP3    H132265   4.180   5.754  11.346 -0.6123 -0.0524  0.6485
 2690TIP3    H232266   4.288   5.657  11.391 -0.2161  0.1762  0.1987
 2691TIP3   OH232267   1.783   3.226  12.229 -0.1558  0.7574 -0.0801
 2691TIP3    H132268   1.826   3.141  12.237  0.4683  1.0447 -0.3049
 2691TIP3    H232269   1.839   3.276  12.169 -0.9777  1.0342 -0.6440
 2692TIP3   OH232270   1.689   1.149   8.248 -0.4650  0.2079 -0.5558
 2692TIP3    H132271   1.666   1.210   8.318  1.0567  1.6986 -1.2661
 2692TIP3    H232272   1.622   1.163   8.181 -0.2343  0.9996 -0.6375
 2693TIP3   OH232273   1.936   4.453  12.140  0.0761 -1.0202  0.2107
 2693TIP3    H132274   2.024   4.487  12.123 -0.5601  0.5400 -0.0704
 2693TIP3    H232275   1.929   4.377  12.081  0.0249  0.8867 -2.4578
 2694TIP3   OH232276   2.231   3.486  10.557 -0.5930 -0.1932 -0.3165
 2694TIP3    H132277   2.197   3.479  10.468  0.4302  0.5852 -0.7903
 2694TIP3    H232278   2.323   3.512  10.546 -0.4651 -0.0114  0.9709
 2695TIP3   OH232279   2.386   3.996  10.602 -0.1670  0.0861  0.1368
 2695TIP3    H132280   2.366   4.057  10.531 -2.8758  0.1932  0.8868
 2695TIP3    H232281   2.324   4.018  10.672  0.7505 -1.6168  1.5904
 2696TIP3   OH232282   2.523   2.202  11.987  0.4876 -0.3533 -0.1501
 2696TIP3    H132283   2.536   2.258  11.910 -2.1019  0.4620 -0.0748
 2696TIP3    H232284   2.431   2.211  12.009  0.9596 -1.1674  2.6344
 2697TIP3   OH232285   6.242   1.896  11.996  0.3872 -0.1257 -0.0311
 2697TIP3    H132286   6.195   1.814  12.014  0.8422 -0.3374  0.1942
 2697TIP3    H232287   6.332   1.869  11.979  0.2797  0.2010 -1.2271
 2698TIP3   OH232288   2.270   3.240  10.400  0.7242  0.0472  0.1627
 2698TIP3    H132289   2.193   3.218  10.346 -0.8121  1.6765  1.5695
 2698TIP3    H232290   2.336   3.267  10.336 -0.1577 -0.5130 -1.0519
 2699TIP3   OH232291   1.865   4.428   9.490 -0.6214  0.0528 -0.2719
 2699TIP3    H132292   1.794   4.453   9.431  0.8626 -1.3697 -2.8101
 2699TIP3    H232293   1.941   4.477   9.459  0.5402 -1.8227 -0.5294
 2700TIP3   OH232294   1.053   4.604  10.646  0.4992  0.0756 -0.1813
 2700TIP3    H132295   1.015   4.560  10.570  0.7166  0.4733 -0.5222
 2700TIP3    H232296   1.006   4.687  10.652 -0.2634 -0.4080  0.7690
 2701TIP3   OH232297   5.503   3.290  10.173 -0.0954 -0.4933 -0.0813
 2701TIP3    H132298   5.484   3.260  10.262 -1.3934  0.3412 -0.0548
 2701TIP3    H232299   5.518   3.384  10.181  0.0660 -0.4577 -0.6994
 2702TIP3   OH232300   3.501   3.095   9.847 -0.1367  0.2958  0.0482
 2702TIP3    H132301   3.473   3.006   9.868  0.0585  0.7316  2.4988
 2702TIP3    H232302   3.586   3.085   9.806  0.5219 -0.6358  1.5612
 2703TIP3   OH232303   2.992   2.423  11.503 -0.1314  0.2797  0.2927
 2703TIP3    H132304   2.901   2.427  11.474  0.0637  1.1709 -0.2310
 2703TIP3    H232305   3.020   2.335  11.480 -0.7778  0.0936  0.1920
 2704TIP3   OH232306   4.901   5.892  11.725  0.1275  0.1779 -0.6797
 2704TIP3    H132307   4.829   5.923  11.779  0.2648  0.3287 -0.5809
 2704TIP3    H232308   4.957   5.969  11.713  1.5573 -0.4693  1.2986
 2705TIP3   OH232309   4.197   1.029  12.730  0.4338 -0.4224 -0.5694
 2705TIP3    H132310   4.288   1.000  12.738  0.7206 -0.7831 -3.7864
 2705TIP3    H232311   4.202   1.118  12.697 -0.3802 -0.3890 -0.6372
 2706TIP3   OH232312   6.128   4.832  10.336  0.0735  0.1565 -0.8467
 2706TIP3    H132313   6.175   4.850  10.255  0.9599 -1.2351 -0.6739
 2706TIP3    H232314   6.087   4.746  10.321  0.1553 -0.0635  0.1307
 2707TIP3   OH232315   4.195   1.585   9.450  0.5027  0.0677  0.0443
 2707TIP3    H132316   4.104   1.606   9.430  0.8534  2.8506  0.9046
 2707TIP3    H232317   4.241   1.597   9.367  0.3616  0.5380  0.0336
 2708TIP3   OH232318   1.391   3.788   9.877  0.3675 -0.1733  0.2253
 2708TIP3    H132319   1.445   3.745   9.943  0.3898  0.3565  0.5621
 2708TIP3    H232320   1.435   3.768   9.794  2.6536  2.3824  0.6696
 2709TIP3   OH232321   4.380   4.197  10.907 -0.3715 -0.3842 -0.2160
 2709TIP3    H132322   4.369   4.181  11.001 -0.8736 -1.1755 -0.3985
 2709TIP3    H232323   4.291   4.213  10.875  0.0099  2.2584 -0.1745
 2710TIP3   OH232324   5.444   2.773  10.022  0.4160  0.9352 -0.0355
 2710TIP3    H132325   5.473   2.709   9.957  1.6828  0.3385  1.0777
 2710TIP3    H232326   5.379   2.726  10.074  1.1954  0.6125  0.6529
 2711TIP3   OH232327   5.747   5.202  11.000 -0.4014  0.2899  0.3441
 2711TIP3    H132328   5.656   5.184  10.978 -0.4327 -0.4163  1.0251
 2711TIP3    H232329   5.746   5.220  11.094  0.5132 -2.4245  0.9675
 2712TIP3   OH232330   4.082   5.263  12.230  0.0928 -0.3442 -0.4377
 2712TIP3    H132331   4.163   5.278  12.280 -0.2638 -0.7074  0.2603
 2712TIP3    H232332   4.052   5.177  12.258  0.5828 -1.1750 -2.2772
 2713TIP3   OH232333   3.067   5.790  11.722 -0.6952  0.1927 -0.8372
 2713TIP3    H132334   3.050   5.870  11.672 -0.5976  0.2423 -0.7919
 2713TIP3    H232335   3.052   5.719  11.660 -1.6861  0.2082 -0.6391
 2714TIP3   OH232336   2.445   4.771  12.436  0.2819 -0.0829 -0.9418
 2714TIP3    H132337   2.511   4.721  12.387 -0.2500 -0.0772 -1.6770
 2714TIP3    H232338   2.440   4.727  12.521  0.6545 -0.5796 -1.1736
 2715TIP3   OH232339   3.876   6.454   9.480  0.1457  0.2391  0.0221
 2715TIP3    H132340   3.875   6.362   9.456 -1.0560  0.0121  0.8445
 2715TIP3    H232341   3.964   6.484   9.457  0.0428 -0.6876 -1.7441
 2716TIP3   OH232342   2.770   5.388  11.366  0.0663 -0.1285  0.7206
 2716TIP3    H132343   2.686   5.352  11.394  0.6318 -2.9827 -0.8900
 2716TIP3    H232344   2.749   5.446  11.293 -0.8590  3.1174  3.3246
 2717TIP3   OH232345   3.543   1.517  11.752 -0.2782  0.1018 -0.6676
 2717TIP3    H132346   3.499   1.592  11.712 -0.0714  0.9876  0.6933
 2717TIP3    H232347   3.482   1.486  11.819 -0.9082 -1.7668 -2.0358
 2718TIP3   OH232348   6.042   2.350  10.467 -0.1345  0.1697 -0.0130
 2718TIP3    H132349   6.112   2.341  10.531  0.5703  0.4269 -0.7363
 2718TIP3    H232350   6.045   2.269  10.416 -1.3185 -0.4688  0.8546
 2719TIP3   OH232351   0.055   1.987  11.860  0.0976 -0.2576 -0.1098
 2719TIP3    H132352   0.105   2.068  11.849 -0.8469  0.0103 -3.9386
 2719TIP3    H232353   0.101   1.923  11.806 -1.6640 -0.9736 -0.8405
 2720TIP3   OH232354   3.931   2.599   9.435  0.4809  0.0015 -0.5985
 2720TIP3    H132355   3.898   2.509   9.435 -0.1037  0.2123 -0.6745
 2720TIP3    H232356   3.991   2.602   9.360  0.3483 -0.2728 -0.7185
 2721TIP3   OH232357   2.387   4.607  11.113  0.4013 -0.4030  0.4722
 2721TIP3    H132358   2.471   4.628  11.072  0.2975  1.1819  1.0250
 2721TIP3    H232359   2.404   4.526  11.162  1.3080 -0.6765 -0.2691
 2722TIP3   OH232360   5.315   3.278  10.879 -0.3465  0.3122  0.4404
 2722TIP3    H132361   5.265   3.241  10.953 -2.6409 -0.7843 -1.5028
 2722TIP3    H232362   5.373   3.207  10.852  0.5240  0.7282  1.1835
 2723TIP3   OH232363   1.248   1.645   9.046 -0.5004 -0.0847 -0.0845
 2723TIP3    H132364   1.266   1.641   9.140 -2.0794  0.0753  0.2636
 2723TIP3    H232365   1.191   1.721   9.036 -2.4199 -1.5226 -0.7589
 2724TIP3   OH232366   0.804   0.665  11.752  0.1831  0.2147 -0.0476
 2724TIP3    H132367   0.819   0.719  11.830  0.4394  0.3299 -0.1777
 2724TIP3    H232368   0.891   0.636  11.725  0.1444  0.5367 -0.5477
 2725TIP3   OH232369   1.586   3.296   9.180  0.2010  0.3266 -0.5133
 2725TIP3    H132370   1.640   3.367   9.145  1.2388 -0.3591 -0.3458
 2725TIP3    H232371   1.550   3.254   9.102  0.1241  0.6284 -0.6417
 2726TIP3   OH232372   5.732   1.465  11.168  0.0421  0.2997 -0.2649
 2726TIP3    H132373   5.721   1.527  11.096  0.1258 -0.0711 -0.6023
 2726TIP3    H232374   5.756   1.519  11.243  0.6056  0.6317 -0.6723
 2727TIP3   OH232375   5.631   3.232   9.447  0.1522  0.1302  0.2814
 2727TIP3    H132376   5.635   3.137   9.432  0.1726  0.2395 -0.4487
 2727TIP3    H232377   5.689   3.269   9.380  1.0853  0.5882  1.3172
 2728TIP3   OH232378   5.332   6.316   9.718 -0.8459  0.3974 -0.4596
 2728TIP3    H132379   5.317   6.223   9.739 -0.8101  0.3888 -0.4734
 2728TIP3    H232380   5.427   6.325   9.714 -0.8502  0.4284 -0.4871
 2729TIP3   OH232381   5.926   2.228  11.913  0.0409 -0.0727 -0.5717
 2729TIP3    H132382   5.963   2.169  11.847  0.6929 -0.6316  0.2771
 2729TIP3    H232383   5.877   2.170  11.971  0.0472  0.3226 -0.1728
 2730TIP3   OH232384   1.333   5.774  12.410  0.5124 -0.1247 -0.7985
 2730TIP3    H132385   1.406   5.717  12.387  1.2291  0.8781 -1.1096
 2730TIP3    H232386   1.373   5.844  12.462 -0.7559 -1.3350  2.0764
 2731TIP3   OH232387   5.264   4.924  12.316 -0.0899 -0.5822  0.3413
 2731TIP3    H132388   5.255   5.013  12.351  0.8425  0.1415 -1.1107
 2731TIP3    H232389   5.223   4.929  12.229 -0.0753 -1.5869  0.2708
 2732TIP3   OH232390   1.557   3.351  10.295  0.4871  0.2254 -0.5432
 2732TIP3    H132391   1.625   3.400  10.248  1.4280  0.2478  0.7847
 2732TIP3    H232392   1.530   3.283  10.234  2.0061 -0.0371 -0.9791
 2733TIP3   OH232393   3.582   5.114  11.090  0.7812  0.2315 -0.1695
 2733TIP3    H132394   3.580   5.185  11.155 -0.0961  0.4118 -0.3801
 2733TIP3    H232395   3.532   5.043  11.131  0.6843  0.1479 -0.4349
 2734TIP3   OH232396   1.109   2.759   8.595 -0.7654  0.5011  0.1692
 2734TIP3    H132397   1.065   2.686   8.638 -1.5129  0.7883 -0.0910
 2734TIP3    H232398   1.051   2.784   8.523 -0.6210  1.4761  0.3749
 2735TIP3   OH232399   3.985   2.860  12.099  0.2059 -0.4396 -0.2617
 2735TIP3    H132400   3.890   2.869  12.091  0.4665  0.9070 -3.0113
 2735TIP3    H232401   4.015   2.838  12.010  2.4994 -0.3888  0.4284
 2736TIP3   OH232402   1.830   4.977  11.722  0.0042 -0.3152  0.0622
 2736TIP3    H132403   1.747   5.002  11.763  0.7290 -0.7520  1.9050
 2736TIP3    H232404   1.804   4.924  11.647 -1.3967 -1.3360  1.1992
 2737TIP3   OH232405   1.863   3.825  10.120 -0.1293 -0.2015 -0.0007
 2737TIP3    H132406   1.949   3.867  10.125 -0.5574  1.1074 -2.3285
 2737TIP3    H232407   1.832   3.822  10.210  1.9572  0.1373  0.7767
 2738TIP3   OH232408   0.884   3.904  10.073 -0.0210 -0.3727  0.0749
 2738TIP3    H132409   0.967   3.873  10.037  0.3565 -1.1048  1.5330
 2738TIP3    H232410   0.908   3.971  10.137 -0.6795  0.7257 -0.7701
 2739TIP3   OH232411   4.469   0.582  10.431  0.1403  0.2663 -0.3846
 2739TIP3    H132412   4.433   0.610  10.347 -0.4922  0.0566 -0.1848
 2739TIP3    H232413   4.433   0.644  10.494 -0.0071 -0.0486 -0.1590
 2740TIP3   OH232414   6.318   0.964  10.724 -0.1920  0.1070 -0.0082
 2740TIP3    H132415   6.397   0.971  10.777  1.2707  1.7016 -2.2239
 2740TIP3    H232416   6.246   0.965  10.787  1.4924 -1.1097  2.0664
 2741TIP3   OH232417   2.211   5.086   9.922  0.2751 -0.9963  0.7547
 2741TIP3    H132418   2.121   5.059   9.902  0.0506  0.5669 -0.6141
 2741TIP3    H232419   2.202   5.138  10.003 -0.0609 -0.8404  0.6214
 2742TIP3   OH232420   4.910   1.124  11.707  0.1126  0.0863 -0.3811
 2742TIP3    H132421   4.888   1.212  11.679  1.6899  1.2331  1.6962
 2742TIP3    H232422   4.834   1.094  11.757 -0.0948  0.6006 -0.3892
 2743TIP3   OH232423   5.915   3.016  10.822  0.3576  0.8773  0.0260
 2743TIP3    H132424   5.994   2.988  10.776 -0.1242  0.9124 -0.8420
 2743TIP3    H232425   5.851   3.031  10.752 -0.7584 -0.2165  0.7806
 2744TIP3   OH232426   3.685   5.753  11.516  0.1232 -0.2594  0.2392
 2744TIP3    H132427   3.684   5.796  11.602 -0.3276  2.6348 -1.0964
 2744TIP3    H232428   3.593   5.748  11.490  0.3686  0.8038 -0.9139
 2745TIP3   OH232429   1.581   6.150  12.148  0.0607  0.1705 -0.5469
 2745TIP3    H132430   1.633   6.229  12.165  0.8903 -0.2960 -0.8856
 2745TIP3    H232431   1.496   6.168  12.189  0.7698  0.5807  0.7834
 2746TIP3   OH232432   4.451   5.924   8.907  0.1912 -0.1725 -0.1485
 2746TIP3    H132433   4.443   5.985   8.834  5.7283  0.6725 -0.4748
 2746TIP3    H232434   4.446   5.979   8.985  0.0931 -0.1397 -0.1776
 2747TIP3   OH232435   5.824   6.403  12.326 -0.4192  0.0199 -0.1374
 2747TIP3    H132436   5.852   6.427  12.238 -0.4925  0.1702 -0.1220
 2747TIP3    H232437   5.760   6.333  12.313  0.0110 -0.3639 -0.1687
 2748TIP3   OH232438   4.581   1.105  10.774 -0.0198  0.4936  0.1336
 2748TIP3    H132439   4.618   1.153  10.700 -1.2775  0.9315 -0.2277
 2748TIP3    H232440   4.513   1.050  10.736  0.0752 -0.1122  0.8190
 2749TIP3   OH232441   2.021   4.300  11.829 -0.2533 -0.4270  0.0579
 2749TIP3    H132442   1.938   4.263  11.798 -0.0418 -0.6108 -0.3072
 2749TIP3    H232443   2.015   4.393  11.808 -0.3541 -0.4466 -0.0006
 2750TIP3   OH232444   1.180   5.621  11.483  0.6216  0.3430 -0.3795
 2750TIP3    H132445   1.202   5.572  11.562 -0.6783  0.4121  0.0530
 2750TIP3    H232446   1.228   5.704  11.493 -0.2578  0.7446  0.8340
 2751TIP3   OH232447   3.179   2.330   9.485  0.7774 -0.1119  0.2986
 2751TIP3    H132448   3.171   2.240   9.454  1.8086  0.1725 -0.8607
 2751TIP3    H232449   3.145   2.384   9.414 -1.0304  0.4138  1.4798
 2752TIP3   OH232450   0.426   1.157  11.687 -0.5288 -0.1131 -0.5682
 2752TIP3    H132451   0.335   1.131  11.701 -0.4521 -0.5195 -0.8096
 2752TIP3    H232452   0.472   1.125  11.764 -0.6902  0.6397 -0.1439
 2753TIP3   OH232453   4.335   5.322  10.716  0.5816 -0.1015  0.6519
 2753TIP3    H132454   4.388   5.341  10.793 -0.3913  1.3212  1.0081
 2753TIP3    H232455   4.396   5.280  10.655  1.5829 -0.4443  1.8443
 2754TIP3   OH232456   3.795   2.642  10.592 -0.2664 -0.4351  0.4354
 2754TIP3    H132457   3.718   2.586  10.595 -0.2777 -0.3831  1.7185
 2754TIP3    H232458   3.853   2.607  10.659  0.7962 -0.4102 -0.4384
 2755TIP3   OH232459   2.442   3.835   9.831  0.8228  0.8846 -0.4107
 2755TIP3    H132460   2.347   3.845   9.841  0.7193 -0.4101  0.0787
 2755TIP3    H232461   2.452   3.762   9.770  1.5068  1.0710 -0.5261
 2756TIP3   OH232462   0.115   2.479  11.809  0.1682 -0.3113  0.1673
 2756TIP3    H132463   0.048   2.518  11.752 -0.3788  1.6559  2.0293
 2756TIP3    H232464   0.158   2.555  11.850  2.0289 -1.6031  0.7259
 2757TIP3   OH232465   0.221   1.974   9.810  0.3652 -0.4409 -0.2006
 2757TIP3    H132466   0.258   2.046   9.862  1.3714 -1.8468  1.1049
 2757TIP3    H232467   0.285   1.961   9.739 -0.3986  0.6713 -1.1330
 2758TIP3   OH232468   3.961   5.973   9.808  0.3654  0.3900 -0.2850
 2758TIP3    H132469   3.956   5.969   9.904 -1.0099  2.1616 -0.2128
 2758TIP3    H232470   3.978   5.883   9.781 -0.9429 -0.4844  1.5493
 2759TIP3   OH232471   0.808   1.024  11.344 -0.2899  0.2951 -0.4363
 2759TIP3    H132472   0.852   1.015  11.260 -0.3758 -0.5433 -0.3988
 2759TIP3    H232473   0.714   1.023  11.323 -0.3223 -0.5982 -0.2765
 2760TIP3   OH232474   5.191   1.148  11.298 -0.7138 -0.2294  0.6792
 2760TIP3    H132475   5.186   1.056  11.274  0.6075 -0.0987 -0.1833
 2760TIP3    H232476   5.103   1.182  11.280 -0.9210 -1.0927  0.0270
 2761TIP3   OH232477   5.105   4.677  11.061  0.0453 -0.3237 -0.5690
 2761TIP3    H132478   5.125   4.748  11.122 -2.7098 -0.0073  0.1104
 2761TIP3    H232479   5.190   4.649  11.028  1.3247  2.4454  0.0716
 2762TIP3   OH232480   0.446   4.244  11.469 -0.2908  0.0772 -0.0548
 2762TIP3    H132481   0.377   4.190  11.431  0.6220  0.1868 -1.9545
 2762TIP3    H232482   0.520   4.236  11.408  0.8367  1.2193  1.0946
 2763TIP3   OH232483   2.242   0.212  11.766 -0.4367 -0.1387  0.0765
 2763TIP3    H132484   2.255   0.268  11.689 -2.4599 -1.0963 -1.0437
 2763TIP3    H232485   2.252   0.271  11.841 -1.1647  1.4405 -1.0101
 2764TIP3   OH232486   1.229   0.583  10.600 -0.2237  0.2524 -0.1741
 2764TIP3    H132487   1.204   0.522  10.531 -0.5459 -0.9140  0.9386
 2764TIP3    H232488   1.315   0.554  10.629 -0.1749  0.6113  0.0477
 2765TIP3   OH232489   0.997   2.249   9.327  0.2579  0.1098  0.0302
 2765TIP3    H132490   1.003   2.318   9.394 -0.3620 -0.8007  1.0731
 2765TIP3    H232491   1.002   2.167   9.377 -1.8668 -0.6191 -0.8508
 2766TIP3   OH232492   2.218   5.637  11.842 -0.2116  0.1719 -0.0201
 2766TIP3    H132493   2.252   5.568  11.899 -2.3948 -0.2458  0.8749
 2766TIP3    H232494   2.280   5.640  11.769  1.9680 -0.1920  1.6739
 2767TIP3   OH232495   4.984   5.747  10.013  0.3254 -0.3640 -0.0755
 2767TIP3    H132496   5.067   5.740  10.061  0.4081  0.2345 -0.1235
 2767TIP3    H232497   4.942   5.663  10.027  0.4906 -0.3166  0.7996
 2768TIP3   OH232498   1.110   3.865  11.980 -0.0677  0.1990 -0.0423
 2768TIP3    H132499   1.173   3.793  11.975 -0.7803 -0.5566  1.1636
 2768TIP3    H232500   1.157   3.934  12.027 -0.4825 -0.8311  2.0102
 2769TIP3   OH232501   1.418   5.858  10.135  0.1793  0.2557 -0.4423
 2769TIP3    H132502   1.378   5.772  10.151  0.2097  0.4078  0.5289
 2769TIP3    H232503   1.479   5.843  10.063 -0.7792 -0.2402 -1.1874
 2770TIP3   OH232504   1.164   4.370   9.347  0.5200 -0.0529  0.2751
 2770TIP3    H132505   1.103   4.298   9.334 -0.6019  0.9881 -0.5540
 2770TIP3    H232506   1.114   4.435   9.397  1.1123  0.6006  0.0401
 2771TIP3   OH232507   3.070   3.195   9.146  0.1435 -0.2079  0.1763
 2771TIP3    H132508   3.101   3.232   9.063 -1.9774 -1.2382 -1.1953
 2771TIP3    H232509   3.012   3.262   9.182 -0.0901 -0.3428  0.0545
 2772TIP3   OH232510   2.725   5.827  10.958 -0.0926 -0.3671 -0.2976
 2772TIP3    H132511   2.723   5.816  10.863 -1.2787 -0.4636 -0.2718
 2772TIP3    H232512   2.654   5.771  10.990 -1.9904  2.2156  0.3479
 2773TIP3   OH232513   6.055   4.550  11.199 -0.6640 -0.8637 -0.5568
 2773TIP3    H132514   6.088   4.550  11.109  0.9170 -1.1294 -0.0090
 2773TIP3    H232515   6.036   4.458  11.218 -0.3962 -0.8952 -0.4275
 2774TIP3   OH232516   4.063   2.272   9.505 -0.3797 -0.2974  0.4867
 2774TIP3    H132517   4.006   2.320   9.445  0.1773  0.2883  0.4123
 2774TIP3    H232518   4.009   2.255   9.582 -0.4229  0.9961  0.7670
 2775TIP3   OH232519   3.272   2.300  11.347 -0.1977 -0.2388  0.4480
 2775TIP3    H132520   3.256   2.395  11.344  0.1212 -0.1488  1.3361
 2775TIP3    H232521   3.189   2.261  11.321 -0.5701  0.2804  0.8317
 2776TIP3   OH232522   5.689   0.027  10.934 -0.2538 -0.2343 -0.1496
 2776TIP3    H132523   5.767  -0.028  10.931 -0.1668 -0.3115  1.9173
 2776TIP3    H232524   5.615  -0.034  10.928 -0.1506 -0.4713  0.8501
 2777TIP3   OH232525   1.127   2.701   9.481  0.0242  0.1985  0.1435
 2777TIP3    H132526   1.186   2.770   9.512  0.2281  0.0776  0.0266
 2777TIP3    H232527   1.052   2.748   9.445 -0.2766  0.3429  0.9278
 2778TIP3   OH232528   1.416   3.937  12.543  0.1229 -0.2842 -0.7639
 2778TIP3    H132529   1.332   3.899  12.518 -2.0012  2.8477  0.9434
 2778TIP3    H232530   1.393   4.014  12.595  4.1002  0.1971  0.6187
 2779TIP3   OH232531   4.529   2.280  12.459 -0.2046 -0.6669 -0.7632
 2779TIP3    H132532   4.444   2.304  12.496  0.1476  0.9664 -0.9506
 2779TIP3    H232533   4.529   2.184  12.462 -1.3231 -0.6755  0.8835
 2780TIP3   OH232534   0.515   6.583  10.861  0.9824  0.1145  0.2473
 2780TIP3    H132535   0.489   6.674  10.871 -0.5747 -0.3850  1.1262
 2780TIP3    H232536   0.521   6.570  10.767  0.0218  0.8313  0.0701
 2781TIP3   OH232537   4.105   0.777  12.670 -0.2262 -0.2580  0.2834
 2781TIP3    H132538   4.195   0.758  12.695 -0.2500  0.3329  0.8554
 2781TIP3    H232539   4.103   0.872  12.657 -0.7678 -0.2664  0.2643
 2782TIP3   OH232540   1.046   0.908  10.869 -0.0099 -0.0305 -0.2291
 2782TIP3    H132541   1.072   0.818  10.849  0.5295  0.2906 -1.0594
 2782TIP3    H232542   1.101   0.961  10.812  0.4167  0.8831  1.0040
 2783TIP3   OH232543   3.859   2.179   9.707 -0.1815 -0.1366  0.1731
 2783TIP3    H132544   3.787   2.155   9.649  1.1233 -1.9087 -0.8160
 2783TIP3    H232545   3.889   2.096   9.745  1.1903  0.5692  0.7310
 2784TIP3   OH232546   2.433   2.730  10.724  0.0366  0.3785 -0.2928
 2784TIP3    H132547   2.472   2.815  10.746  2.0968 -0.3172 -1.0377
 2784TIP3    H232548   2.398   2.697  10.807  2.0516  0.5689  0.6908
 2785TIP3   OH232549   5.300   1.367  10.030  0.0087 -0.4167  0.6148
 2785TIP3    H132550   5.375   1.420  10.003  0.2364 -0.2378  1.5825
 2785TIP3    H232551   5.227   1.402   9.979  0.2190  0.6259  1.0049
 2786TIP3   OH232552   0.193   6.162  10.433  0.2230  0.4701 -0.0769
 2786TIP3    H132553   0.180   6.084  10.379 -0.0654  1.8833 -2.1245
 2786TIP3    H232554   0.109   6.173  10.478  0.7317 -1.1902  1.4205
 2787TIP3   OH232555   3.227   2.142  11.041 -0.2619  0.2995 -0.6203
 2787TIP3    H132556   3.245   2.092  11.120  1.5396  0.5879 -0.8111
 2787TIP3    H232557   3.222   2.233  11.070 -1.3088  0.2428 -0.5993
 2788TIP3   OH232558   1.040   2.654  11.987  0.4048  0.5095  0.2573
 2788TIP3    H132559   0.997   2.737  12.005  0.5219  0.6397 -0.0652
 2788TIP3    H232560   1.026   2.638  11.894 -1.0417 -0.6429  0.6289
 2789TIP3   OH232561   3.268   0.844   9.472  0.0148  0.1623  0.1553
 2789TIP3    H132562   3.172   0.839   9.480  0.0190  1.3226  1.3104
 2789TIP3    H232563   3.300   0.811   9.556  0.6269  0.0068 -0.1356
 2790TIP3   OH232564   3.855   6.136  12.084 -0.6529 -0.0587 -0.1965
 2790TIP3    H132565   3.806   6.094  12.155 -0.7422  0.6910  0.1970
 2790TIP3    H232566   3.944   6.103  12.093 -0.4808  0.6334  0.7674
 2791TIP3   OH232567   1.940   3.799  11.581 -0.1724 -0.2844  0.0459
 2791TIP3    H132568   1.967   3.807  11.672 -0.0692  0.1865 -0.0240
 2791TIP3    H232569   2.021   3.808  11.531 -0.3947  0.7981 -0.1479
 2792TIP3   OH232570   6.257   5.159  11.976 -0.1543  0.1038  0.1204
 2792TIP3    H132571   6.269   5.162  11.882  0.4164  0.3280  0.1960
 2792TIP3    H232572   6.330   5.106  12.008 -0.1312  0.3395  0.4687
 2793TIP3   OH232573   4.409   3.028  10.184 -0.0272  0.1374  0.2977
 2793TIP3    H132574   4.462   2.964  10.136  1.4681  1.9965 -0.6853
 2793TIP3    H232575   4.375   3.086  10.116 -1.3955  0.3885  1.1568
 2794TIP3   OH232576   1.983   5.249   9.756  0.4070  0.4303  0.6100
 2794TIP3    H132577   1.932   5.235   9.676 -0.7511  2.0679  1.0002
 2794TIP3    H232578   2.029   5.332   9.740  2.4929 -0.6773  0.5355
 2795TIP3   OH232579   3.664   4.070  11.664 -0.2220  0.0862  0.2382
 2795TIP3    H132580   3.649   4.152  11.617 -1.1456  0.4047  1.0504
 2795TIP3    H232581   3.648   4.002  11.599 -1.6316  0.5140  0.0929
 2796TIP3   OH232582   3.438   5.719  12.399  0.0807 -0.4401 -0.2572
 2796TIP3    H132583   3.382   5.641  12.391 -0.4197  0.0649 -2.2759
 2796TIP3    H232584   3.386   5.789  12.360 -0.0996  1.3080  2.8139
 2797TIP3   OH232585   1.411   5.730   9.743  0.0752  0.0229  0.1576
 2797TIP3    H132586   1.471   5.666   9.705 -1.6699 -0.1537 -2.6061
 2797TIP3    H232587   1.439   5.814   9.706  0.0867  0.3093  0.8035
 2798TIP3   OH232588   3.914   1.646  11.410  0.3187 -0.0730 -0.0526
 2798TIP3    H132589   3.823   1.656  11.437  0.7515  0.2141  1.3619
 2798TIP3    H232590   3.925   1.708  11.338 -0.5216  0.0581 -0.0805
 2799TIP3   OH232591   5.556   2.265  10.736  0.3562 -0.4170  0.4310
 2799TIP3    H132592   5.520   2.354  10.737  0.4785 -0.3483 -0.7920
 2799TIP3    H232593   5.510   2.221  10.666 -0.1872 -1.5446  1.4673
 2800TIP3   OH232594   1.126   0.544   9.435 -0.0367 -0.2941 -0.0096
 2800TIP3    H132595   1.047   0.521   9.484 -0.8136  2.7111  0.3347
 2800TIP3    H232596   1.188   0.474   9.455 -1.9982 -1.7927  1.1657
 2801TIP3   OH232597   2.103   2.866   9.598  0.5862 -0.4111 -0.2169
 2801TIP3    H132598   2.150   2.926   9.655  1.2129 -0.2059 -0.9225
 2801TIP3    H232599   2.069   2.798   9.656  2.2952 -0.9031  0.2800
 2802TIP3   OH232600   1.847   2.813  10.940  0.1442 -0.0721 -0.4275
 2802TIP3    H132601   1.817   2.736  10.891  1.1955 -0.2214 -0.8667
 2802TIP3    H232602   1.824   2.887  10.883 -0.6446 -0.0717 -0.1185
 2803TIP3   OH232603   5.123   5.711  10.367 -0.1813 -0.1127 -0.2389
 2803TIP3    H132604   5.141   5.798  10.401 -2.6957  0.2761  0.2452
 2803TIP3    H232605   5.134   5.653  10.442 -0.1551 -0.0061 -0.1602
 2804TIP3   OH232606   3.800   4.010  10.112  0.0635 -0.3924 -0.2666
 2804TIP3    H132607   3.835   4.095  10.086 -0.4513  0.1731  0.8305
 2804TIP3    H232608   3.874   3.950  10.102  0.2309  0.0142 -1.7724
 2805TIP3   OH232609   1.109   4.353  12.729 -0.5009 -0.2369 -0.0391
 2805TIP3    H132610   1.043   4.405  12.774  0.0518 -0.9423  1.6466
 2805TIP3    H232611   1.061   4.308  12.659 -1.2028  1.5562 -0.7617
 2806TIP3   OH232612   0.369   6.336  10.590 -0.2505 -0.4399 -0.0737
 2806TIP3    H132613   0.290   6.310  10.542  0.1313 -1.0664 -0.3703
 2806TIP3    H232614   0.345   6.327  10.683 -0.9010  0.5122 -0.1284
 2807TIP3   OH232615   3.872   4.323  12.545  0.0943 -0.4867  0.0794
 2807TIP3    H132616   3.838   4.413  12.542  0.9027 -0.1376  0.8796
 2807TIP3    H232617   3.955   4.327  12.498  0.5926 -0.5844  0.9161
 2808TIP3   OH232618   3.014   3.425  11.510 -0.4751  0.0789  0.3066
 2808TIP3    H132619   3.109   3.412  11.508 -0.7766 -2.5308 -0.2545
 2808TIP3    H232620   2.993   3.463  11.425  0.2097  2.4703  1.1270
 2809TIP3   OH232621   5.276   0.943   9.894 -0.8426  0.4202 -0.1416
 2809TIP3    H132622   5.251   1.026   9.855 -0.2500  0.5440 -0.2683
 2809TIP3    H232623   5.316   0.966   9.978 -0.3312  0.2928 -0.3490
 2810TIP3   OH232624   4.681   2.617  10.399 -0.5215  0.4310  0.4612
 2810TIP3    H132625   4.631   2.561  10.458 -0.3938  1.1111  1.2431
 2810TIP3    H232626   4.628   2.697  10.392  0.3405  1.0862  1.1516
 2811TIP3   OH232627   5.861   3.813  11.326  0.3307  0.1248 -0.4320
 2811TIP3    H132628   5.813   3.785  11.248  0.1450 -1.3498  0.1825
 2811TIP3    H232629   5.950   3.831  11.294  0.7165 -2.1023 -0.7473
 2812TIP3   OH232630   4.122   3.105  10.412 -0.6795 -0.0127 -0.2030
 2812TIP3    H132631   4.096   3.039  10.347  1.4230 -1.2024  0.0739
 2812TIP3    H232632   4.195   3.151  10.371 -1.4401  1.4579  0.0483
 2813TIP3   OH232633   0.379   0.939   9.382  0.3604 -0.1635  0.4437
 2813TIP3    H132634   0.327   0.876   9.331 -0.2906  0.7440 -0.0511
 2813TIP3    H232635   0.386   0.899   9.469 -1.1400 -0.3517  0.5159
 2814TIP3   OH232636   4.160   4.323  10.781 -0.4110  1.0756 -0.4702
 2814TIP3    H132637   4.235   4.334  10.723 -0.9246  1.4621 -1.0722
 2814TIP3    H232638   4.100   4.267  10.732 -0.1773  0.0927  0.3401
 2815TIP3   OH232639   2.207   6.065   9.819 -0.6979  0.1344  0.0090
 2815TIP3    H132640   2.237   6.123   9.889 -0.7171 -0.2941  0.3738
 2815TIP3    H232641   2.114   6.084   9.811 -0.9686 -0.7059  0.9673
 2816TIP3   OH232642   0.842   3.821   9.573  0.4370 -0.3522  0.3288
 2816TIP3    H132643   0.790   3.800   9.651 -0.5406 -3.1969 -0.9710
 2816TIP3    H232644   0.869   3.736   9.538  2.8536  0.9243 -1.1571
 2817TIP3   OH232645   1.509   5.828  10.415 -0.3681 -0.0434 -0.1840
 2817TIP3    H132646   1.493   5.866  10.329 -1.6272 -2.0242 -0.8821
 2817TIP3    H232647   1.591   5.780  10.406 -0.1504  0.3008 -0.0669
 2818TIP3   OH232648   3.082   5.434  12.599 -0.0683  0.3489 -0.1029
 2818TIP3    H132649   3.025   5.446  12.523 -0.3102  1.2975  0.2051
 2818TIP3    H232650   3.028   5.387  12.662 -0.1798  0.3710 -0.1813
 2819TIP3   OH232651   2.279   5.601   9.370 -0.2792 -0.6133  0.0588
 2819TIP3    H132652   2.373   5.614   9.385 -0.7136  0.5396  2.1512
 2819TIP3    H232653   2.240   5.688   9.384 -1.6716 -1.0863 -0.7189
 2820TIP3   OH232654   3.305   6.080  12.044  0.1888 -0.0156  0.1723
 2820TIP3    H132655   3.272   6.077  11.954 -1.2963 -1.3755  0.7187
 2820TIP3    H232656   3.295   6.171  12.070 -0.1542  0.2219 -0.7520
 2821TIP3   OH232657   3.555   0.704   9.763  0.1789 -0.5168 -0.5712
 2821TIP3    H132658   3.572   0.616   9.729 -1.2164 -1.0918  0.1338
 2821TIP3    H232659   3.459   0.712   9.763  0.2124  0.3452  1.0065
 2822TIP3   OH232660   0.564   6.467  11.134  0.5676 -0.0173 -0.8095
 2822TIP3    H132661   0.565   6.510  11.219  0.1391 -1.0592 -0.2652
 2822TIP3    H232662   0.550   6.539  11.071 -0.2203  0.6187  0.0720
 2823TIP3   OH232663   3.791   3.098  10.708 -0.0179  0.0435 -0.1783
 2823TIP3    H132664   3.725   3.030  10.691 -1.3948  1.3470 -0.3350
 2823TIP3    H232665   3.829   3.074  10.792  0.1793 -1.4067 -0.6582
 2824TIP3   OH232666   3.064   5.356  12.011 -0.1219  0.1344 -0.4661
 2824TIP3    H132667   3.073   5.376  11.918 -0.7303 -0.9037 -0.7699
 2824TIP3    H232668   3.066   5.441  12.055 -0.2795  0.6688 -1.4744
 2825TIP3   OH232669   1.297   0.185  11.710 -0.6690  0.0527  0.6882
 2825TIP3    H132670   1.338   0.266  11.682 -0.9286 -0.3765 -1.0787
 2825TIP3    H232671   1.218   0.212  11.758 -1.4367  0.8754 -0.9580
 2826TIP3   OH232672   3.868   0.637  11.570  0.1501  0.4823 -0.0923
 2826TIP3    H132673   3.873   0.699  11.642  1.2119 -1.1050  1.2878
 2826TIP3    H232674   3.951   0.648  11.523  0.5479 -0.1794  0.4358
 2827TIP3   OH232675   2.003   1.331   8.751  0.2736 -0.4116  0.2484
 2827TIP3    H132676   2.041   1.418   8.737  0.7159 -0.4202  1.3047
 2827TIP3    H232677   1.934   1.325   8.686 -0.2799  1.0438  0.6457
 2828TIP3   OH232678   2.266   4.162  12.453 -0.2992 -0.1581 -0.2027
 2828TIP3    H132679   2.288   4.083  12.405 -1.7818 -1.5710  1.3001
 2828TIP3    H232680   2.180   4.188  12.419  0.0342  0.6269 -0.4598
 2829TIP3   OH232681   2.829   3.686  11.004 -0.0576 -0.4781 -0.3426
 2829TIP3    H132682   2.821   3.700  11.098  1.4607 -1.5674 -0.0125
 2829TIP3    H232683   2.909   3.733  10.979 -0.1194 -0.6930 -0.9676
 2830TIP3   OH232684   2.464   6.241  10.298 -0.5700 -0.3097 -0.2086
 2830TIP3    H132685   2.521   6.222  10.224  1.4779  0.6464  1.0333
 2830TIP3    H232686   2.377   6.246  10.261  0.5494  1.7610 -2.8731
 2831TIP3   OH232687   6.348   4.671  10.995 -0.7556  0.3852  0.3314
 2831TIP3    H132688   6.407   4.599  10.971 -0.8418  0.1985  0.6641
 2831TIP3    H232689   6.405   4.738  11.032 -0.3950  1.3849 -1.8578
 2832TIP3   OH232690   5.417   0.207  11.786 -0.0273  0.2482 -0.0500
 2832TIP3    H132691   5.333   0.185  11.828  0.7065 -0.9539  0.8652
 2832TIP3    H232692   5.434   0.297  11.813 -1.4744  0.8796 -1.0654
 2833TIP3   OH232693   4.946   5.871  12.143 -0.2777  0.4209 -0.2305
 2833TIP3    H132694   4.940   5.775  12.143  0.2609  0.3828 -0.7579
 2833TIP3    H232695   4.856   5.901  12.131 -0.2262 -0.0492 -2.0130
 2834TIP3   OH232696   6.261   2.424   8.634 -0.0850 -0.0016  0.5597
 2834TIP3    H132697   6.233   2.499   8.686 -0.1488  1.0285 -0.8772
 2834TIP3    H232698   6.314   2.463   8.564  1.9350 -1.5505  1.1491
 2835TIP3   OH232699   0.266   5.663  10.114  0.4488  0.0251  0.2781
 2835TIP3    H132700   0.285   5.607  10.189  1.1351 -0.4716 -0.2504
 2835TIP3    H232701   0.195   5.618  10.068  0.4211  0.0326  0.3131
 2836TIP3   OH232702   0.422   1.422  11.600  0.3880 -0.2249 -0.2999
 2836TIP3    H132703   0.407   1.331  11.626  1.7695 -0.6040 -0.7115
 2836TIP3    H232704   0.400   1.424  11.507 -0.2302  0.0240 -0.1530
 2837TIP3   OH232705   6.452   2.881  11.074  0.3363 -0.3315 -0.5191
 2837TIP3    H132706   6.498   2.943  11.017  0.5010  0.9451  0.9146
 2837TIP3    H232707   6.383   2.934  11.114 -0.9542 -1.6575 -0.9146
 2838TIP3   OH232708   2.875   0.631  10.408  0.0208  0.1626  0.2071
 2838TIP3    H132709   2.941   0.689  10.371 -1.6906  0.8896 -1.9256
 2838TIP3    H232710   2.925   0.561  10.451  2.1330  1.2077 -0.4230
 2839TIP3   OH232711   3.749   2.767   9.699  0.4135  0.2243  0.4088
 2839TIP3    H132712   3.688   2.694   9.714 -0.9243  1.6633  2.3686
 2839TIP3    H232713   3.742   2.785   9.606 -0.8362 -0.7909  0.2791
 2840TIP3   OH232714   5.957   3.333  10.461  0.1725 -0.0198  0.1758
 2840TIP3    H132715   5.962   3.238  10.455  1.4235  0.0077  0.5973
 2840TIP3    H232716   6.030   3.364  10.407  1.0359  0.6301  1.6655
 2841TIP3   OH232717   3.833   2.271  12.383 -0.4055  0.2072  0.5378
 2841TIP3    H132718   3.749   2.288  12.341  0.2314  1.6553 -0.2046
 2841TIP3    H232719   3.885   2.349  12.367  2.0114 -1.5969 -1.2445
 2842TIP3   OH232720   4.299   1.511  10.279  0.0713  0.1399 -0.1420
 2842TIP3    H132721   4.347   1.524  10.197  1.9815 -0.5438  0.8157
 2842TIP3    H232722   4.217   1.468  10.252  0.9045 -0.5826 -1.6522
 2843TIP3   OH232723   2.690   2.847   9.881 -0.3814  0.5116 -0.2550
 2843TIP3    H132724   2.656   2.809   9.962  1.1681 -0.5451 -0.0618
 2843TIP3    H232725   2.774   2.884   9.906  0.0407  0.3106 -1.3554
 2844TIP3   OH232726   0.928   4.842  11.131 -0.0957  0.0718 -0.4078
 2844TIP3    H132727   0.919   4.875  11.221  1.0247 -2.8513  0.9108
 2844TIP3    H232728   0.842   4.806  11.109 -0.3199  0.6295 -0.4732
 2845TIP3   OH232729   2.646   0.820   9.086 -0.2658  0.5843 -0.1452
 2845TIP3    H132730   2.731   0.798   9.123  0.6861  0.4139 -2.2966
 2845TIP3    H232731   2.583   0.798   9.155  1.4216  1.1533  1.6684
 2846TIP3   OH232732   4.569   6.225  11.775  0.0763 -0.3076  0.8202
 2846TIP3    H132733   4.532   6.250  11.691  1.2500  0.6799  0.5684
 2846TIP3    H232734   4.525   6.282  11.839  1.7529  1.5697  0.4086
 2847TIP3   OH232735   5.205   3.017  10.238  0.1718  0.0458 -0.2182
 2847TIP3    H132736   5.168   3.080  10.177  0.8888  0.4425 -0.2555
 2847TIP3    H232737   5.129   2.972  10.276 -0.3559  1.0262 -0.0941
 2848TIP3   OH232738   2.473   6.256   8.780 -0.3780 -0.0704 -0.2407
 2848TIP3    H132739   2.560   6.218   8.787 -0.0930  0.6175  0.1007
 2848TIP3    H232740   2.450   6.248   8.688  0.0104 -0.3282 -0.3172
 2849TIP3   OH232741   3.228   0.362  10.950  0.9865 -0.5881  0.5300
 2849TIP3    H132742   3.191   0.419  11.017  2.0889 -0.4757  1.0582
 2849TIP3    H232743   3.253   0.282  10.997  1.0106 -0.8359  0.1023
 2850TIP3   OH232744   2.618   1.572  11.409  0.6178  0.0669 -0.5487
 2850TIP3    H132745   2.552   1.514  11.373 -1.0077  1.3668  0.2335
 2850TIP3    H232746   2.584   1.599  11.494  1.9265  1.1557 -0.3224
 2851TIP3   OH232747   1.568   5.894   9.587 -0.0227  0.1298  0.1589
 2851TIP3    H132748   1.539   5.979   9.623  2.1438  0.5245  1.1684
 2851TIP3    H232749   1.569   5.907   9.493 -0.1318  1.1019  0.2785
 2852TIP3   OH232750   4.614   0.732  11.222  0.3240 -0.5031 -0.1845
 2852TIP3    H132751   4.527   0.758  11.191  0.2080  0.7521  1.0833
 2852TIP3    H232752   4.673   0.790  11.175  0.4573 -1.0977 -0.7620
 2853TIP3   OH232753   4.413   6.512  10.298  0.5173 -0.5083  0.2206
 2853TIP3    H132754   4.461   6.585  10.258  1.0649 -0.7961  0.3460
 2853TIP3    H232755   4.387   6.456  10.225 -2.7015  1.3697 -0.2915
 2854TIP3   OH232756   0.844   3.269   9.855  0.0709  0.6148 -0.2173
 2854TIP3    H132757   0.904   3.251   9.927 -0.6930  0.9643  0.5288
 2854TIP3    H232758   0.881   3.222   9.780 -0.1146 -1.3658  0.8455
 2855TIP3   OH232759   1.130   6.585  11.964 -0.2970  0.2117 -0.7641
 2855TIP3    H132760   1.093   6.652  12.021 -0.9409 -0.0929 -0.8240
 2855TIP3    H232761   1.180   6.528  12.023 -2.6634 -1.3292 -0.1324
 2856TIP3   OH232762   0.886   4.804  11.862  0.3215 -0.4020 -0.4030
 2856TIP3    H132763   0.935   4.871  11.814 -0.0122  0.2136  0.0969
 2856TIP3    H232764   0.921   4.807  11.951  0.6938 -1.2947 -0.5059
 2857TIP3   OH232765   0.495   4.992  11.119 -0.4670  0.1102  0.1861
 2857TIP3    H132766   0.504   5.065  11.181 -0.2495  0.1755  0.0791
 2857TIP3    H232767   0.413   4.950  11.144 -0.9146  0.7712 -0.1533
 2858TIP3   OH232768   1.343   3.411  11.939 -0.0279  0.5569  0.2870
 2858TIP3    H132769   1.319   3.319  11.931  1.1734  0.2442  0.1020
 2858TIP3    H232770   1.421   3.421  11.884  0.0866  1.5953  0.6108
 2859TIP3   OH232771   2.711   5.933   9.763  0.2632  0.4787 -0.4420
 2859TIP3    H132772   2.717   5.917   9.669  2.0124 -0.8094 -0.1816
 2859TIP3    H232773   2.617   5.937   9.782 -0.1069  1.0471 -2.2635
 2860TIP3   OH232774   3.020   3.304  11.092 -0.1662 -0.7944 -0.0433
 2860TIP3    H132775   3.106   3.264  11.097 -0.2254 -0.9588 -0.3435
 2860TIP3    H232776   3.020   3.351  11.009 -0.7111 -1.5925 -0.5045
 2861TIP3   OH232777   6.067   0.865  10.964  0.4426 -0.0769  0.3719
 2861TIP3    H132778   6.072   0.953  10.927  0.7167 -0.4633 -0.5373
 2861TIP3    H232779   6.033   0.811  10.893 -0.0642 -0.6442  1.0358
 2862TIP3   OH232780   3.740   3.698  11.391  0.2452  0.0786  0.1190
 2862TIP3    H132781   3.821   3.671  11.346  1.2183 -0.3070  1.9974
 2862TIP3    H232782   3.770   3.738  11.472 -1.4605 -1.1214  1.4132
 2863TIP3   OH232783   2.187   1.187  11.857  0.3367  0.1973 -0.6097
 2863TIP3    H132784   2.143   1.164  11.775  0.0262 -0.7433 -0.1980
 2863TIP3    H232785   2.236   1.266  11.837  0.6067 -0.2609 -1.8231
 2864TIP3   OH232786   0.264   0.620  11.147  0.0568  0.0058 -0.5265
 2864TIP3    H132787   0.205   0.663  11.209  1.2095  1.4713 -0.3855
 2864TIP3    H232788   0.275   0.531  11.182  0.1873  0.5996  1.0382
 2865TIP3   OH232789   0.443   2.679  11.718 -0.4507  0.2883  0.3674
 2865TIP3    H132790   0.490   2.664  11.635 -1.0788 -0.5199  0.1488
 2865TIP3    H232791   0.399   2.763  11.705  0.7379  0.9662  0.5009
 2866TIP3   OH232792   3.694   3.643   9.372 -0.0776 -0.0029  0.2011
 2866TIP3    H132793   3.676   3.550   9.364  1.4034 -0.4021  1.2152
 2866TIP3    H232794   3.643   3.671   9.448  0.2117 -0.1867  0.4623
 2867TIP3   OH232795   4.174   5.873   9.642  0.3269  0.6837 -0.0334
 2867TIP3    H132796   4.109   5.941   9.622  0.2199  1.5266  2.7554
 2867TIP3    H232797   4.255   5.905   9.603 -0.6717  0.0021 -2.8878
 2868TIP3   OH232798   6.189   3.189  11.862  0.5474 -0.2383 -0.3080
 2868TIP3    H132799   6.222   3.147  11.782 -0.0717 -0.8160 -0.2682
 2868TIP3    H232800   6.185   3.118  11.926  1.3581  0.2872  0.3451
 2869TIP3   OH232801   4.624   4.174  12.130  0.3470 -0.8050  0.1997
 2869TIP3    H132802   4.669   4.210  12.206 -0.8051 -0.4652  0.7533
 2869TIP3    H232803   4.632   4.079  12.141 -0.5263 -0.7914  1.2413
 2870TIP3   OH232804   1.837   1.746   9.713 -0.0741 -0.2449 -0.0789
 2870TIP3    H132805   1.747   1.777   9.726 -0.7060 -1.3319 -1.5545
 2870TIP3    H232806   1.888   1.791   9.780 -1.8540 -0.2362  1.3456
 2871TIP3   OH232807   3.966   0.569  10.624  0.5004 -0.1622 -0.2768
 2871TIP3    H132808   3.919   0.505  10.571  0.9214  0.2012 -1.1217
 2871TIP3    H232809   3.953   0.540  10.714  0.5214 -1.3272 -0.6238
 2872TIP3   OH232810   0.542   0.800   9.949 -0.2940 -0.7398 -0.1667
 2872TIP3    H132811   0.589   0.880   9.973 -1.4517 -0.6132  1.9327
 2872TIP3    H232812   0.497   0.822   9.868  0.4065  0.3112 -0.2955
 2873TIP3   OH232813   5.009   0.401  10.148 -0.2528 -0.0759 -0.3748
 2873TIP3    H132814   5.035   0.313  10.121 -0.6196 -0.3483  0.1382
 2873TIP3    H232815   5.014   0.454  10.068 -0.9929 -0.7851 -0.9038
 2874TIP3   OH232816   2.435   4.361  11.203  0.6582  0.4378 -0.2414
 2874TIP3    H132817   2.397   4.273  11.206 -0.2475  0.7020 -2.2794
 2874TIP3    H232818   2.501   4.356  11.133 -0.9931  1.8956 -2.0195
 2875TIP3   OH232819   3.333   5.533  11.695  0.1769 -0.4720 -0.0965
 2875TIP3    H132820   3.398   5.569  11.755 -0.8943  0.3889  0.5982
 2875TIP3    H232821   3.351   5.575  11.611 -0.6485  1.2693  0.5445
 2876TIP3   OH232822   0.666   3.715  11.920 -0.1161  0.1138  0.1970
 2876TIP3    H132823   0.620   3.680  11.996  0.6966  0.4666  0.8653
 2876TIP3    H232824   0.619   3.796  11.899  0.4094  0.6587  1.0947
 2877TIP3   OH232825   0.635   1.258  10.387 -0.6207 -0.5556 -0.3896
 2877TIP3    H132826   0.662   1.187  10.445 -0.8293  2.1483  3.4197
 2877TIP3    H232827   0.705   1.264  10.322  0.8634 -2.3544  0.9284
 2878TIP3   OH232828   4.910   6.426  10.853 -0.3135  0.4251  0.5228
 2878TIP3    H132829   4.962   6.360  10.899 -0.2786  0.4526  0.5229
 2878TIP3    H232830   4.909   6.501  10.912 -1.4443 -0.0232  1.1028
 2879TIP3   OH232831   4.800   1.673  12.148 -1.0648  0.0653  0.2910
 2879TIP3    H132832   4.778   1.695  12.058 -1.4693  0.1751  0.4176
 2879TIP3    H232833   4.735   1.608  12.174  0.7486 -2.1675 -0.4360
 2880TIP3   OH232834   1.213   4.906  11.048  0.1863 -0.3204  0.1817
 2880TIP3    H132835   1.194   4.926  11.140 -0.4693 -0.6773  0.1331
 2880TIP3    H232836   1.307   4.892  11.045  0.7051  2.5822  0.2369
 2881TIP3   OH232837   3.356   1.750  10.910  0.0181  0.1342  0.0128
 2881TIP3    H132838   3.269   1.782  10.884 -0.7311 -1.4046  0.5217
 2881TIP3    H232839   3.368   1.670  10.860  0.5002 -0.4597  1.0500
 2882TIP3   OH232840   2.858   2.537   8.688  0.4973  0.0578 -0.3098
 2882TIP3    H132841   2.826   2.515   8.601 -0.0256 -1.3834  0.2146
 2882TIP3    H232842   2.779   2.562   8.737  0.6898  0.1856 -0.0606
 2883TIP3   OH232843   0.354   1.318  10.108 -0.1703 -0.2745  0.1116
 2883TIP3    H132844   0.308   1.273  10.037 -0.1141  0.8907 -0.6960
 2883TIP3    H232845   0.434   1.268  10.120 -0.3083 -0.6508 -0.4675
 2884TIP3   OH232846   5.246   2.326  10.916  0.2674  0.3850 -1.0635
 2884TIP3    H132847   5.270   2.257  10.978  3.7864  2.6590  0.4517
 2884TIP3    H232848   5.299   2.308  10.838  0.1466  0.6108 -1.1982
 2885TIP3   OH232849   2.633   4.333   9.348 -0.2451 -0.5770 -0.4153
 2885TIP3    H132850   2.591   4.372   9.271  3.2699  1.3703 -1.5926
 2885TIP3    H232851   2.661   4.408   9.401  0.9564 -1.7439  0.6991
 2886TIP3   OH232852   5.615   0.989  11.488 -0.3782  0.6439 -0.5500
 2886TIP3    H132853   5.652   0.901  11.477 -1.0128  0.6743 -4.2642
 2886TIP3    H232854   5.522   0.974  11.502 -0.3161  0.7258 -0.0329
 2887TIP3   OH232855   2.886   0.240  11.181 -0.0045  0.2080  0.0077
 2887TIP3    H132856   2.812   0.193  11.221 -0.3587  0.2469 -0.5876
 2887TIP3    H232857   2.845   0.299  11.118  0.5196  0.4531 -0.1091
 2888TIP3   OH232858   0.162   5.899  11.163 -0.0571  0.4545 -0.4136
 2888TIP3    H132859   0.223   5.845  11.112  0.8689 -0.7257  1.8102
 2888TIP3    H232860   0.076   5.861  11.145  0.3559 -0.5139 -0.4020
 2889TIP3   OH232861   3.758   1.083  11.379 -0.0303 -0.0750 -0.2277
 2889TIP3    H132862   3.807   1.077  11.297 -0.3022  0.7451 -0.4674
 2889TIP3    H232863   3.776   1.172  11.411 -1.2622  0.2149 -0.2758
 2890TIP3   OH232864   3.946   2.368  10.673 -0.2483  0.0297 -0.9568
 2890TIP3    H132865   3.948   2.358  10.578  0.5967 -2.1546 -0.7639
 2890TIP3    H232866   4.035   2.396  10.696 -0.2582 -0.1108 -0.7446
 2891TIP3   OH232867   5.532   6.323  12.600  0.2104 -0.3679  0.0333
 2891TIP3    H132868   5.449   6.334  12.646  0.4763 -0.2516  0.4879
 2891TIP3    H232869   5.527   6.386  12.527 -0.2387 -0.6039 -0.1491
 2892TIP3   OH232870   2.736   5.718  11.819  0.0881  0.2767 -0.0272
 2892TIP3    H132871   2.760   5.776  11.747  1.5281 -0.5175 -0.2214
 2892TIP3    H232872   2.809   5.722  11.880 -0.8413  0.4731  1.1232
 2893TIP3   OH232873   1.854   1.732   9.411 -0.0060  0.4420  0.2727
 2893TIP3    H132874   1.924   1.766   9.355 -0.5925  1.0825 -0.0924
 2893TIP3    H232875   1.890   1.738   9.500  0.6163  0.2096  0.0445
 2894TIP3   OH232876   2.165   1.643  10.255  0.1739  0.3378 -0.5692
 2894TIP3    H132877   2.228   1.676  10.190  0.7407  2.7888  1.0878
 2894TIP3    H232878   2.147   1.718  10.311 -2.0052 -1.0995  0.7976
 2895TIP3   OH232879   2.968   5.539  11.496 -0.0291 -0.4286  0.0768
 2895TIP3    H132880   2.971   5.601  11.423  0.8362  0.0972  0.5432
 2895TIP3    H232881   2.911   5.468  11.465 -1.1251  0.6391 -0.4189
 2896TIP3   OH232882   6.045   2.454   9.610  0.0364 -0.1201 -0.1350
 2896TIP3    H132883   6.005   2.413   9.534  0.2986  0.2569 -0.4749
 2896TIP3    H232884   5.971   2.473   9.669 -0.0307 -1.5708  0.2725
 2897TIP3   OH232885   2.499   3.885  11.245  0.2793  0.1512  0.1632
 2897TIP3    H132886   2.561   3.821  11.280  1.5621  1.0623 -0.3528
 2897TIP3    H232887   2.468   3.847  11.163 -1.1163 -1.0286  1.1778
 2898TIP3   OH232888   4.903   4.722  12.001  0.3782  0.1526  0.2431
 2898TIP3    H132889   4.882   4.629  12.010 -0.3055  0.3181  0.3920
 2898TIP3    H232890   4.821   4.762  11.974  0.9153  0.5733 -0.8089
 2899TIP3   OH232891   5.334   2.159  12.407  0.3902  0.1107  0.0160
 2899TIP3    H132892   5.327   2.131  12.498  0.8369  0.0004  0.0183
 2899TIP3    H232893   5.263   2.113  12.362 -0.1894  0.5979  0.4082
 2900TIP3   OH232894   3.186   4.259  10.923 -0.5643 -0.5218  0.2910
 2900TIP3    H132895   3.258   4.297  10.872 -1.3577  1.0627  0.2594
 2900TIP3    H232896   3.194   4.165  10.911  1.0442 -0.3277 -0.3263
 2901TIP3   OH232897   2.362   0.447  10.210 -0.3542 -0.1614  0.5534
 2901TIP3    H132898   2.296   0.501  10.166  0.6995 -0.0917 -0.9972
 2901TIP3    H232899   2.363   0.480  10.300 -0.8920  1.3071  0.0503
 2902TIP3   OH232900   1.828   6.113  10.334 -0.1517 -0.0475  0.2693
 2902TIP3    H132901   1.905   6.126  10.278 -1.2011 -1.0559 -1.5316
 2902TIP3    H232902   1.862   6.069  10.412  1.4952  2.1497  0.8771
 2903TIP3   OH232903   6.139   5.782  12.111  0.2590  0.8067 -0.4452
 2903TIP3    H132904   6.190   5.835  12.172  2.4462  1.2113 -2.4812
 2903TIP3    H232905   6.163   5.814  12.024 -0.9514 -1.2652 -1.6417
 2904TIP3   OH232906   1.155   1.378   9.128  0.0706 -0.5770  0.0505
 2904TIP3    H132907   1.064   1.394   9.102  0.5254  0.8255 -0.7523
 2904TIP3    H232908   1.204   1.453   9.094  1.4891 -1.1445  0.7486
 2905TIP3   OH232909   4.317   1.263  12.605 -0.1797  0.1845  0.1215
 2905TIP3    H132910   4.399   1.245  12.651  0.4957 -2.9149 -1.9833
 2905TIP3    H232911   4.343   1.300  12.521 -1.0690  0.8925  0.1400
 2906TIP3   OH232912   0.993   3.253  12.354  0.0350 -0.7810 -0.0747
 2906TIP3    H132913   1.064   3.260  12.418 -1.5083  1.5171  1.5174
 2906TIP3    H232914   1.036   3.269  12.269  1.6863 -1.3081  0.6214
 2907TIP3   OH232915   1.668   4.622  10.717 -0.2114 -0.2077 -0.0967
 2907TIP3    H132916   1.593   4.653  10.767 -0.0565  0.5356 -0.3138
 2907TIP3    H232917   1.654   4.658  10.629 -0.6780 -1.7998 -0.7101
 2908TIP3   OH232918   0.628   5.054  10.141  0.2687  0.1307 -0.0887
 2908TIP3    H132919   0.643   5.148  10.151 -1.6696  0.2647  2.8122
 2908TIP3    H232920   0.687   5.013  10.204  0.6447 -0.5728 -0.8807
 2909TIP3   OH232921   3.486   5.699   9.824  0.3011  0.3136  0.1841
 2909TIP3    H132922   3.512   5.645   9.898  0.5470  1.3533  0.8755
 2909TIP3    H232923   3.501   5.789   9.853 -1.0715  0.8118 -0.5540
 2910TIP3   OH232924   2.025   0.062  10.855 -0.1327  0.3705 -0.4698
 2910TIP3    H132925   2.055   0.025  10.938 -0.0742 -0.7101 -0.9639
 2910TIP3    H232926   1.931   0.076  10.868 -0.1096  0.2827 -0.2001
 2911TIP3   OH232927   5.993   4.894  11.958  0.2341  0.0511 -0.5245
 2911TIP3    H132928   6.053   4.953  12.004  1.1145 -0.7693 -0.5914
 2911TIP3    H232929   5.907   4.914  11.996  0.9501 -0.7322  1.6621
 2912TIP3   OH232930   5.214   3.662   8.985 -0.5863  0.6932 -0.5698
 2912TIP3    H132931   5.198   3.577   9.025 -1.8686  1.7541  1.3092
 2912TIP3    H232932   5.138   3.678   8.929  0.3664 -0.0027 -2.1375
 2913TIP3   OH232933   3.424   1.166  11.746  0.3092 -0.0498  0.1683
 2913TIP3    H132934   3.450   1.213  11.667  0.5917 -2.4983 -1.2920
 2913TIP3    H232935   3.408   1.235  11.810 -2.2877  2.2334 -2.6351
 2914TIP3   OH232936   6.605   2.681   8.963  0.3489 -0.2248  0.0582
 2914TIP3    H132937   6.524   2.678   9.013  1.0349  0.2287  1.2436
 2914TIP3    H232938   6.604   2.601   8.910 -0.8159 -0.2612  0.1149
 2915TIP3   OH232939   2.602   5.472  11.802 -0.3177 -0.5361  0.7378
 2915TIP3    H132940   2.651   5.554  11.791  0.2590 -0.6361  2.3122
 2915TIP3    H232941   2.535   5.475  11.733 -0.4153  1.3406  0.8549
 2916TIP3   OH232942   4.110   0.633   9.095 -0.1950  0.0242 -0.5934
 2916TIP3    H132943   4.031   0.641   9.043  0.7337  0.2832 -2.0235
 2916TIP3    H232944   4.178   0.675   9.043  1.0180 -0.7320  0.3059
 2917TIP3   OH232945   1.892   6.374  10.885 -0.0889 -0.5166 -0.1562
 2917TIP3    H132946   1.834   6.298  10.892  0.2393 -0.7259  0.3728
 2917TIP3    H232947   1.833   6.450  10.885 -0.3261 -0.6413  1.9571
 2918TIP3   OH232948   1.587   6.053   9.063  0.3507 -0.3503  0.0513
 2918TIP3    H132949   1.551   6.138   9.038  0.3125 -0.1188  0.8654
 2918TIP3    H232950   1.517   6.011   9.113  0.6843 -0.4858  0.4146
 2919TIP3   OH232951   2.712   3.520  10.794  0.4469  0.2082  0.5412
 2919TIP3    H132952   2.744   3.559  10.876 -1.0751  0.7458  0.9071
 2919TIP3    H232953   2.722   3.589  10.729 -0.3736  0.5484  0.7602
 2920TIP3   OH232954   2.680   6.359  11.665  0.8822  0.0237 -0.0596
 2920TIP3    H132955   2.685   6.445  11.625 -0.9832 -0.0415 -0.5352
 2920TIP3    H232956   2.685   6.375  11.759  0.1627  0.6905 -0.1336
 2921TIP3   OH232957   6.024   4.220  11.958 -0.1123 -0.0425 -0.0536
 2921TIP3    H132958   5.967   4.220  12.035  1.2525 -0.0611  0.9768
 2921TIP3    H232959   6.101   4.270  11.984  0.1941  0.3317 -1.5629
 2922TIP3   OH232960   3.033   2.217  11.814  0.1932  0.2826  0.1172
 2922TIP3    H132961   2.951   2.239  11.770  0.7067 -1.2049 -1.7552
 2922TIP3    H232962   3.020   2.127  11.845  0.6986  0.4726  0.9155
 2923TIP3   OH232963   3.169   3.401   9.951  0.5001  0.3414  0.0463
 2923TIP3    H132964   3.199   3.478   9.903  1.5477 -1.1636 -1.8423
 2923TIP3    H232965   3.170   3.330   9.887 -3.9994 -0.6113  0.6657
 2924TIP3   OH232966   4.956   2.198   8.797  0.4452  0.2868 -0.1851
 2924TIP3    H132967   4.865   2.176   8.778  0.1530  0.0401  1.3772
 2924TIP3    H232968   5.007   2.129   8.753  0.0511  1.4768 -2.7089
 2925TIP3   OH232969   0.039   0.635  12.348 -0.0598 -0.3531  0.2364
 2925TIP3    H132970  -0.011   0.648  12.429 -0.0688 -0.7158  0.2899
 2925TIP3    H232971   0.118   0.687  12.360  0.3288 -1.0711  0.8260
 2926TIP3   OH232972   1.299   1.638   9.313  0.2162 -0.3318  0.3315
 2926TIP3    H132973   1.390   1.653   9.340  0.6239 -2.7262  0.4602
 2926TIP3    H232974   1.272   1.561   9.363 -2.1682  0.7778  0.8719
 2927TIP3   OH232975   0.907   1.949  11.464  0.5071 -0.3972  0.0629
 2927TIP3    H132976   0.877   2.035  11.435 -1.5245 -0.9609  0.3588
 2927TIP3    H232977   0.890   1.891  11.390  1.2097 -0.6813  0.1195
 2928TIP3   OH232978   3.934   0.207   9.724 -0.4149  0.0454  0.2023
 2928TIP3    H132979   3.844   0.174   9.718 -0.2552 -0.4463  0.3977
 2928TIP3    H232980   3.932   0.269   9.796  0.1104 -2.5199  2.6176
 2929TIP3   OH232981   2.490   3.988  11.582 -0.1576 -0.0119 -0.3531
 2929TIP3    H132982   2.436   3.921  11.623  0.4319 -0.1997  0.1327
 2929TIP3    H232983   2.559   3.939  11.536  1.3420  0.2669  1.4958
 2930TIP3   OH232984   3.870   4.935  11.999  0.2487 -0.0914  0.4819
 2930TIP3    H132985   3.906   4.976  11.920  1.6702 -0.0332  1.1302
 2930TIP3    H232986   3.777   4.923  11.979  0.5957 -0.2281 -1.2610
 2931TIP3   OH232987   2.090   0.714  10.454  0.6396  0.0386  0.4260
 2931TIP3    H132988   2.013   0.662  10.477  0.8745 -1.6771 -2.2422
 2931TIP3    H232989   2.058   0.773  10.386  1.3705  0.3420  0.3414
 2932TIP3   OH232990   5.825   1.024   9.410  0.3960  0.2766  0.1162
 2932TIP3    H132991   5.877   1.098   9.379 -0.5753  0.2720 -1.6245
 2932TIP3    H232992   5.742   1.062   9.438  0.6347  0.0639  1.1638
 2933TIP3   OH232993   0.456   0.922  11.858 -0.2971  0.2970  0.1633
 2933TIP3    H132994   0.401   0.857  11.814  0.9353 -0.9624  0.4064
 2933TIP3    H232995   0.413   0.937  11.942 -1.5910  1.2255 -0.6332
 2934TIP3   OH232996   4.362   5.279  10.345 -0.1641 -0.0821  0.3238
 2934TIP3    H132997   4.359   5.220  10.269  1.2670  2.2027 -1.6254
 2934TIP3    H232998   4.431   5.242  10.401 -1.3444 -1.8800  0.6797
 2935TIP3   OH232999   2.945   1.454  10.371  0.4569  0.1276 -0.0721
 2935TIP3    H133000   2.863   1.500  10.354 -0.1216  0.9371  4.0235
 2935TIP3    H233001   3.013   1.520  10.355  0.2732 -0.0623 -1.8681
 2936TIP3   OH233002   5.159   5.761  11.749 -0.0276 -0.2498 -0.3942
 2936TIP3    H133003   5.193   5.850  11.761  0.5083 -0.3602 -1.0687
 2936TIP3    H233004   5.064   5.772  11.751  0.0270  0.1533  0.8441
 2937TIP3   OH233005   0.708   5.535   9.659  0.2027  0.0653 -0.0563
 2937TIP3    H133006   0.784   5.591   9.646  0.1777  0.3815  1.0803
 2937TIP3    H233007   0.656   5.545   9.579  1.1483  0.1617 -0.6623
 2938TIP3   OH233008   4.576   1.742  11.412  0.2116  0.5719 -0.3972
 2938TIP3    H133009   4.494   1.785  11.436  0.7125  1.4566 -0.2401
 2938TIP3    H233010   4.639   1.770  11.479  0.7059  0.1090 -0.6609
 2939TIP3   OH233011   4.225   0.340  12.325  0.1479  0.8317  0.3849
 2939TIP3    H133012   4.285   0.415  12.324 -0.7717  1.5802 -0.2836
 2939TIP3    H233013   4.138   0.379  12.318 -0.2889 -0.3577 -1.5147
 2940TIP3   OH233014   2.605   6.500   9.934 -0.2606  0.2366  0.6776
 2940TIP3    H133015   2.620   6.473   9.843 -2.5342 -0.8646  0.5661
 2940TIP3    H233016   2.585   6.594   9.927 -0.3620  0.1746  0.0459
 2941TIP3   OH233017   3.008   5.461  11.202 -0.2015 -0.1059  0.4429
 2941TIP3    H133018   3.029   5.511  11.123  1.3092  0.1121  0.9539
 2941TIP3    H233019   2.951   5.519  11.253  0.2821  0.4751  0.3243
 2942TIP3   OH233020   3.914   5.650  10.808 -0.1180  0.0676  0.0414
 2942TIP3    H133021   3.975   5.687  10.871 -0.3053 -0.6479  0.6480
 2942TIP3    H233022   3.873   5.577  10.853 -0.1247 -0.5716 -0.9618
 2943TIP3   OH233023   3.454   4.071   9.393  0.1417  0.0147  0.1175
 2943TIP3    H133024   3.389   4.070   9.323  0.5154  0.7029 -0.2479
 2943TIP3    H233025   3.465   3.979   9.417  0.9105 -0.3603 -1.5761
 2944TIP3   OH233026   4.870   5.845  12.589 -0.5500  0.6727 -0.4869
 2944TIP3    H133027   4.934   5.879  12.651 -0.5146  0.3614 -0.3508
 2944TIP3    H233028   4.900   5.876  12.504  0.5936 -0.6533 -0.5988
 2945TIP3   OH233029   3.419   3.289   9.647 -0.6084 -0.1791  0.1295
 2945TIP3    H133030   3.434   3.217   9.709 -1.4550  0.7396  1.4441
 2945TIP3    H233031   3.367   3.249   9.578 -1.3027 -0.7904  0.9756
 2946TIP3   OH233032   1.822   4.166  12.202  0.2840  0.0540  0.1054
 2946TIP3    H133033   1.769   4.160  12.122  1.4494 -0.9674 -0.6234
 2946TIP3    H233034   1.767   4.128  12.270 -0.8129  1.1381 -0.1295
 2947TIP3   OH233035   5.727   3.611  12.091 -0.1393 -0.3557  0.2529
 2947TIP3    H133036   5.792   3.666  12.135  0.3406  0.0425 -0.9086
 2947TIP3    H233037   5.646   3.626  12.140  0.4887 -0.3740  1.3353
 2948TIP3   OH233038   3.810   1.095  10.867  0.0506  0.5040 -0.0803
 2948TIP3    H133039   3.892   1.048  10.849 -0.1946  0.7157 -1.8293
 2948TIP3    H233040   3.741   1.032  10.847 -0.2494  1.0211 -0.6914
 2949TIP3   OH233041   5.457   4.078  11.204 -0.1145 -0.3899 -0.1710
 2949TIP3    H133042   5.526   4.051  11.143 -0.2132 -0.0417 -0.4475
 2949TIP3    H233043   5.476   4.032  11.285  0.1604 -0.6768 -0.3970
 2950TIP3   OH233044   2.659   5.283  10.454 -1.0911  0.2427  0.2262
 2950TIP3    H133045   2.699   5.207  10.494  0.1046  0.6718 -0.1164
 2950TIP3    H233046   2.718   5.356  10.475 -1.8405  0.9481 -0.0358
 2951TIP3   OH233047   1.198   3.747   9.561  0.3522 -0.0929 -0.7006
 2951TIP3    H133048   1.143   3.825   9.566  0.6752  0.2537 -2.0671
 2951TIP3    H233049   1.162   3.697   9.488  2.0986  0.3732 -1.9438
 2952TIP3   OH233050   5.345   4.168  11.708  0.1436  0.2473  0.7912
 2952TIP3    H133051   5.281   4.099  11.689  0.4997 -0.3276  1.6026
 2952TIP3    H233052   5.408   4.162  11.636 -1.2239  1.5061 -0.5891
 2953TIP3   OH233053   2.991   5.151  11.629  0.1118 -0.1162 -0.1934
 2953TIP3    H133054   2.902   5.181  11.611 -0.8967 -2.7172  0.1051
 2953TIP3    H233055   3.036   5.229  11.663 -2.0157  1.2638 -0.3692
 2954TIP3   OH233056   1.538   2.583  11.124 -0.4928  0.4492  0.1286
 2954TIP3    H133057   1.605   2.520  11.146 -0.7814  0.0370 -0.1532
 2954TIP3    H233058   1.475   2.579  11.196 -0.9962 -0.2774 -0.3373
 2955TIP3   OH233059   3.668   1.956   8.524  0.4484 -0.4664  0.4386
 2955TIP3    H133060   3.705   1.960   8.436  1.3391 -2.2293  0.7015
 2955TIP3    H233061   3.576   1.934   8.509  0.2358  0.6784 -0.0812
 2956TIP3   OH233062   3.970   2.559  11.439 -0.0303 -0.7534  0.1132
 2956TIP3    H133063   4.003   2.573  11.351 -1.3502  1.3406 -0.1010
 2956TIP3    H233064   4.028   2.610  11.496  1.7661 -3.2969  0.7416
 2957TIP3   OH233065   2.888   4.351  11.193  0.5177 -0.4477  0.6872
 2957TIP3    H133066   2.976   4.315  11.208  0.1080 -0.5283  3.5099
 2957TIP3    H233067   2.830   4.275  11.197  0.1628 -0.1719  0.8843
 2958TIP3   OH233068   3.973   0.950   9.891 -0.1543  0.1682 -0.3409
 2958TIP3    H133069   4.029   0.878   9.862  1.1462  2.2064 -3.3861
 2958TIP3    H233070   3.886   0.928   9.860  0.2004 -0.2193 -1.0839
 2959TIP3   OH233071   1.998   0.143   9.149 -0.0930 -0.1974 -0.4277
 2959TIP3    H133072   2.079   0.116   9.106 -0.8583 -2.0390 -0.8293
 2959TIP3    H233073   1.928   0.110   9.092 -1.1403  1.0165  0.0885
 2960TIP3   OH233074   0.167   1.018  11.687 -0.3862 -0.0131  0.1697
 2960TIP3    H133075   0.200   0.929  11.702  1.0990  0.5325  0.3285
 2960TIP3    H233076   0.096   1.028  11.750  1.9381  0.2203  2.9774
 2961TIP3   OH233077   3.260   4.028   9.215 -0.1928 -0.2844  0.0778
 2961TIP3    H133078   3.267   3.988   9.128 -1.1105 -0.4576  0.0805
 2961TIP3    H233079   3.181   4.082   9.210  1.8908  3.0326 -0.5257
 2962TIP3   OH233080   0.887   0.402  11.418  0.5161 -0.4810  0.0534
 2962TIP3    H133081   0.812   0.374  11.470  0.5004 -0.5231  0.0077
 2962TIP3    H233082   0.860   0.486  11.380  0.4493 -0.5511 -0.0543
 2963TIP3   OH233083   5.284   0.376  12.312 -0.4850 -0.0232  0.4883
 2963TIP3    H133084   5.313   0.326  12.236 -0.2396 -0.7984  1.0809
 2963TIP3    H233085   5.195   0.346  12.328 -0.8381  0.7435  0.0151
 2964TIP3   OH233086   5.612   5.402  10.383 -0.3680 -0.2843 -0.0031
 2964TIP3    H133087   5.559   5.343  10.329 -0.4144  0.0357 -0.3139
 2964TIP3    H233088   5.550   5.468  10.414 -0.3600 -0.5171  0.5234
 2965TIP3   OH233089   1.130   3.876  12.557 -0.4272 -0.0449 -0.1512
 2965TIP3    H133090   1.102   3.967  12.566  1.0821  0.5600 -1.3210
 2965TIP3    H233091   1.075   3.841  12.487  1.0169  0.8640 -1.7863
 2966TIP3   OH233092   5.679   2.731  10.817  0.4321 -0.9721  0.3056
 2966TIP3    H133093   5.691   2.672  10.891  0.0931  0.4440  1.5538
 2966TIP3    H233094   5.588   2.758  10.823  0.9457  0.8086  0.6907
 2967TIP3   OH233095   2.411   2.979  10.333 -0.0508 -0.2277  0.0471
 2967TIP3    H133096   2.365   3.041  10.390  1.5563  2.0274 -0.9520
 2967TIP3    H233097   2.496   2.966  10.375  0.9824  1.1144 -1.4874
 2968TIP3   OH233098   5.495   4.871  11.057 -0.2416  0.3530 -0.0111
 2968TIP3    H133099   5.528   4.781  11.055  1.4798  0.9391  0.4362
 2968TIP3    H233100   5.573   4.925  11.048 -0.9925  1.8390  1.8592
 2969TIP3   OH233101   3.098   1.826  10.912  0.5432 -0.2332  0.1472
 2969TIP3    H133102   3.105   1.921  10.906  0.8327 -0.1966  1.0818
 2969TIP3    H233103   3.017   1.806  10.865 -1.5852  0.8564  3.0536
 2970TIP3   OH233104   6.433   0.023   9.273 -0.2118 -0.2852  0.5148
 2970TIP3    H133105   6.457  -0.066   9.247 -0.6322 -0.0983 -0.5661
 2970TIP3    H233106   6.357   0.044   9.220  0.5679  1.1360 -0.1027
 2971TIP3   OH233107   6.328   4.613  10.080  0.1818 -0.2653 -0.3339
 2971TIP3    H133108   6.251   4.591  10.132  0.7899  0.1479  0.7870
 2971TIP3    H233109   6.382   4.666  10.139  1.1177 -0.1794 -1.2409
 2972TIP3   OH233110   1.219   5.901  12.179 -0.8577  0.0768  0.2271
 2972TIP3    H133111   1.150   5.836  12.166 -0.3210 -1.0120  2.3180
 2972TIP3    H233112   1.246   5.889  12.270  0.8932  1.6619 -0.0209
 2973TIP3   OH233113   0.031   2.446   9.250 -0.3058 -0.4668 -0.4058
 2973TIP3    H133114   0.106   2.504   9.240 -1.1207  0.6981 -0.0128
 2973TIP3    H233115  -0.016   2.480   9.327 -0.6522 -1.8352  0.0232
 2974TIP3   OH233116   2.654   3.544  11.926  0.1604 -0.0278 -0.4906
 2974TIP3    H133117   2.679   3.578  12.012 -0.9203  0.7703 -0.4666
 2974TIP3    H233118   2.605   3.464  11.945  1.0520 -0.5824 -0.4497
 2975TIP3   OH233119   5.434   1.246  10.703 -0.2477 -0.3015 -0.0964
 2975TIP3    H133120   5.346   1.227  10.734 -0.6632 -1.2145 -1.6985
 2975TIP3    H233121   5.490   1.181  10.746 -0.4291 -0.0639  0.5055
 2976TIP3   OH233122   2.535   1.974  10.952  0.2399 -0.0350  0.1909
 2976TIP3    H133123   2.589   1.908  10.994 -0.0831  0.3746  1.2804
 2976TIP3    H233124   2.556   2.056  10.998 -1.6979  0.0344  1.0560
 2977TIP3   OH233125   2.691   0.000  11.534  0.0007 -0.0433  1.3448
 2977TIP3    H133126   2.620   0.047  11.578  0.6150 -0.0364  2.3497
 2977TIP3    H233127   2.768   0.057  11.544 -0.0460  0.4729 -0.6650
 2978TIP3   OH233128   1.812   1.856  11.223 -0.4554 -0.4097  0.0518
 2978TIP3    H133129   1.795   1.921  11.154 -0.0582 -0.2221  0.1299
 2978TIP3    H233130   1.901   1.827  11.207 -1.3371 -2.5967 -1.3618
 2979TIP3   OH233131   3.881   5.686   9.729 -0.1534  0.0605 -0.0894
 2979TIP3    H133132   3.844   5.756   9.676  1.1692  0.5887 -0.3706
 2979TIP3    H233133   3.820   5.674   9.801 -0.6323  1.1814 -0.2972
 2980TIP3   OH233134   4.151   1.334   9.607 -0.4734  0.1311  0.3044
 2980TIP3    H133135   4.136   1.394   9.534 -1.2819  0.3268  0.6194
 2980TIP3    H233136   4.073   1.343   9.662  0.0476 -0.1408  1.1043
 2981TIP3   OH233137   1.208   5.761  11.056 -0.1025  0.6539 -0.1237
 2981TIP3    H133138   1.146   5.780  11.126 -0.2097 -0.9147  0.2477
 2981TIP3    H233139   1.203   5.666  11.045  1.6775  0.5827 -0.6109
 2982TIP3   OH233140   1.025   0.961   9.987  0.5501 -0.1381  0.0935
 2982TIP3    H133141   1.073   1.032  10.030 -0.4090  0.2325  0.5986
 2982TIP3    H233142   1.076   0.883  10.006  0.7340  0.1855  0.9833
 2983TIP3   OH233143   1.900   3.971  10.972 -0.4802 -0.3703 -0.0397
 2983TIP3    H133144   1.947   3.893  10.942  0.2870 -0.8050  2.0848
 2983TIP3    H233145   1.957   4.044  10.946 -0.2616 -0.6557 -0.3798
 2984TIP3   OH233146   1.497   4.956  11.346  0.2983  0.6558  0.0919
 2984TIP3    H133147   1.504   4.914  11.260 -3.2962 -2.9612  1.2074
 2984TIP3    H233148   1.403   4.971  11.358  0.7289  1.7175  3.0791
 2985TIP3   OH233149   5.265   4.399  11.440  0.0539 -0.4602 -0.9116
 2985TIP3    H133150   5.273   4.491  11.463  1.0333 -0.8207  0.3494
 2985TIP3    H233151   5.330   4.386  11.370  0.8175 -0.4403 -0.2235
 2986TIP3   OH233152   3.681   1.479  10.858  0.1030  0.0688 -0.5946
 2986TIP3    H133153   3.745   1.429  10.908  0.1139  0.4324 -0.2437
 2986TIP3    H233154   3.731   1.549  10.817 -0.2975  1.4263  1.0873
 2987TIP3   OH233155   3.136   0.284  11.315 -0.2026 -0.4348 -0.0667
 2987TIP3    H133156   3.149   0.361  11.260  0.6839 -1.5261 -1.4709
 2987TIP3    H233157   3.044   0.260  11.301 -0.3430  0.0645 -0.0212
 2988TIP3   OH233158   3.616   2.465   9.934 -0.1971 -0.6041 -0.5909
 2988TIP3    H133159   3.711   2.475   9.926 -0.4129  0.4161 -2.4521
 2988TIP3    H233160   3.596   2.386   9.884 -0.0962 -2.3934  2.0289
 2989TIP3   OH233161   0.022   5.874  10.275 -0.1279 -0.0679 -0.0590
 2989TIP3    H133162  -0.056   5.831  10.241 -0.9455 -0.1687  1.8307
 2989TIP3    H233163   0.095   5.822  10.240 -0.9426 -0.7322 -0.8251
 2990TIP3   OH233164   3.097   5.922  10.467 -0.0130  0.1183  0.2679
 2990TIP3    H133165   3.124   6.014  10.474  1.6007 -0.2353 -0.7338
 2990TIP3    H233166   3.038   5.920  10.392 -1.8398  0.6573  1.6106
 2991TIP3   OH233167   6.092   1.161  11.176 -0.1634  0.0200  0.4255
 2991TIP3    H133168   6.024   1.202  11.228 -2.0350 -0.8262 -1.2290
 2991TIP3    H233169   6.154   1.231  11.156 -1.2683  1.1337  0.8462
 2992TIP3   OH233170   2.372   2.988   9.110 -0.5339  0.4140  0.1271
 2992TIP3    H133171   2.279   3.009   9.119 -1.0228 -1.6589  0.6604
 2992TIP3    H233172   2.373   2.904   9.064  1.2116  1.4120 -1.8193
 2993TIP3   OH233173   4.088   1.073  11.813  0.0366  0.7876 -0.1204
 2993TIP3    H133174   4.053   1.071  11.724  1.9198 -0.2297 -0.9088
 2993TIP3    H233175   4.101   0.980  11.835  0.8994  1.0752  0.6365
 2994TIP3   OH233176   4.246   2.456  12.036 -0.0390 -0.8391  0.1773
 2994TIP3    H133177   4.228   2.543  12.072  0.7728 -0.7355  0.3615
 2994TIP3    H233178   4.336   2.438  12.062  0.7442 -0.5892 -2.0981
 2995TIP3   OH233179   0.426   3.279  11.479  0.4335 -0.6093  0.1472
 2995TIP3    H133180   0.469   3.344  11.423  2.2112 -2.1048 -0.3455
 2995TIP3    H233181   0.386   3.330  11.549 -1.9194  1.3586 -2.4073
 2996TIP3   OH233182   0.617   6.236  10.060  0.2019  0.3284 -0.2212
 2996TIP3    H133183   0.541   6.264  10.009 -1.0136  1.7922  2.2331
 2996TIP3    H233184   0.660   6.317  10.087  0.9333 -0.3817  0.8594
 2997TIP3   OH233185   4.122   0.896  11.185 -0.0669  0.3790 -0.1318
 2997TIP3    H133186   4.115   0.801  11.174  0.6565  0.1965  0.8693
 2997TIP3    H233187   4.174   0.925  11.111  1.9845 -0.3891  0.9266
 2998TIP3   OH233188   4.253   5.742  10.268 -0.1481 -0.4293 -0.5527
 2998TIP3    H133189   4.216   5.809  10.324 -0.9894 -0.1638 -1.3992
 2998TIP3    H233190   4.296   5.790  10.197 -0.6305 -0.7703 -1.0862
 2999TIP3   OH233191   2.155   5.285  10.590  0.1400  0.4408  0.1959
 2999TIP3    H133192   2.153   5.279  10.495  0.2988  0.9392  0.1597
 2999TIP3    H233193   2.090   5.221  10.619  1.2829 -0.9311 -0.1844
 3000TIP3   OH233194   5.251   2.938   9.928 -0.4314 -0.4786  0.1206
 3000TIP3    H133195   5.178   2.902   9.978  1.0728 -0.5993  2.3629
 3000TIP3    H233196   5.329   2.893   9.962  0.8592  0.7172 -1.1022
 3001TIP3   OH233197   1.979   4.032   9.890 -0.0634 -0.3242 -0.1434
 3001TIP3    H133198   1.940   3.949   9.864  2.6953 -1.4332 -1.1023
 3001TIP3    H233199   2.064   4.034   9.845  2.4036  0.4998  4.0176
 3002TIP3   OH233200   2.586   1.615  12.116  0.1107  0.6334 -0.0733
 3002TIP3    H133201   2.526   1.557  12.164 -0.4258  2.2144  1.2382
 3002TIP3    H233202   2.546   1.701  12.122  1.7697  1.4724 -0.4900
 3003TIP3   OH233203   5.397   3.918   9.022 -0.3382  0.1699  0.0951
 3003TIP3    H133204   5.371   3.984   9.086  0.6934  0.0022  0.6996
 3003TIP3    H233205   5.338   3.844   9.038  2.0960 -1.3158  3.3226
 3004TIP3   OH233206   2.763   3.310  11.218  0.0407 -0.3648  0.3506
 3004TIP3    H133207   2.773   3.362  11.298  0.2715 -0.5004  0.4098
 3004TIP3    H233208   2.850   3.307  11.180 -0.4618  1.6358 -1.1324
 3005TIP3   OH233209   2.337   0.065  10.769  0.2460  0.6695  0.3056
 3005TIP3    H133210   2.319  -0.027  10.747 -0.4687  1.3971 -2.5736
 3005TIP3    H233211   2.431   0.075  10.753  0.1123  0.6919 -0.5015
 3006TIP3   OH233212   6.075   4.461  10.138 -0.4198  0.0790 -0.5159
 3006TIP3    H133213   5.982   4.475  10.153 -0.2086  2.1648 -0.7213
 3006TIP3    H233214   6.104   4.404  10.209 -1.9341 -1.0191 -0.7551
 3007TIP3   OH233215   6.521   5.307   9.865  0.9702 -0.3006  0.4355
 3007TIP3    H133216   6.446   5.356   9.899  0.0486 -0.7940 -0.7921
 3007TIP3    H233217   6.572   5.372   9.817  0.3179 -0.3083 -0.2927
 3008TIP3   OH233218   1.982   6.174   9.958 -0.3938  0.0517 -0.1887
 3008TIP3    H133219   1.889   6.193   9.947 -0.3860 -0.5321 -1.4102
 3008TIP3    H233220   2.014   6.242  10.016 -0.9534  2.0563 -2.1104
 3009TIP3   OH233221   1.265   5.162  10.510 -0.1130  0.0384  0.2289
 3009TIP3    H133222   1.334   5.228  10.514 -0.1815  0.0478  1.5323
 3009TIP3    H233223   1.264   5.123  10.597 -3.3766  1.6760  1.0710
 3010TIP3   OH233224   6.109   2.859  10.673 -0.0827  0.1504 -0.7013
 3010TIP3    H133225   6.185   2.881  10.726 -0.1262 -0.0573 -0.5502
 3010TIP3    H233226   6.143   2.801  10.605  0.0503  0.7565 -1.1603
 3011TIP3   OH233227   6.491   3.058  10.167  0.1443  0.3413  0.4729
 3011TIP3    H133228   6.463   3.017  10.085 -1.6166  0.2468  1.0755
 3011TIP3    H233229   6.560   3.000  10.200 -1.0288 -1.1576  0.4097
 3012TIP3   OH233230   1.965   4.785  11.059 -0.0547 -0.6390 -0.3363
 3012TIP3    H133231   1.891   4.771  11.119  0.2580  0.5771  0.3492
 3012TIP3    H233232   1.960   4.710  10.999 -0.5565 -1.7429  1.0063
 3013TIP3   OH233233   1.298   2.506  10.029 -0.6477 -0.2349 -0.0322
 3013TIP3    H133234   1.217   2.529   9.983 -0.6850  0.7727  0.4959
 3013TIP3    H233235   1.366   2.512   9.963 -0.9357 -0.6050 -0.3690
 3014TIP3   OH233236   3.417   2.346   8.899  0.1429  0.5182 -0.2018
 3014TIP3    H133237   3.375   2.341   8.813  0.7368 -0.4039 -0.4551
 3014TIP3    H233238   3.493   2.289   8.891 -1.1951 -1.7341  1.7235
 3015TIP3   OH233239   0.340   1.782  10.010  0.1649  0.4136 -0.0810
 3015TIP3    H133240   0.273   1.838   9.969 -1.3953 -0.2241  1.4616
 3015TIP3    H233241   0.292   1.705  10.038  1.8339 -0.6415 -0.0079
 3016TIP3   OH233242   5.589   5.902   9.434  0.1841 -0.0323 -0.6682
 3016TIP3    H133243   5.644   5.824   9.439 -0.0049 -0.2432 -1.5933
 3016TIP3    H233244   5.500   5.869   9.425 -0.1698  0.3100  1.1731
 3017TIP3   OH233245   5.983   1.597  12.044  0.1104  0.0343  0.4710
 3017TIP3    H133246   5.942   1.552  12.118  1.9214 -1.7491  0.4785
 3017TIP3    H233247   5.919   1.590  11.974 -0.3388 -1.1527  0.9648
 3018TIP3   OH233248   6.080   4.357  11.409  0.1146  0.2878  0.2746
 3018TIP3    H133249   6.153   4.406  11.447  1.4983 -0.3988 -1.3864
 3018TIP3    H233250   6.084   4.272  11.452 -0.6689  0.7136  1.2486
 3019TIP3   OH233251   0.462   2.873   9.840  0.7268 -0.5142  0.8706
 3019TIP3    H133252   0.409   2.900   9.915 -2.7907  1.4835 -1.9633
 3019TIP3    H233253   0.403   2.819   9.787  3.0925 -1.9935 -0.4528
 3020TIP3   OH233254   2.949   4.062   9.744 -0.2919  0.1933 -0.1964
 3020TIP3    H133255   3.027   4.085   9.694  0.4666  2.4056  1.8439
 3020TIP3    H233256   2.887   4.030   9.678  1.9084 -0.5960 -2.0053
 3021TIP3   OH233257   2.633   1.231   9.901 -0.0119  0.0058  0.1344
 3021TIP3    H133258   2.689   1.301   9.865 -1.0286  1.4864  1.2988
 3021TIP3    H233259   2.692   1.157   9.913  0.7240 -0.0706 -2.9927
 3022TIP3   OH233260   3.999   4.130   9.729 -0.3359  0.4176 -0.0271
 3022TIP3    H133261   4.086   4.121   9.690 -0.6094 -0.9095 -0.3887
 3022TIP3    H233262   3.960   4.205   9.684  0.1949  0.3048 -0.6944
 3023TIP3   OH233263   0.030   0.040  10.876  0.0375 -0.1147 -0.3554
 3023TIP3    H133264   0.066  -0.012  10.947  0.4858 -0.7446 -1.0249
 3023TIP3    H233265   0.097   0.038  10.808 -0.0931  1.0436 -0.5420
 3024TIP3   OH233266   3.424   0.798  10.314 -0.7475  0.7368  0.3706
 3024TIP3    H133267   3.517   0.811  10.331 -0.8750  1.5007  0.5259
 3024TIP3    H233268   3.390   0.886  10.296 -1.4552  0.4792  0.4005
 3025TIP3   OH233269   1.928   2.950   8.511  0.3321  0.5621 -0.1862
 3025TIP3    H133270   1.846   2.996   8.498  0.3323  0.9708  1.0814
 3025TIP3    H233271   1.994   3.005   8.468 -0.1436 -0.2625 -2.0677
 3026TIP3   OH233272   1.434   0.510  12.290 -0.2837 -0.1593  0.2392
 3026TIP3    H133273   1.435   0.435  12.232 -1.0027 -1.4564  1.8303
 3026TIP3    H233274   1.525   0.536  12.298 -0.0437 -0.7864 -0.4256
 3027TIP3   OH233275   3.681   2.119  11.775  0.2884  0.4239 -0.3965
 3027TIP3    H133276   3.603   2.173  11.784 -0.0146 -0.2737  1.5450
 3027TIP3    H233277   3.662   2.039  11.824  1.8524 -0.1855 -0.7048
 3028TIP3   OH233278   1.559   1.153   8.806  0.5379  0.5637  0.0889
 3028TIP3    H133279   1.589   1.098   8.878  3.0013  1.1121 -0.4131
 3028TIP3    H233280   1.522   1.092   8.742  0.6819 -0.2020  0.7203
 3029TIP3   OH233281   2.523   1.647  11.688 -0.2302  0.0377 -0.3023
 3029TIP3    H133282   2.564   1.575  11.735  0.1343  0.2411 -0.3075
 3029TIP3    H233283   2.485   1.703  11.757  0.6700  0.5595 -0.2189
 3030TIP3   OH233284   4.478   5.211  11.628 -0.0958 -0.1174  0.5996
 3030TIP3    H133285   4.513   5.215  11.539  2.7678  1.0520  1.6559
 3030TIP3    H233286   4.474   5.118  11.649 -0.4978 -0.3871 -0.6128
 3031TIP3   OH233287   6.123   4.019  10.814  0.3767 -0.3044  0.7941
 3031TIP3    H133288   6.063   3.947  10.830 -0.8113  0.3881 -0.3710
 3031TIP3    H233289   6.191   3.982  10.757 -1.0424 -0.1788 -1.0683
 3032TIP3   OH233290   1.840   5.746  12.357 -0.0648  0.1207  0.2620
 3032TIP3    H133291   1.783   5.670  12.371  2.0218 -1.5974 -0.0411
 3032TIP3    H233292   1.781   5.816  12.330 -2.2065 -1.0798  1.5978
 3033TIP3   OH233293   4.421   1.063   8.544 -0.1707  0.3524 -0.5178
 3033TIP3    H133294   4.490   0.997   8.550  0.4949  0.8468 -2.3021
 3033TIP3    H233295   4.345   1.021   8.586  0.1383 -1.6747 -1.8280
 3034TIP3   OH233296   3.258   3.971  10.890 -0.2769 -0.1451  0.0446
 3034TIP3    H133297   3.182   3.918  10.866 -2.1631  2.6579 -0.7844
 3034TIP3    H233298   3.275   3.950  10.982 -0.6134 -2.4211 -0.3612
 3035TIP3   OH233299   4.045   3.334  11.332 -0.4216  0.5662  0.0694
 3035TIP3    H133300   4.127   3.382  11.346 -0.6163  1.2268 -0.9705
 3035TIP3    H233301   4.049   3.305  11.241 -1.7284  1.3551 -0.2648
 3036TIP3   OH233302   3.972   3.280  11.021  0.0685  0.3362 -0.0019
 3036TIP3    H133303   4.047   3.326  10.984 -2.0701  2.0930 -2.4957
 3036TIP3    H233304   3.971   3.195  10.976 -0.4723  1.0659 -1.4322
 3037TIP3   OH233305   2.026   2.384  11.366 -0.0859 -0.4332  0.2433
 3037TIP3    H133306   2.084   2.324  11.413 -0.6402 -0.4973  0.8614
 3037TIP3    H233307   2.008   2.339  11.283 -0.5159 -1.1567  0.7104
 3038TIP3   OH233308   0.179   0.983  10.698 -0.1018  0.1065 -0.0551
 3038TIP3    H133309   0.121   0.959  10.626  2.4330  1.2960 -2.6695
 3038TIP3    H233310   0.253   0.923  10.691  0.0014 -0.0894  1.9676
 3039TIP3   OH233311   2.582   3.810   8.977  0.0172  0.0269 -0.0433
 3039TIP3    H133312   2.542   3.890   9.010  0.7013  0.3923 -0.0646
 3039TIP3    H233313   2.540   3.795   8.893 -0.0008  0.4631 -0.1163
 3040TIP3   OH233314   0.778   5.565  11.209 -0.2233  0.3194 -0.5851
 3040TIP3    H133315   0.708   5.624  11.238  0.1694  0.5625 -0.1186
 3040TIP3    H233316   0.787   5.584  11.115  0.1732  1.2972 -0.3583
 3041TIP3   OH233317   2.319   2.029  12.354  0.4123  0.0539  0.3978
 3041TIP3    H133318   2.323   2.111  12.405  1.0107  1.4604 -1.7869
 3041TIP3    H233319   2.228   2.000  12.365 -0.6447  2.5170 -0.9046
 3042TIP3   OH233320   3.658   4.709  11.745  0.0407 -0.9007  0.5317
 3042TIP3    H133321   3.567   4.701  11.771  0.1687 -3.0433  0.5576
 3042TIP3    H233322   3.697   4.768  11.810 -1.5738  1.2372 -0.3244
 3043TIP3   OH233323   0.572   4.501  10.956 -0.8902 -0.4792 -0.1687
 3043TIP3    H133324   0.634   4.434  10.983 -0.5380 -0.0887  0.0072
 3043TIP3    H233325   0.505   4.501  11.024  0.5934  1.3033  1.4069
 3044TIP3   OH233326   2.808   2.365  10.950 -0.1964 -0.6133  0.3240
 3044TIP3    H133327   2.828   2.334  11.038  0.4595  0.4553  0.5733
 3044TIP3    H233328   2.844   2.298  10.892  1.5415 -0.1679  0.8389
 3045TIP3   OH233329   1.888   0.719  12.187  0.3940 -0.3552 -0.3755
 3045TIP3    H133330   1.877   0.814  12.177  0.0386 -0.4291 -0.7009
 3045TIP3    H233331   1.803   0.689  12.221  1.2237 -0.2443  1.9895
 3046TIP3   OH233332   2.586   4.283  10.492 -0.0081  0.2841 -0.6429
 3046TIP3    H133333   2.662   4.291  10.434 -0.6246 -0.2983 -1.5650
 3046TIP3    H233334   2.519   4.242  10.437 -1.4213  1.9296 -0.2424
 3047TIP3   OH233335   1.323   4.562  11.684  0.5186  0.8542 -0.4255
 3047TIP3    H133336   1.301   4.473  11.654 -0.2052  1.2994 -1.2453
 3047TIP3    H233337   1.294   4.564  11.776  0.8652  0.1372 -0.2912
 3048TIP3   OH233338   0.730   3.334  11.613  0.2840 -0.1543 -0.1503
 3048TIP3    H133339   0.726   3.251  11.662 -0.7402 -0.4809 -0.7492
 3048TIP3    H233340   0.704   3.401  11.676 -0.4904 -0.5029 -0.0897
 3049TIP3   OH233341   4.464   2.813  11.761 -0.0141 -1.0961 -0.5792
 3049TIP3    H133342   4.454   2.836  11.668  0.3878  2.0185  0.0260
 3049TIP3    H233343   4.546   2.857  11.787 -1.2347 -0.0077  1.7096
 3050TIP3   OH233344   6.273   2.352  10.632  0.2517 -0.4190 -0.0733
 3050TIP3    H133345   6.282   2.299  10.711  0.4733  1.4353  1.2026
 3050TIP3    H233346   6.358   2.395  10.621 -0.8156  2.1182  0.8262
 3051TIP3   OH233347   3.770   1.525  11.926  0.3561 -0.5316  0.0268
 3051TIP3    H133348   3.704   1.508  11.859 -1.1453 -2.8229  1.9482
 3051TIP3    H233349   3.832   1.452  11.918  0.5917 -0.4031  0.6367
 3052TIP3   OH233350   3.319   3.379  11.500  0.0083 -0.9689  0.3020
 3052TIP3    H133351   3.395   3.437  11.503 -0.8881  0.4454 -1.6410
 3052TIP3    H233352   3.355   3.291  11.498  1.6450 -0.3229 -0.8694
 3053TIP3   OH233353   2.330   1.958  10.538  0.2260 -0.4566  0.7723
 3053TIP3    H133354   2.245   1.949  10.496  1.6301 -0.7288 -2.2548
 3053TIP3    H233355   2.310   1.999  10.623 -2.6575  2.4054 -1.0322
 3054TIP3   OH233356   0.093   4.849   9.481 -0.0594  0.4902 -0.1683
 3054TIP3    H133357   0.188   4.852   9.496  0.0432 -0.9982 -0.3770
 3054TIP3    H233358   0.083   4.861   9.387 -0.0864  0.5221 -0.1614
 3055TIP3   OH233359   2.095   0.307   9.351  0.4705  0.3145  0.6660
 3055TIP3    H133360   2.067   0.250   9.280  1.1861  0.1619  0.4974
 3055TIP3    H233361   2.063   0.264   9.431 -0.0264  0.3041  0.4623
 3056TIP3   OH233362   0.746   5.257  10.878  0.7536  0.4634  0.6757
 3056TIP3    H133363   0.719   5.263  10.970 -1.3150 -1.7657  0.3084
 3056TIP3    H233364   0.835   5.224  10.882  0.0927 -1.3630  1.9419
 3057TIP3   OH233365   0.767   2.606  10.886  0.2025  0.0949 -0.1615
 3057TIP3    H133366   0.801   2.526  10.845  0.5239 -1.2971  2.6163
 3057TIP3    H233367   0.681   2.582  10.920 -0.0002  1.1458  0.1138
 3058TIP3   OH233368   2.355   6.566  11.747 -0.0343  0.8554  0.1228
 3058TIP3    H133369   2.313   6.650  11.767  2.7055  2.4154 -0.1521
 3058TIP3    H233370   2.448   6.587  11.741  0.4647 -1.6060 -3.2087
 3059TIP3   OH233371   4.793   4.986   9.919  0.2102 -0.9402  0.1870
 3059TIP3    H133372   4.797   4.916   9.984  1.0862  0.0539  1.2278
 3059TIP3    H233373   4.707   5.025   9.932  1.0991  0.5251  2.1610
 3060TIP3   OH233374   6.438   0.641  10.911 -0.2418  0.2494  0.3928
 3060TIP3    H133375   6.504   0.586  10.955 -1.3890 -1.3628  0.1762
 3060TIP3    H233376   6.355   0.596  10.927 -0.8737  0.3620 -2.2336
 3061TIP3   OH233377   5.040   2.822  10.045  0.0754 -0.0352  0.7378
 3061TIP3    H133378   4.991   2.879  10.104 -1.3760 -0.6529  0.1706
 3061TIP3    H233379   4.982   2.748  10.028 -0.1480  0.7077 -2.4234
 3062TIP3   OH233380   1.989   2.988   8.941  0.0215  0.1171  0.0002
 3062TIP3    H133381   1.905   3.007   8.983  0.2452 -0.6493  0.8378
 3062TIP3    H233382   2.023   2.913   8.990  1.5045  0.8351  0.1296
 3063TIP3   OH233383   3.472   1.666   9.671 -0.2373  0.1743 -0.2389
 3063TIP3    H133384   3.523   1.731   9.719  0.3021 -0.7288  0.4542
 3063TIP3    H233385   3.526   1.646   9.594 -1.1130  1.6396 -1.2744
 3064TIP3   OH233386   6.233   0.818  12.379  0.5651 -0.1001  0.3002
 3064TIP3    H133387   6.307   0.804  12.320 -0.7663  1.9326 -2.0755
 3064TIP3    H233388   6.211   0.910  12.368 -1.1494 -0.1791  2.3970
 3065TIP3   OH233389   5.372   3.720  11.698  0.4372  0.4439  0.0492
 3065TIP3    H133390   5.419   3.745  11.778 -0.1885  1.4758  0.1057
 3065TIP3    H233391   5.308   3.655  11.727 -0.8519  1.9410  0.7032
 3066TIP3   OH233392   0.840   1.197  11.759 -0.0288  0.1081  0.2351
 3066TIP3    H133393   0.880   1.263  11.815 -1.6735  0.1226  1.4813
 3066TIP3    H233394   0.806   1.246  11.684  0.6895  0.3440  0.0608
 3067TIP3   OH233395   2.082   3.909  12.530  0.6091 -0.3368  0.4469
 3067TIP3    H133396   2.044   3.981  12.580  1.7757  0.0065  0.8991
 3067TIP3    H233397   2.021   3.893  12.459  0.1566  0.8778  0.5400
 3068TIP3   OH233398   6.012   4.877  11.670 -0.0771 -0.1141 -0.1454
 3068TIP3    H133399   5.986   4.910  11.756  0.1526  0.1212 -0.1652
 3068TIP3    H233400   6.023   4.956  11.617  2.0650 -0.1143  0.2438
 3069TIP3   OH233401   1.786   3.553  12.343 -0.0142 -0.2813  0.7166
 3069TIP3    H133402   1.790   3.547  12.247 -1.0695 -0.7488  0.6864
 3069TIP3    H233403   1.758   3.466  12.371 -0.2113  0.0009  1.4129
 3070TIP3   OH233404   3.534   0.704  11.671 -0.8441  0.3583  0.0372
 3070TIP3    H133405   3.474   0.777  11.657 -0.3964  0.6946 -0.1469
 3070TIP3    H233406   3.615   0.744  11.704 -0.6093 -0.0568 -0.0162
 3071TIP3   OH233407   0.586   3.990  11.917 -0.2141  0.3823  0.0460
 3071TIP3    H133408   0.532   4.049  11.970 -0.0195 -0.4735  1.2380
 3071TIP3    H233409   0.580   4.025  11.828  1.1534  3.1342  0.9206
 3072TIP3   OH233410   5.685   2.230   9.771 -0.1319  0.5374  0.3952
 3072TIP3    H133411   5.683   2.282   9.851  0.2216  1.4709 -0.1870
 3072TIP3    H233412   5.751   2.162   9.788  1.2006  1.7560  0.3022
 3073TIP3   OH233413   1.461   6.395   9.668  0.2874 -0.3969  0.2192
 3073TIP3    H133414   1.396   6.446   9.716 -1.4125 -2.2508  0.0205
 3073TIP3    H233415   1.433   6.399   9.577 -0.9293 -2.9866  0.3903
 3074TIP3   OH233416   3.481   5.346  10.569  0.2533 -0.5527  0.4429
 3074TIP3    H133417   3.478   5.287  10.644  1.7612  0.5465  1.4359
 3074TIP3    H233418   3.510   5.430  10.606 -0.4468  0.4340 -1.1382
 3075TIP3   OH233419   0.276   0.481  10.129  0.0252 -0.0306  0.3760
 3075TIP3    H133420   0.368   0.492  10.106  0.2534  0.0053  1.2875
 3075TIP3    H233421   0.267   0.388  10.150 -0.3053 -0.1749 -0.3427
 3076TIP3   OH233422   4.302   4.758  11.114 -0.0664  0.8216  0.3329
 3076TIP3    H133423   4.215   4.717  11.114  0.1106  0.4147  1.1331
 3076TIP3    H233424   4.320   4.776  11.022 -0.1450 -0.9240 -0.0681
 3077TIP3   OH233425   0.887   3.091  11.074  0.3117  0.3966 -0.1916
 3077TIP3    H133426   0.982   3.102  11.075  0.2303  1.6637  2.1415
 3077TIP3    H233427   0.874   2.996  11.074  1.6929  0.1188  2.1822
 3078TIP3   OH233428   1.250   3.042   9.794 -0.2353  0.3792 -0.0643
 3078TIP3    H133429   1.168   3.071   9.754 -0.4271  0.2301  0.2206
 3078TIP3    H233430   1.285   3.120   9.837  0.1221  0.6165 -0.7708
 3079TIP3   OH233431   0.125   6.593  12.009 -0.1337 -0.3458  0.1283
 3079TIP3    H133432   0.060   6.604  11.940  0.5307 -1.2809 -0.6695
 3079TIP3    H233433   0.188   6.531  11.973 -1.4999 -3.5545  2.7252
 3080TIP3   OH233434   0.312   1.246  10.911 -0.0527  0.1077 -0.0504
 3080TIP3    H133435   0.259   1.249  10.991  0.0530  0.6223 -0.0026
 3080TIP3    H233436   0.401   1.264  10.940  0.0077  0.1574 -0.2691
 3081TIP3   OH233437   0.038   0.472  12.142 -0.0077 -0.1464  0.0483
 3081TIP3    H133438  -0.017   0.395  12.159 -0.6791  0.2956 -0.0684
 3081TIP3    H233439   0.040   0.519  12.225  0.1799 -0.1568  0.0481
 3082TIP3   OH233440   3.887   2.956  12.414 -0.0336  0.3139  0.2031
 3082TIP3    H133441   3.826   2.937  12.343  0.1169 -1.0178  0.3937
 3082TIP3    H233442   3.908   2.869  12.450  1.6971  0.7772  0.3606
 3083TIP3   OH233443   2.372   2.408   8.711 -0.3267 -0.1688 -0.3466
 3083TIP3    H133444   2.306   2.343   8.735  2.9633 -2.7780  2.6807
 3083TIP3    H233445   2.420   2.368   8.638 -0.7208  0.7448 -1.1259
 3084TIP3   OH233446   0.787   3.481   9.102  0.0116  0.1811  0.1701
 3084TIP3    H133447   0.815   3.569   9.127 -0.0002  0.4900 -0.8784
 3084TIP3    H233448   0.742   3.492   9.018 -1.5744 -0.5736  0.8624
 3085TIP3   OH233449   4.860   0.699  11.551 -0.7059  0.3383 -0.0605
 3085TIP3    H133450   4.849   0.782  11.505 -1.2323  0.7205  0.7367
 3085TIP3    H233451   4.858   0.723  11.644  3.2719  0.0332  0.2758
 3086TIP3   OH233452   5.827   6.049  10.685 -0.2579 -0.2247  0.7398
 3086TIP3    H133453   5.815   6.139  10.656 -1.2573 -0.4134  0.5447
 3086TIP3    H233454   5.890   6.012  10.622 -0.4030  0.1260  0.3848
 3087TIP3   OH233455   6.546   5.762  11.118  0.1899  0.1871 -0.3924
 3087TIP3    H133456   6.538   5.694  11.185  0.4821 -0.8302 -1.3586
 3087TIP3    H233457   6.460   5.804  11.116 -0.7364 -1.6394 -1.3020
 3088TIP3   OH233458   5.353   3.351  11.733  0.0209  0.0652  0.5518
 3088TIP3    H133459   5.312   3.274  11.694 -0.2367 -1.0042  2.7349
 3088TIP3    H233460   5.388   3.400  11.659 -1.7044 -1.0266 -1.0921
 3089TIP3   OH233461   0.849   6.449   9.120  0.5961  0.9276 -0.0142
 3089TIP3    H133462   0.931   6.490   9.092  1.4237 -1.1578 -0.8611
 3089TIP3    H233463   0.797   6.443   9.040  1.4506 -1.6689 -0.4840
 3090TIP3   OH233464   4.917   4.178  10.744  0.3457 -0.2304  0.3048
 3090TIP3    H133465   4.994   4.236  10.744  0.8763 -0.9277  0.2186
 3090TIP3    H233466   4.846   4.233  10.709  0.4966  0.8055  1.5451
 3091TIP3   OH233467   5.984   5.230  11.873  0.2144 -0.3820  0.3451
 3091TIP3    H133468   5.976   5.318  11.835  1.9063 -0.7884 -1.1092
 3091TIP3    H233469   6.040   5.243  11.950  1.3158 -0.2796 -0.4396
 3092TIP3   OH233470   0.424   4.668  12.222  0.0682  0.7198 -0.5755
 3092TIP3    H133471   0.501   4.620  12.253 -0.1638  0.5255 -0.2989
 3092TIP3    H233472   0.460   4.734  12.162  0.2961 -0.4473 -1.7613
 3093TIP3   OH233473   5.826   5.002   9.421  0.8554 -0.3969 -0.1503
 3093TIP3    H133474   5.859   5.002   9.331  0.3398 -1.7163 -0.3583
 3093TIP3    H233475   5.731   5.006   9.412  0.6415 -2.9018  0.2034
 3094TIP3   OH233476   4.431   0.297   9.067 -0.2197  0.5517  0.2947
 3094TIP3    H133477   4.350   0.336   9.098 -0.6897 -0.2477  0.1121
 3094TIP3    H233478   4.500   0.349   9.106 -0.7952  0.1108  1.9679
 3095TIP3   OH233479   0.667   1.010   9.303 -0.4274 -0.2645 -0.1706
 3095TIP3    H133480   0.704   1.007   9.215  0.3661 -1.4121  0.1885
 3095TIP3    H233481   0.572   1.016   9.289 -0.2182  1.6274 -1.0881
 3096TIP3   OH233482   4.558   0.345  10.114  0.1820 -0.0247  0.5463
 3096TIP3    H133483   4.599   0.405  10.051 -0.3790  0.8210  0.9684
 3096TIP3    H233484   4.609   0.356  10.194  2.3100 -2.7080 -0.2619
 3097TIP3   OH233485   3.312   4.743  10.096 -0.2462 -0.0134 -0.3546
 3097TIP3    H133486   3.338   4.661  10.055  1.9598  0.5881 -0.2890
 3097TIP3    H233487   3.232   4.722  10.144  0.3367 -2.1397 -0.2343
 3098TIP3   OH233488   3.307   0.932  12.029  0.0420 -0.8309 -0.5134
 3098TIP3    H133489   3.347   0.880  12.099  0.6165 -0.5676 -0.6357
 3098TIP3    H233490   3.247   0.991  12.074  0.6488 -0.4379 -0.1969
 3099TIP3   OH233491   2.005   4.307  10.734 -0.6551  0.0046 -0.3074
 3099TIP3    H133492   2.064   4.236  10.760 -0.1396  0.6686  0.3707
 3099TIP3    H233493   2.005   4.304  10.638  1.2789  0.6010 -0.3796
 3100TIP3   OH233494   6.358   6.035  12.203 -0.4924  0.0415  0.0808
 3100TIP3    H133495   6.278   6.031  12.255 -0.6874  1.6518 -0.0361
 3100TIP3    H233496   6.332   6.076  12.121  0.4542  0.7271  0.0959
 3101TIP3   OH233497   1.803   0.892  11.671 -0.1256 -0.4811  0.1864
 3101TIP3    H133498   1.719   0.846  11.676  0.2251 -1.1473  0.1013
 3101TIP3    H233499   1.782   0.983  11.690 -1.0975 -0.3863 -1.1537
 3102TIP3   OH233500   1.784   3.643  11.175  0.0501 -0.2143  0.2636
 3102TIP3    H133501   1.754   3.667  11.087  1.0329  0.5707  0.1288
 3102TIP3    H233502   1.703   3.627  11.224 -0.4979 -1.1354 -0.8974
 3103TIP3   OH233503   5.897   1.080  10.659  0.2014 -0.6456 -0.1716
 3103TIP3    H133504   5.957   1.105  10.730 -1.3111  0.6656  0.7104
 3103TIP3    H233505   5.952   1.032  10.597  1.8602 -0.6698  1.2385
 3104TIP3   OH233506   4.322   1.612  11.159 -0.7347 -0.3951  0.3664
 3104TIP3    H133507   4.299   1.628  11.251 -3.0455 -0.8710 -0.0748
 3104TIP3    H233508   4.288   1.689  11.113 -1.4990 -1.1500 -0.3419
 3105TIP3   OH233509   0.936   0.226  10.256 -0.1731  0.1421  0.3341
 3105TIP3    H133510   0.917   0.315  10.224  1.8506  0.6125  0.3111
 3105TIP3    H233511   0.982   0.240  10.339  0.9390 -0.8364 -0.0921
 3106TIP3   OH233512   0.709   5.577  12.392 -0.0496 -0.4455  0.1236
 3106TIP3    H133513   0.629   5.594  12.441  0.5743  1.1451  0.6503
 3106TIP3    H233514   0.684   5.585  12.300 -0.0051  2.8762  0.2845
 3107TIP3   OH233515   3.533   6.435   9.955  0.2060  0.2221  0.0093
 3107TIP3    H133516   3.569   6.487   9.883  0.8077 -0.8202 -0.4570
 3107TIP3    H233517   3.498   6.501  10.016 -0.5940  1.1034 -1.3496
 3108TIP3   OH233518   4.193   5.061  11.298  0.3984 -0.9031 -0.7289
 3108TIP3    H133519   4.273   5.019  11.266  1.3610  0.7711 -0.6431
 3108TIP3    H233520   4.129   4.991  11.302  1.8616 -2.3048 -0.8073
 3109TIP3   OH233521   2.480   5.126  11.935  0.6406 -0.0662  0.1058
 3109TIP3    H133522   2.421   5.124  12.011 -0.4141  1.2181 -0.6591
 3109TIP3    H233523   2.452   5.201  11.884  3.9261  1.5789  0.4563
 3110TIP3   OH233524   0.939   0.707   9.297  0.1946 -0.3136  0.1250
 3110TIP3    H133525   0.910   0.764   9.367  1.6493  0.5321  0.0715
 3110TIP3    H233526   0.967   0.627   9.341 -0.1051 -0.2782  0.3800
 3111TIP3   OH233527   4.974   3.145  10.079 -0.5664 -1.0502 -0.9083
 3111TIP3    H133528   4.895   3.167  10.128  0.1104  0.2679 -0.3602
 3111TIP3    H233529   4.950   3.155   9.987 -0.0475  3.4616 -0.7811
 3112TIP3   OH233530   2.868   5.180  12.117  0.5912  0.1730  0.2178
 3112TIP3    H133531   2.887   5.087  12.104  1.2721  0.7157 -4.0674
 3112TIP3    H233532   2.952   5.224  12.107  0.1122  1.3586  1.0860
 3113TIP3   OH233533   5.561   4.955  12.303 -0.4902  0.8328  0.1931
 3113TIP3    H133534   5.465   4.948  12.304 -0.4574 -0.0648 -1.0045
 3113TIP3    H233535   5.581   4.997  12.219  0.1239  2.3518  1.0505
 3114TIP3   OH233536   5.303   1.580   9.318  0.1247 -0.0671  0.2041
 3114TIP3    H133537   5.295   1.487   9.339  0.1424 -0.2372 -0.5241
 3114TIP3    H233538   5.319   1.582   9.224 -1.3786  0.7389 -0.0679
 3115TIP3   OH233539   0.060   5.847   9.244  0.6270 -0.3667 -0.0989
 3115TIP3    H133540   0.014   5.777   9.198  0.5881 -1.1271  1.0722
 3115TIP3    H233541   0.137   5.865   9.189 -0.8474  0.7245 -1.9334
 3116TIP3   OH233542   4.843   3.004  11.006  0.0670  0.2101 -0.4392
 3116TIP3    H133543   4.820   3.027  11.096 -0.2352 -1.2222 -0.1236
 3116TIP3    H233544   4.938   3.010  11.003  0.0549  0.5609 -0.1075
 3117TIP3   OH233545   3.895   3.666  10.855 -0.1404 -0.6542 -0.7246
 3117TIP3    H133546   3.829   3.666  10.924  1.9362 -1.3736  1.3748
 3117TIP3    H233547   3.896   3.575  10.823 -0.1714 -0.6411 -0.7626
 3118TIP3   OH233548   6.377   2.488  12.387 -0.2036 -0.2460  0.0608
 3118TIP3    H133549   6.355   2.409  12.337 -1.9653 -0.5490  1.2101
 3118TIP3    H233550   6.299   2.505  12.440  0.5239  1.7009  0.5912
 3119TIP3   OH233551   3.272   0.613   9.091  0.0590 -0.0890 -0.6315
 3119TIP3    H133552   3.291   0.706   9.107 -0.4323 -0.1903  0.6379
 3119TIP3    H233553   3.270   0.606   8.996 -0.1336  1.2589 -0.7538
 3120TIP3   OH233554   4.377   0.671  10.991 -0.4337 -0.0238  0.3572
 3120TIP3    H133555   4.297   0.699  11.035 -1.5254 -1.3199 -0.6745
 3120TIP3    H233556   4.433   0.748  10.989 -1.1732  0.6111  2.1245
 3121TIP3   OH233557   1.887   2.893   9.420 -0.2758 -0.1921 -0.0328
 3121TIP3    H133558   1.965   2.885   9.476 -0.7448 -1.3065  0.5034
 3121TIP3    H233559   1.876   2.987   9.406  2.3973 -0.0600 -1.8927
 3122TIP3   OH233560   2.184   2.254   8.498 -0.2638 -0.4219 -0.9514
 3122TIP3    H133561   2.212   2.341   8.469  0.3760 -0.0382  0.7059
 3122TIP3    H233562   2.115   2.271   8.563  0.8469 -1.0434  0.4613
 3123TIP3   OH233563   3.921   6.126  11.794  0.0085 -0.2754 -0.1374
 3123TIP3    H133564   3.919   6.159  11.704 -2.9663  0.1180 -0.0168
 3123TIP3    H233565   3.974   6.191  11.842 -0.8114  1.1372 -1.0600
 3124TIP3   OH233566   0.036   2.353  12.103  0.0655  0.8423  0.4803
 3124TIP3    H133567   0.063   2.326  12.015  0.3747  1.6693  0.3107
 3124TIP3    H233568   0.089   2.431  12.121  0.4371  0.3379  1.6451
 3125TIP3   OH233569   1.293   6.152  10.687 -0.7804 -0.1737 -0.4957
 3125TIP3    H133570   1.289   6.059  10.707  1.2769 -0.3480 -0.6214
 3125TIP3    H233571   1.331   6.192  10.765 -1.2025  0.4968 -0.6211
 3126TIP3   OH233572   6.100   1.546   9.989 -0.0046 -0.0830  0.0320
 3126TIP3    H133573   6.103   1.494   9.909  0.1706  0.8785 -0.5965
 3126TIP3    H233574   6.014   1.587   9.989  0.7114  1.5474 -0.7553
 3127TIP3   OH233575   0.022   1.615  10.325  0.6289  0.1076 -0.1946
 3127TIP3    H133576  -0.019   1.530  10.338  0.4259  0.5112  2.2022
 3127TIP3    H233577   0.038   1.620  10.230 -2.9764 -0.8923 -1.0015
 3128TIP3   OH233578   1.622   2.503   9.979 -0.3476  0.7885  0.1304
 3128TIP3    H133579   1.625   2.438  10.049  0.5399  1.0702  0.3718
 3128TIP3    H233580   1.586   2.456   9.904  1.5667 -0.3915 -0.1044
 3129TIP3   OH233581   1.852   0.399  10.819  0.9033 -0.4856 -0.1538
 3129TIP3    H133582   1.926   0.420  10.875 -0.2073  2.4185  0.3533
 3129TIP3    H233583   1.789   0.356  10.877 -0.1020  2.2019  0.8823
 3130TIP3   OH233584   1.030   5.684  12.181 -0.3941  0.4029 -0.1151
 3130TIP3    H133585   1.011   5.673  12.274 -0.6621 -1.2664 -0.3332
 3130TIP3    H233586   0.973   5.622  12.137  0.6266  0.2601 -1.3045
 3131TIP3   OH233587   1.700   3.316   9.722 -0.5715  0.4654 -0.1990
 3131TIP3    H133588   1.777   3.262   9.702  0.4500  1.2760  1.3503
 3131TIP3    H233589   1.684   3.365   9.641  0.8834  0.6486 -0.4144
 3132TIP3   OH233590   6.042   2.674   9.130 -0.1132  0.6215 -0.0656
 3132TIP3    H133591   6.059   2.699   9.220 -0.5975  0.1163  0.1805
 3132TIP3    H233592   6.108   2.719   9.078  0.8498  0.0619  0.6536
 3133TIP3   OH233593   5.421   4.750  11.910  0.0689  0.0926  0.1809
 3133TIP3    H133594   5.389   4.781  11.825 -0.0993 -0.6854 -0.0424
 3133TIP3    H233595   5.349   4.769  11.970  0.6200  1.6965  0.3946
 3134TIP3   OH233596   5.977   5.485  11.783 -0.3106 -0.3358  0.2650
 3134TIP3    H133597   5.897   5.520  11.746  0.3829  0.5033 -0.4744
 3134TIP3    H233598   6.046   5.510  11.721  0.5069 -1.1791  0.7942
 3135TIP3   OH233599   1.777   1.026  12.217  0.1679 -0.1749 -0.0458
 3135TIP3    H133600   1.741   1.114  12.219  1.2697  0.2666  0.6165
 3135TIP3    H233601   1.871   1.037  12.224  0.3938 -1.3692 -0.7525
 3136TIP3   OH233602   5.721   1.771  11.779 -0.2803 -0.2766 -0.0109
 3136TIP3    H133603   5.684   1.851  11.816 -2.8873 -1.6502  0.6270
 3136TIP3    H233604   5.676   1.700  11.825  1.5799 -2.1479 -0.8679
 3137TIP3   OH233605   2.655   0.926  10.283  0.5061  0.0139  0.0212
 3137TIP3    H133606   2.573   0.895  10.322  1.1260 -0.5825  0.9025
 3137TIP3    H233607   2.721   0.908  10.350  1.7431 -1.7430 -1.5792
 3138TIP3   OH233608   5.277   4.055  10.115  0.6988 -0.5205  0.0901
 3138TIP3    H133609   5.213   3.984  10.122  0.2586  0.0052  2.0098
 3138TIP3    H233610   5.238   4.128  10.163  1.8807  0.4834 -0.3981
 3139TIP3   OH233611   2.304   3.178  10.679  0.4285 -0.5162 -0.6534
 3139TIP3    H133612   2.356   3.257  10.694  0.4145 -0.3758 -1.3084
 3139TIP3    H233613   2.263   3.192  10.594 -0.7181 -0.6103 -0.1386
 3140TIP3   OH233614   2.933   1.883   9.168 -0.0817 -0.2623 -0.0178
 3140TIP3    H133615   2.856   1.940   9.162  1.5193  2.0072 -0.2340
 3140TIP3    H233616   2.994   1.931   9.224  0.4550 -2.9577  1.9040
 3141TIP3   OH233617   1.047   5.442   9.401  0.3995 -0.5767 -0.0980
 3141TIP3    H133618   1.060   5.449   9.496  3.2809 -4.1700  0.0063
 3141TIP3    H233619   0.974   5.380   9.391  0.3018 -0.4422 -0.2243
 3142TIP3   OH233620   6.405   3.332  11.356 -0.3680 -0.2818  0.0094
 3142TIP3    H133621   6.368   3.382  11.428 -0.3843 -0.4638  0.1272
 3142TIP3    H233622   6.332   3.317  11.296 -0.0552  1.1573 -0.7923
 3143TIP3   OH233623   3.568   5.288  10.106 -0.0927 -0.2442 -0.4341
 3143TIP3    H133624   3.476   5.273  10.128 -0.2651  1.1398 -0.0881
 3143TIP3    H233625   3.617   5.256  10.181 -0.4098  0.4260  0.0729
 3144TIP3   OH233626   0.702   4.034  12.532  0.3351 -0.2238  0.5089
 3144TIP3    H133627   0.618   3.990  12.518  0.4040 -0.1475 -0.1842
 3144TIP3    H233628   0.736   4.050  12.444  0.6164  0.6282  0.7620
 3145TIP3   OH233629   3.745   3.218  10.198 -0.2678 -0.4847  0.0642
 3145TIP3    H133630   3.664   3.168  10.201 -0.6467  0.1720  1.0949
 3145TIP3    H233631   3.773   3.225  10.290 -0.5901  1.7628  0.0312
 3146TIP3   OH233632   3.738   3.474   9.731  0.0437 -0.1068 -0.1746
 3146TIP3    H133633   3.758   3.448   9.821 -1.4418 -1.0935 -0.0922
 3146TIP3    H233634   3.734   3.569   9.734  1.2680 -0.0615  0.5112
 3147TIP3   OH233635   1.748   5.668  10.449  0.0924 -0.1932 -0.4184
 3147TIP3    H133636   1.841   5.688  10.442 -0.1346  1.4033  0.5738
 3147TIP3    H233637   1.743   5.598  10.514  0.5606  0.4022  0.2756
 3148TIP3   OH233638   1.082   1.344   9.772 -0.8313  0.1953 -0.1856
 3148TIP3    H133639   1.114   1.335   9.861  0.3527  2.9685 -0.2292
 3148TIP3    H233640   1.159   1.327   9.717 -1.3182 -0.5376 -0.6563
 3149TIP3   OH233641   5.759   3.519  10.156  0.3347 -0.0693 -0.8532
 3149TIP3    H133642   5.774   3.544  10.248 -1.9671  0.4440 -0.5438
 3149TIP3    H233643   5.843   3.531  10.114  1.5975 -0.7897  1.2959
 3150TIP3   OH233644   2.266   4.898  11.977  0.2431 -0.0121 -0.0225
 3150TIP3    H133645   2.270   4.993  11.994 -1.9084  0.3060 -0.9587
 3150TIP3    H233646   2.235   4.892  11.887 -3.3217 -1.5158  1.1172
 3151TIP3   OH233647   1.263   4.960   9.657  0.0561  0.1831  0.2437
 3151TIP3    H133648   1.194   4.977   9.594 -0.4126 -0.7815  0.4782
 3151TIP3    H233649   1.218   4.924   9.734  0.7862 -0.3118  0.4586
 3152TIP3   OH233650   2.137   6.081   8.561  0.3747  0.1164  0.3759
 3152TIP3    H133651   2.178   6.034   8.634 -0.7173  1.6356  2.0375
 3152TIP3    H233652   2.208   6.129   8.521  0.8353  0.0035  1.0358
 3153TIP3   OH233653   1.696   3.088  11.060  0.0447 -0.4049  0.5033
 3153TIP3    H133654   1.730   3.154  11.121 -1.2033  1.2622 -0.5099
 3153TIP3    H233655   1.754   3.095  10.983 -0.8185  0.4318 -0.0956
 3154TIP3   OH233656   4.087   1.274   9.121 -0.0413 -0.1250 -0.0931
 3154TIP3    H133657   4.152   1.284   9.191  1.0360 -0.5639 -1.0048
 3154TIP3    H233658   4.139   1.259   9.042 -1.2848 -1.7946 -0.6438
 3155TIP3   OH233659   2.908   1.457  11.794  0.5228 -0.1994 -0.2394
 3155TIP3    H133660   2.818   1.467  11.824  0.4351  0.0851 -0.5965
 3155TIP3    H233661   2.951   1.539  11.820  0.5210 -0.0744 -0.6396
 3156TIP3   OH233662   5.869   0.496  10.855 -0.0191 -0.3483  0.2435
 3156TIP3    H133663   5.958   0.509  10.823  0.2206 -0.1902  0.9757
 3156TIP3    H233664   5.870   0.408  10.894 -0.0994 -0.2106  0.5534
 3157TIP3   OH233665   3.748   3.367   9.981  0.1000 -0.6863 -0.5598
 3157TIP3    H133666   3.656   3.381   9.960  0.5211  0.6584 -1.7410
 3157TIP3    H233667   3.748   3.306  10.055 -1.7051 -0.9918 -0.7759
 3158TIP3   OH233668   3.361   4.515  10.414  0.6391 -0.3965 -0.0409
 3158TIP3    H133669   3.306   4.570  10.358  0.0813  0.1826  1.0556
 3158TIP3    H233670   3.305   4.441  10.437  0.2958  0.1680  1.0346
 3159TIP3   OH233671   3.777   1.324  10.373 -0.4735 -0.1107  0.3974
 3159TIP3    H133672   3.817   1.406  10.403 -0.2278 -0.3645  0.7746
 3159TIP3    H233673   3.731   1.290  10.451 -0.1173 -0.6049  0.3971
 3160TIP3   OH233674   4.757   4.811  11.731  0.6066  0.1387 -0.0075
 3160TIP3    H133675   4.769   4.885  11.673  0.2220  0.5066  0.3708
 3160TIP3    H233676   4.728   4.850  11.814 -2.9676 -0.5851 -0.7314
 3161TIP3   OH233677   5.410   2.767  10.536  0.0114  0.4372 -0.2296
 3161TIP3    H133678   5.361   2.748  10.456 -0.7895  0.8050  0.1627
 3161TIP3    H233679   5.499   2.787  10.505 -0.0045 -0.5028 -0.9264
 3162TIP3   OH233680   5.575   2.358  11.003  0.2068  0.3063  0.0796
 3162TIP3    H133681   5.585   2.287  11.067  0.2502 -0.2183 -0.4960
 3162TIP3    H233682   5.602   2.319  10.920  1.5585  1.3957 -0.0378
 3163TIP3   OH233683   3.813   5.575  11.763 -0.0236  0.7330  0.6211
 3163TIP3    H133684   3.740   5.580  11.825 -0.5674 -0.1784  0.0627
 3163TIP3    H233685   3.857   5.660  11.772 -1.5744  1.6020  0.4438
 3164TIP3   OH233686   0.941   6.177  11.588  0.2074 -0.5769  0.2742
 3164TIP3    H133687   0.854   6.207  11.561  0.0136 -0.7948  0.6420
 3164TIP3    H233688   1.001   6.238  11.546 -0.0204 -1.5092 -1.4775
 3165TIP3   OH233689   1.216   5.522  11.930  0.4718 -0.9471  0.6524
 3165TIP3    H133690   1.186   5.607  11.895  0.8475 -0.7483  0.8096
 3165TIP3    H233691   1.212   5.463  11.855  2.1938 -0.2959  0.0072
 3166TIP3   OH233692   1.483   6.501  11.542 -0.1782  0.1649  0.0215
 3166TIP3    H133693   1.526   6.496  11.457  0.0636 -0.5120  0.1799
 3166TIP3    H233694   1.551   6.477  11.605 -0.2546  1.0177  0.4455
 3167TIP3   OH233695   5.625   4.904  11.486 -0.3054  0.2071  0.3889
 3167TIP3    H133696   5.552   4.851  11.454 -0.6906  1.2718 -0.5644
 3167TIP3    H233697   5.696   4.842  11.500 -1.2311 -0.7814  0.8592
 3168TIP3   OH233698   5.757   6.118  10.277 -0.0877 -0.3999 -0.1747
 3168TIP3    H133699   5.824   6.115  10.345  0.3604  1.1892 -0.4998
 3168TIP3    H233700   5.753   6.029  10.243  2.5601 -0.3756 -0.7762
 3169TIP3   OH233701   2.357   1.490   9.619 -0.3743 -0.7090  0.1389
 3169TIP3    H133702   2.281   1.432   9.615 -0.5336 -0.5250  0.5155
 3169TIP3    H233703   2.321   1.578   9.617 -0.2061 -0.6180  0.9722
 3170TIP3   OH233704   5.494   2.543   9.059 -0.4622  0.6018  0.2883
 3170TIP3    H133705   5.515   2.594   9.138 -0.0721 -1.0715  1.3151
 3170TIP3    H233706   5.419   2.490   9.085 -2.1174  2.0215 -1.3923
 3171TIP3   OH233707   0.968   5.000   9.127 -0.3107 -0.1740  0.3712
 3171TIP3    H133708   0.920   4.921   9.153  1.1035 -2.3269 -2.9684
 3171TIP3    H233709   0.900   5.061   9.099 -1.3261 -1.5043 -0.1908
 3172TIP3   OH233710   4.142   6.160  12.108  0.3223 -0.1348  0.0865
 3172TIP3    H133711   4.175   6.207  12.184 -1.0390  1.1335 -0.0499
 3172TIP3    H233712   4.147   6.223  12.036  0.8657 -1.0552 -0.7172
 3173TIP3   OH233713   2.202   2.464  11.967 -0.5430  0.6919 -0.8032
 3173TIP3    H133714   2.229   2.394  12.026 -0.9909  0.8685 -0.3830
 3173TIP3    H233715   2.155   2.420  11.897  1.9251  0.2157 -2.2734
 3174TIP3   OH233716   0.108   2.954  10.329  0.6653  0.6162  0.2778
 3174TIP3    H133717   0.158   2.915  10.400 -0.6937 -0.2767  0.7729
 3174TIP3    H233718   0.082   3.040  10.363 -0.4073 -0.0076  1.0852
 3175TIP3   OH233719   3.708   5.078  12.330  0.2568  0.4279 -0.3936
 3175TIP3    H133720   3.618   5.049  12.341 -0.3481  1.9682 -0.9607
 3175TIP3    H233721   3.727   5.129  12.409  0.9192 -0.5066  0.0781
 3176TIP3   OH233722   3.719   4.790  12.606 -0.4596  0.1654 -0.4748
 3176TIP3    H133723   3.652   4.726  12.583 -1.1092  1.5308 -2.6842
 3176TIP3    H233724   3.793   4.770  12.548 -0.3181  0.8181 -0.5268
 3177TIP3   OH233725   3.721   3.249   9.523  0.0454 -0.4499  0.3379
 3177TIP3    H133726   3.755   3.183   9.584 -1.2488 -2.2824 -0.8139
 3177TIP3    H233727   3.677   3.313   9.579  2.7602  0.4407  1.6308
 3178TIP3   OH233728   4.720   0.306  10.329  0.3528 -0.2716  0.2068
 3178TIP3    H133729   4.798   0.316  10.384  2.0583 -1.4611 -1.8358
 3178TIP3    H233730   4.682   0.222  10.357 -1.0550  0.9065  2.0955
 3179TIP3   OH233731   3.378   4.490  12.144 -0.5736  0.3939 -0.8466
 3179TIP3    H133732   3.463   4.508  12.184 -0.7535  0.2061 -0.3828
 3179TIP3    H233733   3.385   4.400  12.111 -1.3814 -0.5005  1.2761
 3180TIP3   OH233734   1.698   6.032   9.332  0.3109  0.1084  0.1848
 3180TIP3    H133735   1.633   6.011   9.264  1.0320  1.6719 -1.0670
 3180TIP3    H233736   1.702   6.128   9.332  1.1965  0.0970  1.6331
 3181TIP3   OH233737   1.326   5.901  10.824 -0.3985 -0.0907 -0.1347
 3181TIP3    H133738   1.392   5.947  10.877 -0.4847 -0.1442  0.0191
 3181TIP3    H233739   1.266   5.864  10.888  0.4491 -1.6283 -0.1832
 3182TIP3   OH233740   0.815   3.113   8.989 -0.6011  0.2813 -0.1009
 3182TIP3    H133741   0.816   3.148   8.900 -1.2092  0.6446  0.0283
 3182TIP3    H233742   0.832   3.189   9.045 -0.2092  0.0519  0.0969
 3183TIP3   OH233743   3.218   2.220   8.113  0.4855 -0.1266  0.3651
 3183TIP3    H133744   3.128   2.204   8.142  0.0984 -0.2705 -0.8427
 3183TIP3    H233745   3.268   2.147   8.150 -0.2566 -1.1123 -0.5066
 3184TIP3   OH233746   0.825   4.216   9.541 -0.1597 -0.4563 -0.5183
 3184TIP3    H133747   0.882   4.246   9.611 -0.1242  0.7358 -1.0177
 3184TIP3    H233748   0.870   4.243   9.461 -0.0177 -2.1118 -1.0343
 3185TIP3   OH233749   5.914   5.437  10.489  0.0101 -0.7285  0.2263
 3185TIP3    H133750   5.934   5.376  10.560  0.5129  0.4390  1.1061
 3185TIP3    H233751   5.827   5.410  10.458  0.5061 -2.3154  0.1253
 3186TIP3   OH233752   2.446   3.511  10.977  1.0182  0.0233 -0.1121
 3186TIP3    H133753   2.455   3.465  10.893 -1.2705  0.9652 -0.9663
 3186TIP3    H233754   2.456   3.603  10.955 -0.8049  0.3746  0.3848
 3187TIP3   OH233755   2.961   1.016  11.080  0.6709 -0.4733  0.0652
 3187TIP3    H133756   2.994   1.098  11.044 -0.4695 -0.2532 -0.5394
 3187TIP3    H233757   2.866   1.028  11.082  0.5104 -1.6752  0.2343
 3188TIP3   OH233758   1.252   0.198  10.949  0.6981 -0.0490 -0.3754
 3188TIP3    H133759   1.173   0.187  10.896  0.3315  2.0402 -0.3511
 3188TIP3    H233760   1.278   0.289  10.935  2.8296 -0.5371  0.0251
 3189TIP3   OH233761   0.935   3.850  12.339 -0.0283  0.3616 -0.1365
 3189TIP3    H133762   0.884   3.886  12.267  0.8330  1.3380 -0.2869
 3189TIP3    H233763   0.984   3.777  12.300  0.3047  0.7791 -0.5150
 3190TIP3   OH233764   5.535   2.914   8.476 -0.4378  0.0032  0.0213
 3190TIP3    H133765   5.606   2.932   8.414 -0.2685 -0.1508  0.1706
 3190TIP3    H233766   5.469   2.867   8.424  0.5894 -2.0017  0.4137
 3191TIP3   OH233767   5.497   1.516   9.053  0.5888 -0.2587 -0.5122
 3191TIP3    H133768   5.445   1.442   9.021 -0.9336  0.8576 -0.7274
 3191TIP3    H233769   5.587   1.494   9.028  0.1293 -1.8684 -0.8767
 3192TIP3   OH233770   5.815   2.775   8.989  0.5405  0.0674  0.0107
 3192TIP3    H133771   5.873   2.749   9.061 -0.0212 -0.9720  0.1047
 3192TIP3    H233772   5.873   2.781   8.912  1.5177  3.0154  0.8228
 3193TIP3   OH233773   3.193   1.758  11.806 -0.1280  0.0477  0.1004
 3193TIP3    H133774   3.236   1.746  11.890  0.7604 -0.8009 -0.4654
 3193TIP3    H233775   3.102   1.780  11.829 -0.2437 -1.4789  1.2759
 3194TIP3   OH233776   6.122   1.757  11.021  0.2787 -0.4161  0.8991
 3194TIP3    H133777   6.081   1.710  11.094  2.6808 -1.6076  1.6081
 3194TIP3    H233778   6.153   1.839  11.060  1.1271 -0.8349  1.1345
 3195TIP3   OH233779   3.169   5.218   8.866 -0.0138  0.5796  0.1945
 3195TIP3    H133780   3.156   5.297   8.814  0.8018  1.1326  0.8066
 3195TIP3    H233781   3.103   5.223   8.935  1.8442  2.2771  2.0049
 3196TIP3   OH233782   0.952   4.484  10.433 -0.5864 -0.4028  0.1604
 3196TIP3    H133783   0.980   4.399  10.398 -1.0703 -0.3214 -0.4337
 3196TIP3    H233784   0.884   4.514  10.372  0.1851  0.8210 -0.1299
 3197TIP3   OH233785   3.737   0.923  10.526  0.6173 -0.0893  0.0501
 3197TIP3    H133786   3.710   0.907  10.616  1.2406  0.1401  0.2821
 3197TIP3    H233787   3.683   0.997  10.497 -0.0857 -0.6147 -0.0055
 3198TIP3   OH233788   5.187   3.150  11.972  0.7803 -0.2223  0.1576
 3198TIP3    H133789   5.265   3.108  11.935  0.0998 -1.6720  0.3045
 3198TIP3    H233790   5.137   3.078  12.010 -0.6692  0.6820  0.0261
 3199TIP3   OH233791   6.358   4.871  11.488  0.2900  0.4040  0.5661
 3199TIP3    H133792   6.377   4.808  11.558  0.9903 -0.0396 -0.0118
 3199TIP3    H233793   6.324   4.818  11.417  1.5641  0.5552 -0.1944
 3200TIP3   OH233794   3.928   1.525   9.772  0.0300 -0.2273  0.3322
 3200TIP3    H133795   3.884   1.493   9.851  0.9267 -1.4457  0.3780
 3200TIP3    H233796   3.890   1.472   9.702  1.1904 -1.1100  0.3396
 3201TIP3   OH233797   2.857   5.466  10.493  0.4977  0.5881  0.1665
 3201TIP3    H133798   2.893   5.459  10.581 -0.6839 -1.9374  0.5537
 3201TIP3    H233799   2.914   5.528  10.448  2.5855  0.1133  1.9979
 3202TIP3   OH233800   1.459   0.983  10.954  0.1797 -0.1010  0.3152
 3202TIP3    H133801   1.520   1.012  11.022 -0.6745  0.0499  1.0382
 3202TIP3    H233802   1.487   1.031  10.876 -0.6365  2.0601  1.2682
 3203TIP3   OH233803   4.530   3.977   9.092  0.1189  0.1103  0.6439
 3203TIP3    H133804   4.470   4.052   9.087  1.1371  1.1025  2.2792
 3203TIP3    H233805   4.616   4.014   9.072  0.3902 -1.0417 -0.4359
 3204TIP3   OH233806   2.539   1.839  10.699 -0.2588 -0.3807  0.2040
 3204TIP3    H133807   2.599   1.901  10.742  0.8536  0.7073 -2.6679
 3204TIP3    H233808   2.488   1.894  10.639 -3.1205 -1.5409  1.4051
 3205TIP3   OH233809   3.954   5.000   9.676  0.0649 -0.8613  0.3054
 3205TIP3    H133810   3.903   5.052   9.613  0.7503  0.0738  0.5097
 3205TIP3    H233811   3.888   4.964   9.735 -0.3920  0.3116  0.5484
 3206TIP3   OH233812   4.164   4.850  11.545 -0.4968  0.8299  0.0217
 3206TIP3    H133813   4.127   4.768  11.514 -0.2915  0.6448  0.2647
 3206TIP3    H233814   4.088   4.901  11.576 -0.7754  1.2459 -1.2814
 3207TIP3   OH233815   6.459   2.533   9.488  0.8273  0.0008 -0.2739
 3207TIP3    H133816   6.449   2.620   9.449 -0.0304  0.4837  0.9528
 3207TIP3    H233817   6.438   2.546   9.580  0.9359 -1.4678 -0.0216
 3208TIP3   OH233818   2.200   4.338  12.652 -0.1385 -0.3030  0.3213
 3208TIP3    H133819   2.239   4.274  12.592 -0.9858 -0.1729 -0.3931
 3208TIP3    H233820   2.108   4.340  12.627 -0.0339  1.5841 -0.0445
 3209TIP3   OH233821   5.730   1.230  11.010  0.0864  0.3917 -0.1256
 3209TIP3    H133822   5.683   1.308  11.041 -4.3245 -1.9315 -0.1282
 3209TIP3    H233823   5.743   1.177  11.088 -2.4625 -1.3277 -0.7239
 3210TIP3   OH233824   1.870   3.541   9.765 -0.2240  0.0279  0.1630
 3210TIP3    H133825   1.817   3.462   9.760  0.4898 -0.4400 -0.1668
 3210TIP3    H233826   1.934   3.523   9.833 -0.5124  0.6114  0.5979
 3211TIP3   OH233827   4.152   3.416  11.972  0.0285  0.3403  0.2425
 3211TIP3    H133828   4.132   3.499  11.929  1.8596 -0.2703 -1.9502
 3211TIP3    H233829   4.237   3.390  11.936 -0.1440 -2.1365  1.4249
 3212TIP3   OH233830   4.212   5.152  11.619 -0.1312  0.0353 -0.1242
 3212TIP3    H133831   4.231   5.075  11.565 -2.2975 -0.0716 -0.8391
 3212TIP3    H233832   4.298   5.188  11.641  1.0761 -3.2940  1.3423
 3213TIP3   OH233833   0.204   3.803  11.148 -0.4162  0.2329 -0.1015
 3213TIP3    H133834   0.290   3.846  11.143 -0.7054  1.0687  1.6329
 3213TIP3    H233835   0.214   3.725  11.093  1.1723  0.7723 -0.6506
 3214TIP3   OH233836   6.349   3.479  10.924  0.0486  0.1905 -0.0862
 3214TIP3    H133837   6.420   3.425  10.889  2.1013  1.7316  1.4352
 3214TIP3    H233838   6.285   3.416  10.957  1.1498 -1.2790 -0.6344
 3215TIP3   OH233839   1.407   5.095  12.131 -0.1539  0.2292  1.0547
 3215TIP3    H133840   1.458   5.053  12.062  0.8883  0.9891  1.3370
 3215TIP3    H233841   1.316   5.091  12.099  0.3073  0.6339 -0.3949
 3216TIP3   OH233842   2.416   1.850  12.161  0.1356 -0.0323  0.2187
 3216TIP3    H133843   2.371   1.773  12.195 -0.1332 -0.7010 -1.5574
 3216TIP3    H233844   2.403   1.917  12.229 -1.4858 -0.9036  0.8164
 3217TIP3   OH233845   2.655   4.043   9.755 -0.2922 -0.1087 -0.0332
 3217TIP3    H133846   2.594   3.971   9.766  0.3277 -0.6947 -0.3763
 3217TIP3    H233847   2.602   4.122   9.768 -1.5884 -0.5185 -2.3102
 3218TIP3   OH233848   0.837   3.109   8.557  0.1302  0.1474  0.4527
 3218TIP3    H133849   0.821   3.160   8.478 -0.3617  1.8361  1.5858
 3218TIP3    H233850   0.854   3.175   8.625  1.4055 -1.2763  1.5803
 3219TIP3   OH233851   5.811   5.444  10.201  0.4800  0.3559  0.3199
 3219TIP3    H133852   5.878   5.391  10.245  0.2720  0.6369  0.9844
 3219TIP3    H233853   5.739   5.449  10.263 -0.7751 -1.0985 -0.9078
 3220TIP3   OH233854   2.980   5.679  10.369 -0.0713  0.0445 -0.4216
 3220TIP3    H133855   2.985   5.740  10.296  0.9646 -0.7825 -1.0693
 3220TIP3    H233856   3.028   5.723  10.440 -1.4798  1.0508 -0.0440
 3221TIP3   OH233857   4.291   1.841  11.012 -0.3961  0.1470 -0.4750
 3221TIP3    H133858   4.204   1.879  11.024 -0.3697  0.4132 -1.0630
 3221TIP3    H233859   4.331   1.895  10.944 -0.4866 -1.1120 -1.5918
 3222TIP3   OH233860   3.452   4.982  10.193 -0.7391 -0.2853 -0.5572
 3222TIP3    H133861   3.425   4.913  10.132 -0.7417  0.8252 -1.8725
 3222TIP3    H233862   3.538   4.955  10.225 -0.6143 -0.7506 -1.2737
 3223TIP3   OH233863   3.532   3.771  11.734 -0.2105 -0.7698  0.2781
 3223TIP3    H133864   3.524   3.833  11.661 -0.0006 -0.3718  0.5871
 3223TIP3    H233865   3.614   3.725  11.718  0.0307 -0.4148  0.4552
 3224TIP3   OH233866   3.341   5.003  10.929  0.5106  0.2925  0.0623
 3224TIP3    H133867   3.250   4.976  10.921  0.7782 -0.8512  0.5681
 3224TIP3    H233868   3.387   4.923  10.956  1.4983  1.0906  0.8166
 3225TIP3   OH233869   0.208   3.323  10.711 -0.3840 -0.0583  0.3610
 3225TIP3    H133870   0.148   3.292  10.779  0.0577  0.3143  0.9259
 3225TIP3    H233871   0.291   3.279  10.731 -0.3841 -0.3429 -0.2405
 3226TIP3   OH233872   0.499   0.373   9.768 -0.2470  0.4876 -0.1205
 3226TIP3    H133873   0.519   0.286   9.736  1.0725  1.4358 -2.0016
 3226TIP3    H233874   0.504   0.365   9.864 -1.3326 -1.7181 -0.1836
 3227TIP3   OH233875   4.914   1.622   9.210 -0.1282 -0.1472 -0.0759
 3227TIP3    H133876   4.971   1.601   9.136 -0.4968  1.1059 -0.7275
 3227TIP3    H233877   4.857   1.692   9.179 -2.3044 -1.6045  0.4568
 3228TIP3   OH233878   5.208   3.721   9.802 -0.1747  1.0341 -0.6254
 3228TIP3    H133879   5.217   3.636   9.846 -0.2554  0.6266 -1.3761
 3228TIP3    H233880   5.287   3.769   9.827  0.0976  0.5613 -0.5675
 3229TIP3   OH233881   1.464   4.804  11.779 -0.6290  0.0844 -0.0543
 3229TIP3    H133882   1.442   4.717  11.745 -1.0096 -0.0084  0.4153
 3229TIP3    H233883   1.467   4.860  11.702 -0.6028 -0.3013 -0.3366
 3230TIP3   OH233884   5.012   5.268  10.303  0.0488  0.0614 -0.2115
 3230TIP3    H133885   4.959   5.331  10.352  1.1473  2.2804 -1.7090
 3230TIP3    H233886   4.967   5.184  10.315 -1.1401  0.9649  2.3870
 3231TIP3   OH233887   1.591   5.144  11.079  0.1120 -0.3320 -0.1278
 3231TIP3    H133888   1.502   5.139  11.044  0.2312 -1.7161 -0.3065
 3231TIP3    H233889   1.644   5.171  11.005 -0.2635  1.4898  0.2233
 3232TIP3   OH233890   5.581   6.341  10.746 -0.2308  0.0390  0.3529
 3232TIP3    H133891   5.531   6.376  10.673 -1.2136  2.4868  2.0599
 3232TIP3    H233892   5.672   6.350  10.718 -0.5957  0.5155 -0.7554
 3233TIP3   OH233893   6.602   3.663  11.244  0.0966 -0.4749  0.2925
 3233TIP3    H133894   6.657   3.726  11.198  0.0730  0.5442  1.6007
 3233TIP3    H233895   6.516   3.706  11.248 -0.4680 -1.4730 -0.5491
 3234TIP3   OH233896   5.656   3.358   9.717 -0.5007 -0.8326 -0.1317
 3234TIP3    H133897   5.660   3.294   9.647  0.1034  0.4280 -1.2979
 3234TIP3    H233898   5.738   3.348   9.765 -0.6612 -1.3008  0.0511
 3235TIP3   OH233899   2.629   1.159  10.718 -0.0100  0.1651 -0.0653
 3235TIP3    H133900   2.608   1.066  10.723 -2.0997  0.6218  0.2463
 3235TIP3    H233901   2.688   1.166  10.643  0.0879 -1.3818 -0.1649
 3236TIP3   OH233902   4.092   5.955  10.346  0.1604 -0.0952 -0.1514
 3236TIP3    H133903   4.087   6.040  10.392 -0.1780 -0.0029 -0.3540
 3236TIP3    H233904   4.062   5.892  10.411  1.8929 -0.2782  0.5240
 3237TIP3   OH233905   1.602   5.243  10.234  0.4042 -0.4028 -0.2068
 3237TIP3    H133906   1.612   5.338  10.248  2.0135 -0.4494 -0.8725
 3237TIP3    H233907   1.656   5.224  10.158 -0.8769 -1.6837 -0.8466
 3238TIP3   OH233908   5.152   1.988  10.584 -0.3648 -0.0234 -0.1395
 3238TIP3    H133909   5.200   2.070  10.571 -1.5555  0.4945 -1.5551
 3238TIP3    H233910   5.197   1.925  10.527 -0.9310  0.2921 -0.9524
 3239TIP3   OH233911   3.221   1.754  10.361 -0.4657  0.1517  0.5063
 3239TIP3    H133912   3.263   1.839  10.374 -1.8532  1.1887 -1.2648
 3239TIP3    H233913   3.212   1.746  10.266  1.4180 -2.9534  0.4409
 3240TIP3   OH233914   1.697   4.183  11.345  0.3947 -0.0325  0.3396
 3240TIP3    H133915   1.673   4.133  11.267 -0.8666  1.7501 -0.4890
 3240TIP3    H233916   1.792   4.193  11.339  0.3977 -0.5174 -0.5960
 3241TIP3   OH233917   3.699   0.656  12.483  0.4207  0.0633  0.1229
 3241TIP3    H133918   3.770   0.603  12.518  0.6563  0.3648  0.1061
 3241TIP3    H233919   3.742   0.734  12.448  0.2300 -0.3902 -1.1811
 3242TIP3   OH233920   3.450   3.579   9.612 -0.4960 -0.1778 -0.2120
 3242TIP3    H133921   3.380   3.576   9.678 -1.3882  0.2133 -1.1162
 3242TIP3    H233922   3.490   3.492   9.616  1.2729  0.5972  2.6973
 3243TIP3   OH233923   0.594   4.870  11.568 -0.5975 -0.1604  0.3434
 3243TIP3    H133924   0.510   4.847  11.527 -1.6694  1.7688  1.2752
 3243TIP3    H233925   0.654   4.881  11.494 -0.8864 -2.3604 -0.3005
 3244TIP3   OH233926   4.393   5.228  12.569 -0.6214 -0.2250  0.0689
 3244TIP3    H133927   4.413   5.140  12.601  1.2796 -0.6089 -1.9127
 3244TIP3    H233928   4.305   5.221  12.532 -0.9193 -1.0019  0.9047
 3245TIP3   OH233929   5.199   3.861  11.396 -0.2764 -0.2298 -0.0628
 3245TIP3    H133930   5.114   3.817  11.388  0.6689 -1.9156 -1.7166
 3245TIP3    H233931   5.263   3.792  11.382  1.3599  1.2688 -0.3481
 3246TIP3   OH233932   4.779   5.089   8.684  0.0015  0.6741  0.0391
 3246TIP3    H133933   4.860   5.065   8.640  1.1478  1.9541  1.3441
 3246TIP3    H233934   4.778   5.185   8.682 -2.6191  0.7046 -1.8912
 3247TIP3   OH233935   1.043   5.301  10.431 -0.2470 -1.1371  0.2208
 3247TIP3    H133936   1.060   5.331  10.342 -1.8538 -1.8044 -0.3592
 3247TIP3    H233937   1.121   5.253  10.457  1.2267  1.0527  0.1050
 3248TIP3   OH233938   2.951   5.936  10.221 -0.0460 -0.0464 -0.1430
 3248TIP3    H133939   2.957   5.999  10.149 -1.4615  2.1161  1.4895
 3248TIP3    H233940   2.875   5.883  10.200  0.6865 -0.7347 -1.1473
 3249TIP3   OH233941   1.769   5.727  10.933  0.0919  0.1524 -0.1005
 3249TIP3    H133942   1.810   5.643  10.913  0.8522 -0.0257  1.9682
 3249TIP3    H233943   1.676   5.706  10.947 -0.0212 -0.0641 -1.0918
 3250TIP3   OH233944   1.679   1.748  10.358 -0.3119  0.6050  0.2427
 3250TIP3    H133945   1.744   1.798  10.309  0.3259  0.8024  1.2626
 3250TIP3    H233946   1.709   1.657  10.352 -1.3285  0.3239 -1.3869
 3251TIP3   OH233947   1.637   5.811   9.945 -0.1646 -0.2626  0.5727
 3251TIP3    H133948   1.605   5.722   9.955 -0.6454 -0.3331 -1.3061
 3251TIP3    H233949   1.730   5.806   9.968 -0.3783 -1.0548  1.2966
 3252TIP3   OH233950   5.640   3.337  11.434  0.2742 -0.0923 -0.1283
 3252TIP3    H133951   5.657   3.279  11.508  0.3970 -2.6383 -2.0008
 3252TIP3    H233952   5.706   3.407  11.442  0.9367 -0.8640  1.5656
 3253TIP3   OH233953   2.246   5.914  10.463 -0.1785 -0.1686 -0.3025
 3253TIP3    H133954   2.191   5.865  10.402 -0.3776  0.0428 -0.2921
 3253TIP3    H233955   2.336   5.887  10.442 -0.0299  1.5854 -2.2199
 3254TIP3   OH233956   3.757   2.757  11.362  0.2382  0.1988  0.1120
 3254TIP3    H133957   3.840   2.710  11.366  0.4894  0.7405  1.8877
 3254TIP3    H233958   3.703   2.704  11.303  1.0664 -1.4191  0.7412
 3255TIP3   OH233959   5.552   4.967  12.033 -0.2510 -0.6686 -0.4359
 3255TIP3    H133960   5.642   4.972  12.001 -0.1922 -0.8448 -0.2993
 3255TIP3    H233961   5.516   4.887  11.993 -0.2091 -0.8345 -0.1446
 3256TIP3   OH233962   3.401   1.527  10.415 -0.6034 -0.0600  0.6562
 3256TIP3    H133963   3.352   1.449  10.389  0.1640 -0.1796 -0.4943
 3256TIP3    H233964   3.347   1.600  10.386 -0.5558 -0.1796  0.2682
 3257TIP3   OH233965   3.539   0.142  10.840  0.4467  0.5545  0.2355
 3257TIP3    H133966   3.578   0.193  10.911 -0.6352 -0.4250  1.5708
 3257TIP3    H233967   3.470   0.091  10.881 -0.7816  0.5750 -1.6722
 3258TIP3   OH233968   1.877   1.254   9.931  0.1566 -0.1837  0.3281
 3258TIP3    H133969   1.903   1.311  10.004 -0.3601  1.2598 -0.5564
 3258TIP3    H233970   1.800   1.297   9.894 -0.1760 -1.4226 -0.4631
 3259TIP3   OH233971   2.391   6.068   9.277  0.0645  0.1885 -0.3700
 3259TIP3    H133972   2.359   6.130   9.342  0.8441 -0.0244  0.2296
 3259TIP3    H233973   2.314   6.015   9.254 -0.1854  0.1739  0.4833
 3260TIP3   OH233974   3.950   4.061  11.565 -0.9017  0.3588 -0.3986
 3260TIP3    H133975   3.939   3.979  11.612  1.1040  1.0516  1.5002
 3260TIP3    H233976   3.920   4.128  11.627  2.2256  1.3402  0.2140
 3261TIP3   OH233977   4.706   6.494  10.683  0.9069 -0.0299  0.2685
 3261TIP3    H133978   4.754   6.456  10.756  1.4921 -0.4992 -0.3425
 3261TIP3    H233979   4.708   6.588  10.699 -0.4952 -0.2034  1.7625
 3262TIP3   OH233980   1.492   0.493   9.315  0.2094 -0.4792 -0.6042
 3262TIP3    H133981   1.497   0.457   9.403 -0.9099 -1.2783 -0.8464
 3262TIP3    H233982   1.542   0.575   9.320 -1.1918  0.3471  1.2129
 3263TIP3   OH233983   2.593   2.279  12.444 -0.0914 -0.3629  1.0870
 3263TIP3    H133984   2.507   2.314  12.420 -0.8151 -2.7932 -0.2767
 3263TIP3    H233985   2.644   2.356  12.468 -1.4617  1.6610 -1.7748
 3264TIP3   OH233986   6.405   4.607  10.680  0.0071 -0.0567 -0.0016
 3264TIP3    H133987   6.462   4.632  10.608 -0.0409 -2.7247 -1.0882
 3264TIP3    H233988   6.463   4.599  10.755  0.2252  1.7799  0.0610
 3265TIP3   OH233989   3.306   2.893  10.637  0.3593 -0.1178 -0.0629
 3265TIP3    H133990   3.393   2.919  10.608  1.5010 -0.7915  2.4878
 3265TIP3    H233991   3.282   2.959  10.702 -2.1321  1.3847 -2.3022
 3266TIP3   OH233992   4.225   0.397   8.792  0.6629 -0.0757  0.0275
 3266TIP3    H133993   4.148   0.382   8.845 -1.2681  3.2903 -1.5160
 3266TIP3    H233994   4.269   0.472   8.832  0.8453  0.5998 -1.3557
 3267TIP3   OH233995   6.257   5.120  10.402 -0.5253  0.7004  0.2120
 3267TIP3    H133996   6.167   5.094  10.422 -0.5548 -0.2103 -0.9499
 3267TIP3    H233997   6.258   5.130  10.306  0.2918  1.9813  0.3354
 3268TIP3   OH233998   3.684   1.204  12.095  0.3250 -0.2197 -0.1582
 3268TIP3    H133999   3.599   1.204  12.137  0.3787  0.0842 -0.0460
 3268TIP3    H234000   3.738   1.263  12.149  1.0209 -1.4979  0.5968
 3269TIP3   OH234001   2.419   2.174  11.312 -0.1731  0.0845  0.5082
 3269TIP3    H134002   2.344   2.121  11.285  0.4900 -0.6510  0.0372
 3269TIP3    H234003   2.488   2.110  11.332  0.5152  0.7539  0.3555
 3270TIP3   OH234004   0.456   4.296   8.947  0.0621 -0.5337  0.4577
 3270TIP3    H134005   0.363   4.271   8.942  0.1749 -1.0352  0.7479
 3270TIP3    H234006   0.497   4.252   8.873  0.0708 -0.3056  0.3244
 3271TIP3   OH234007   2.449   5.779   9.952  0.2826  0.0260  0.3572
 3271TIP3    H134008   2.469   5.699   9.903 -0.4790 -0.7705  1.2927
 3271TIP3    H234009   2.459   5.754  10.044  0.1041  1.0295  0.6638
 3272TIP3   OH234010   3.448   4.592  11.883 -0.0844  0.0310 -0.2555
 3272TIP3    H134011   3.473   4.502  11.860 -1.4175 -0.4176 -0.0357
 3272TIP3    H234012   3.363   4.583  11.925  0.9390  1.1351  2.2425
 3273TIP3   OH234013   1.522   2.560  11.563  0.2374  0.0859  0.5569
 3273TIP3    H134014   1.567   2.643  11.579  0.7310 -0.0212 -0.2287
 3273TIP3    H234015   1.460   2.580  11.494 -1.6739  0.4752  2.2862
 3274TIP3   OH234016   3.176   4.638  12.297  0.0729  0.0643 -0.5523
 3274TIP3    H134017   3.252   4.634  12.240  0.9512  0.8914  0.5060
 3274TIP3    H234018   3.160   4.547  12.322  2.0890  0.0454  0.9150
 3275TIP3   OH234019   3.163   4.783   9.577 -0.0680  0.1764 -0.1545
 3275TIP3    H134020   3.178   4.798   9.484 -0.4836  0.7303 -0.1344
 3275TIP3    H234021   3.221   4.844   9.621 -1.5227  1.5730 -0.0743
 3276TIP3   OH234022   3.687   0.032  10.631  0.1180 -0.8571 -0.1442
 3276TIP3    H134023   3.751  -0.022  10.677  1.1117  0.6335  0.2786
 3276TIP3    H234024   3.668   0.104  10.691  2.4533  1.9049 -2.4490
 3277TIP3   OH234025   3.343   5.289   9.053  0.6975 -0.9602  0.0886
 3277TIP3    H134026   3.390   5.369   9.031  0.2141 -1.0224 -1.2723
 3277TIP3    H234027   3.298   5.264   8.972  0.1620 -2.1467  0.7167
 3278TIP3   OH234028   4.637   3.947  11.308  0.5437  0.1446 -0.0001
 3278TIP3    H134029   4.712   3.986  11.354 -0.0749  0.3774  0.8482
 3278TIP3    H234030   4.581   4.021  11.285 -0.2847 -0.1541  0.9731
 3279TIP3   OH234031   1.248   3.784   9.194 -0.4101  0.0408  0.0580
 3279TIP3    H134032   1.335   3.813   9.221 -0.2301  0.5793 -1.0502
 3279TIP3    H234033   1.191   3.858   9.214 -0.6381 -0.3331  0.8361
 3280TIP3   OH234034   0.737   0.657  12.076 -0.2695 -0.8256 -0.4296
 3280TIP3    H134035   0.713   0.742  12.112  2.0567 -1.1444  2.1935
 3280TIP3    H234036   0.696   0.594  12.135 -2.1224 -1.6344 -2.4436
 3281TIP3   OH234037   1.468   1.554  11.085 -0.8811 -0.1734 -0.2950
 3281TIP3    H134038   1.413   1.476  11.076 -2.4135  0.1770  3.8130
 3281TIP3    H234039   1.406   1.625  11.103  0.7192  1.0316  0.7191
 3282TIP3   OH234040   6.098   0.712  11.246 -0.3305 -0.1678  0.2124
 3282TIP3    H134041   6.124   0.648  11.180 -1.6770 -0.5721  0.0477
 3282TIP3    H234042   6.062   0.660  11.318  2.6334  0.1242  2.0993
 3283TIP3   OH234043   5.377   0.783  12.133 -0.1574 -0.2140 -0.0515
 3283TIP3    H134044   5.415   0.718  12.074 -0.8666  1.2384 -2.2509
 3283TIP3    H234045   5.307   0.824  12.082 -0.3325  1.6335  1.5397
 3284TIP3   OH234046   0.098   6.508  11.632 -0.2342  0.9071 -0.5303
 3284TIP3    H134047   0.092   6.432  11.575  2.2035  0.1538  0.0837
 3284TIP3    H234048   0.124   6.580  11.574 -0.1523  0.7131 -0.7348
 3285TIP3   OH234049   6.450   5.033  12.119 -0.0987  0.2235  0.2580
 3285TIP3    H134050   6.474   5.100  12.183 -0.2920 -0.4072  1.0162
 3285TIP3    H234051   6.492   4.953  12.152  0.3036  0.0089 -0.7410
 3286TIP3   OH234052   1.122   1.187  11.102 -0.1413 -0.0610  0.0916
 3286TIP3    H134053   1.081   1.101  11.107 -1.3373  0.4264 -0.6639
 3286TIP3    H234054   1.094   1.232  11.181 -0.5105  0.0290 -0.0862
 3287TIP3   OH234055   1.214   4.957  11.324  0.0017  0.7121  0.6105
 3287TIP3    H134056   1.194   5.031  11.381  0.4250  0.3112  1.2905
 3287TIP3    H234057   1.195   4.880  11.377 -1.7873  0.2994 -0.5488
 3288TIP3   OH234058   1.946   1.181   8.981 -0.3418  0.1116 -0.0443
 3288TIP3    H134059   2.024   1.217   9.023  0.4153 -1.0311 -0.4159
 3288TIP3    H234060   1.955   1.207   8.889  1.2824 -2.5998 -0.7684
 3289TIP3   OH234061   5.179   0.158  11.956  0.0044 -0.1205 -0.6140
 3289TIP3    H134062   5.142   0.170  12.044  1.6275 -0.0802  0.1113
 3289TIP3    H234063   5.104   0.135  11.901 -0.8531 -1.8158  1.1240
 3290TIP3   OH234064   4.761   0.996   9.835  0.0380 -0.3237 -0.4191
 3290TIP3    H134065   4.727   1.080   9.865 -0.4417  0.1597 -2.1722
 3290TIP3    H234066   4.751   0.937   9.910 -3.1911  0.1956 -0.3300
 3291TIP3   OH234067   3.675   1.893  12.409 -0.4977 -0.5266 -0.3819
 3291TIP3    H134068   3.655   1.946  12.332 -0.7874 -1.2698 -0.8282
 3291TIP3    H234069   3.728   1.950  12.464 -2.4090  0.9111  0.0489
 3292TIP3   OH234070   1.070   0.730  10.253  0.2758  0.2035  0.9801
 3292TIP3    H134071   1.072   0.781  10.333 -0.5717 -2.9610  3.2103
 3292TIP3    H234072   0.987   0.682  10.256  1.3446 -1.9337 -0.4207
 3293TIP3   OH234073   3.023   4.414  12.258 -0.1777  0.3268 -0.0938
 3293TIP3    H134074   3.032   4.366  12.176 -1.4623  1.5153 -0.9597
 3293TIP3    H234075   2.984   4.351  12.319  0.7464 -0.5472 -0.3790
 3294TIP3   OH234076   1.188   5.359  11.354  0.3990  0.3949 -0.7549
 3294TIP3    H134077   1.279   5.329  11.352 -0.2915 -2.1315  0.8055
 3294TIP3    H234078   1.189   5.435  11.413  1.1838 -1.0779  1.2133
 3295TIP3   OH234079   1.506   6.178  10.080 -0.1153 -0.3102  0.2553
 3295TIP3    H134080   1.511   6.182  10.175 -0.4106 -2.1456  0.3769
 3295TIP3    H234081   1.426   6.127  10.063 -0.7282  1.0083 -1.0027
 3296TIP3   OH234082   0.152   2.761  11.271  0.2199 -0.2542  0.2337
 3296TIP3    H134083   0.127   2.849  11.298 -0.1688  0.4241 -2.1452
 3296TIP3    H234084   0.161   2.712  11.354 -0.5604  1.7145  1.5478
 3297TIP3   OH234085   0.358   4.214  11.078  0.0663  0.0291  0.7797
 3297TIP3    H134086   0.350   4.178  11.167  2.2053 -1.8453  0.3167
 3297TIP3    H234087   0.404   4.145  11.029  1.4869  2.1409 -1.0417
 3298TIP3   OH234088   5.727   0.382   9.078  0.8297 -0.3271 -0.1587
 3298TIP3    H134089   5.785   0.408   9.005  2.1704 -1.4746  0.4567
 3298TIP3    H234090   5.725   0.287   9.074 -0.9891 -0.3202 -0.0894
 3299TIP3   OH234091   2.117   0.750   9.537 -0.1162  0.5379 -0.6801
 3299TIP3    H134092   2.094   0.718   9.624  2.4878 -1.2877 -0.5590
 3299TIP3    H234093   2.147   0.840   9.553  0.2769  0.2516  0.3037
 3300TIP3   OH234094   6.018   5.540  12.102 -0.2011  0.0697 -0.4256
 3300TIP3    H134095   5.962   5.547  12.025 -1.0741  2.2195  0.3335
 3300TIP3    H234096   6.052   5.629  12.115  0.9070 -0.5159  0.9514
 3301TIP3   OH234097   3.916   4.948  10.114 -0.1027 -0.3846  0.1839
 3301TIP3    H134098   3.924   4.975  10.205 -0.7298 -0.5993  0.3111
 3301TIP3    H234099   3.985   4.884  10.101 -0.6156 -1.0758  0.7921
 3302TIP3   OH234100   3.222   1.420  10.075  0.3253 -0.0729 -0.6456
 3302TIP3    H134101   3.180   1.365  10.009  0.6827 -0.4707 -0.5446
 3302TIP3    H234102   3.312   1.387  10.081  0.0489 -0.6574  0.7052
 3303TIP3   OH234103   4.731   3.086  11.536 -0.3748 -0.0201  0.1398
 3303TIP3    H134104   4.749   3.176  11.563  1.0087  0.0384 -0.8394
 3303TIP3    H234105   4.765   3.032  11.608  1.5881  0.1873 -0.5594
 3304TIP3   OH234106   2.745   1.274  11.601  0.4981 -0.1220  0.1788
 3304TIP3    H134107   2.808   1.275  11.672 -0.0268 -0.2470  0.6505
 3304TIP3    H234108   2.665   1.240  11.640  0.3211 -0.5902 -0.5722
 3305TIP3   OH234109   5.860   1.473   9.440  0.1504  0.0971 -0.1980
 3305TIP3    H134110   5.903   1.388   9.449  1.1386  0.7116  1.3262
 3305TIP3    H234111   5.931   1.534   9.421 -0.4832  0.6503 -0.8171
 3306TIP3   OH234112   3.147   4.495  11.899 -0.4209  0.0236 -0.2809
 3306TIP3    H134113   3.070   4.522  11.849 -0.6872 -0.1588  0.0258
 3306TIP3    H234114   3.111   4.454  11.977 -0.0054  0.8210  0.3415
 3307TIP3   OH234115   6.597   5.726   9.488 -0.1646  0.4540 -0.4291
 3307TIP3    H134116   6.610   5.785   9.414  0.4250 -0.5073 -1.1226
 3307TIP3    H234117   6.517   5.679   9.466  0.5963 -0.6118 -1.0292
 3308TIP3   OH234118   6.024   4.357   9.485  0.2228 -0.3813  0.1803
 3308TIP3    H134119   6.026   4.334   9.392  0.4947  0.2637  0.0242
 3308TIP3    H234120   5.944   4.317   9.517 -1.0745  1.2643 -0.8354
 3309TIP3   OH234121   5.551   2.654   9.315 -0.0052 -0.3923  0.3578
 3309TIP3    H134122   5.539   2.589   9.383 -0.1297 -1.4912 -0.6760
 3309TIP3    H234123   5.602   2.724   9.356 -1.3696 -0.3078  1.9850
 3310TIP3   OH234124   5.514   0.454  11.535 -0.0965 -0.1759  0.0733
 3310TIP3    H134125   5.577   0.407  11.479  0.8252  1.2804 -0.1624
 3310TIP3    H234126   5.433   0.404  11.526  0.6344 -1.2806 -0.7572
 3311TIP3   OH234127   4.362   6.461  10.994 -0.3116 -0.4980  0.1739
 3311TIP3    H134128   4.297   6.463  10.924 -0.2247 -1.8754  0.0274
 3311TIP3    H234129   4.420   6.388  10.971 -0.0539 -0.7244  1.4685
 3312TIP3   OH234130   3.585   6.013   9.631  0.1860  0.5903  0.1506
 3312TIP3    H134131   3.591   5.923   9.598 -3.7884  1.1250 -2.8329
 3312TIP3    H234132   3.548   6.004   9.719  1.3039 -0.6599  0.5317
 3313TIP3   OH234133   3.179   2.420  11.066  0.1795 -0.1395  0.0641
 3313TIP3    H134134   3.234   2.498  11.058 -1.3648  1.0297  0.3525
 3313TIP3    H234135   3.092   2.449  11.038 -0.9738 -1.1222  2.3963
 3314TIP3   OH234136   5.135   4.288   9.388 -0.0649  0.0581  0.6057
 3314TIP3    H134137   5.185   4.345   9.330  1.4070 -0.7818  0.9957
 3314TIP3    H234138   5.048   4.283   9.349  0.4693  0.6886 -0.7042
 3315TIP3   OH234139   4.526   3.767  11.734  0.0677  0.6172 -0.1337
 3315TIP3    H134140   4.541   3.860  11.717  1.5926  0.4992  0.4123
 3315TIP3    H234141   4.494   3.764  11.824  2.5136  0.4928  0.8262
 3316TIP3   OH234142   2.841   1.842   9.933 -0.2159 -0.1066 -0.5062
 3316TIP3    H134143   2.929   1.805   9.931 -0.1817 -0.0414 -0.2165
 3316TIP3    H234144   2.854   1.933   9.958 -0.6349 -0.9767  3.5275
 3317TIP3   OH234145   2.903   4.577  11.812  0.1487  0.0302  0.1462
 3317TIP3    H134146   2.869   4.516  11.747  1.8182 -1.3648  0.4947
 3317TIP3    H234147   2.866   4.662  11.788  1.2860 -0.2561 -3.1207
 3318TIP3   OH234148   5.004   1.766  10.155  0.3804 -0.1191  0.2093
 3318TIP3    H134149   4.922   1.717  10.156  0.0406  0.4318  1.4920
 3318TIP3    H234150   5.012   1.802  10.243  1.8651  0.0808  0.0303
 3319TIP3   OH234151   1.488   5.761  12.085  0.0851  0.5335 -0.0460
 3319TIP3    H134152   1.400   5.784  12.115 -1.9677 -0.6214 -4.3170
 3319TIP3    H234153   1.498   5.668  12.106 -0.0047  0.5044 -0.1304
 3320TIP3   OH234154   4.775   5.079  10.888 -0.4175 -0.8679 -0.5466
 3320TIP3    H134155   4.802   5.148  10.828  1.8537 -0.2984  0.9952
 3320TIP3    H234156   4.692   5.047  10.853 -3.0034  4.3194  0.0197
 3321TIP3   OH234157   4.610   5.361   9.820 -0.3448  0.4373 -0.2657
 3321TIP3    H134158   4.551   5.318   9.882 -1.1813  1.9213  0.0297
 3321TIP3    H234159   4.624   5.296   9.751 -0.8354 -0.6076  0.5818
 3322TIP3   OH234160   4.429   2.701  10.074  0.1733 -0.7929  0.0721
 3322TIP3    H134161   4.377   2.756  10.015  1.6027  0.9612  0.3413
 3322TIP3    H234162   4.376   2.695  10.154 -0.4049 -0.5603 -0.2839
 3323TIP3   OH234163   1.295   4.031  10.798 -0.2735 -0.4280  0.0249
 3323TIP3    H134164   1.266   3.944  10.769  0.9409 -0.5494 -0.8899
 3323TIP3    H234165   1.239   4.092  10.750 -0.0978 -0.6891 -0.5266
 3324TIP3   OH234166   0.440   3.518  11.833  0.6322  0.0751  0.2149
 3324TIP3    H134167   0.379   3.536  11.905  0.2245 -0.6435  0.0525
 3324TIP3    H234168   0.523   3.499  11.876  0.4910  0.0606  0.4808
 3325TIP3   OH234169   5.561   6.536  12.406  0.1595  0.1721  0.3225
 3325TIP3    H134170   5.652   6.510  12.388  0.1135 -0.2617  0.6828
 3325TIP3    H234171   5.567   6.628  12.431  0.5380  0.0742  0.6031
 3326TIP3   OH234172   1.152   1.065  12.218  0.0352 -0.1648  0.2885
 3326TIP3    H134173   1.068   1.109  12.208  0.3319  0.3971  0.1985
 3326TIP3    H234174   1.212   1.116  12.165  0.2277 -1.1727 -0.4867
 3327TIP3   OH234175   5.927   6.139  11.937 -0.7899 -0.1018 -0.5445
 3327TIP3    H134176   5.861   6.079  11.903 -0.7936 -0.3884 -0.0387
 3327TIP3    H234177   5.996   6.140  11.870  0.0488 -2.0500  0.2249
 3328TIP3   OH234178   1.940   4.783  10.288  0.1761  0.0691  0.3361
 3328TIP3    H134179   2.027   4.761  10.252  0.3036 -0.5099  0.9789
 3328TIP3    H234180   1.881   4.772  10.214  0.5236 -0.4957  0.1327
 3329TIP3   OH234181   0.475   3.875  11.159 -0.3831  0.3710  0.3452
 3329TIP3    H134182   0.525   3.947  11.119 -0.3478 -0.2689 -0.8083
 3329TIP3    H234183   0.519   3.859  11.242  1.3170 -0.1082 -0.5913
 3330TIP3   OH234184   2.523   1.405  10.774  0.1827 -0.3778 -0.0557
 3330TIP3    H134185   2.554   1.420  10.863  3.2613  1.0271 -1.2216
 3330TIP3    H234186   2.542   1.313  10.756 -0.4663 -0.6698  0.7144
 3331TIP3   OH234187   3.690   2.469  10.879 -0.3175 -0.2347  0.0566
 3331TIP3    H134188   3.740   2.510  10.949 -1.9086 -1.3024  1.9167
 3331TIP3    H234189   3.749   2.402  10.843 -0.0108 -0.7613  1.4919
 3332TIP3   OH234190   5.879   6.600   9.903 -0.3445 -0.0348  0.2286
 3332TIP3    H134191   5.838   6.556   9.828  1.0127  0.9106 -1.1381
 3332TIP3    H234192   5.908   6.528   9.960 -0.8387 -0.8062 -0.4729
 3333TIP3   OH234193   3.983   5.879  12.223  0.0189  0.1309  0.0383
 3333TIP3    H134194   4.063   5.836  12.252 -0.5885 -1.3591 -0.4299
 3333TIP3    H234195   3.957   5.831  12.145 -0.6265  1.4498 -0.5940
 3334TIP3   OH234196   2.291   0.189  10.427  0.0622 -0.2434 -0.4738
 3334TIP3    H134197   2.377   0.212  10.462  0.3948 -2.4259  0.3010
 3334TIP3    H234198   2.234   0.186  10.503 -0.7243  1.1363 -0.9783
 3335TIP3   OH234199   0.259   5.177  11.393  0.1964 -0.8594 -0.2608
 3335TIP3    H134200   0.304   5.234  11.332 -0.1052 -0.6416 -0.2815
 3335TIP3    H234201   0.270   5.219  11.478  0.0031 -0.7905 -0.2710
 3336TIP3   OH234202   4.959   6.202  11.929  0.5116  0.3293 -0.2680
 3336TIP3    H134203   5.045   6.195  11.971 -0.2975 -1.7626  1.2021
 3336TIP3    H234204   4.965   6.145  11.852  0.5749  0.5171 -0.4018
 3337TIP3   OH234205   3.198   1.298  10.384  0.7937 -0.4476 -0.5170
 3337TIP3    H134206   3.223   1.312  10.475  0.7689  0.3874 -0.6315
 3337TIP3    H234207   3.109   1.333  10.378  0.7837 -0.5259 -0.8567
 3338TIP3   OH234208   5.966   5.246   9.758 -0.2047  0.3878 -0.0051
 3338TIP3    H134209   6.013   5.267   9.839  0.0330 -1.2681  0.3315
 3338TIP3    H234210   5.966   5.327   9.708 -0.0713  1.3678  1.5108
 3339TIP3   OH234211   6.387   1.222   9.812  0.5291  0.0680  0.1191
 3339TIP3    H134212   6.441   1.235   9.889  1.2417 -0.1809 -0.3260
 3339TIP3    H234213   6.422   1.283   9.747 -1.2767  1.6598  0.5663
 3340TIP3   OH234214   4.811   4.572   9.833 -0.3241  0.2200 -0.3972
 3340TIP3    H134215   4.746   4.587   9.765 -1.6708  0.0540  0.7942
 3340TIP3    H234216   4.893   4.556   9.786 -1.2286  0.0219 -1.9606
 3341TIP3   OH234217   2.627   6.568   8.754  0.3085  0.1893 -0.1690
 3341TIP3    H134218   2.554   6.577   8.815 -0.4944 -1.1589 -0.8928
 3341TIP3    H234219   2.662   6.481   8.771 -0.6770 -0.7102 -2.3618
 3342TIP3   OH234220   6.453   0.771  12.223 -0.0201 -0.0305  0.5315
 3342TIP3    H134221   6.398   0.698  12.192 -0.0475 -0.7479  2.1830
 3342TIP3    H234222   6.537   0.731  12.244  0.0264  0.4403  1.2817
 3343TIP3   OH234223   6.088   4.527   9.122 -0.7099 -0.1154 -1.0353
 3343TIP3    H134224   6.039   4.454   9.158 -0.4157 -0.3099 -1.0271
 3343TIP3    H234225   6.058   4.603   9.171 -1.4826 -0.1269 -1.4767
 3344TIP3   OH234226   1.278   1.817  11.235  0.4672  0.6394  0.0071
 3344TIP3    H134227   1.240   1.861  11.159 -0.7382  1.3848  0.9918
 3344TIP3    H234228   1.365   1.855  11.244  1.3763 -0.7620 -2.0318
 3345TIP3   OH234229   6.096   2.222  10.063  0.0522 -0.3210  0.3667
 3345TIP3    H134230   6.039   2.187   9.994  0.6399 -0.8662  0.1587
 3345TIP3    H234231   6.093   2.157  10.132  0.4001 -0.3354  0.3682
 3346TIP3   OH234232   2.040   4.571   9.929  0.4562  0.5084  0.0432
 3346TIP3    H134233   2.073   4.499   9.875  0.7863  0.6243  0.0862
 3346TIP3    H234234   1.955   4.541   9.961 -0.4385  1.0198 -1.7363
 3347TIP3   OH234235   4.527   1.023   9.704  0.0003 -0.2348  0.3741
 3347TIP3    H134236   4.506   0.935   9.671 -1.7329 -1.0256  3.1917
 3347TIP3    H234237   4.594   1.008   9.770  2.0877  1.0671 -1.3279
 3348TIP3   OH234238   5.612   5.851  11.028 -0.0741 -0.1379  0.4423
 3348TIP3    H134239   5.610   5.891  10.941 -0.3079 -0.1724  0.4334
 3348TIP3    H234240   5.646   5.763  11.013 -1.0230 -0.4807  0.2558
 3349TIP3   OH234241   1.983   1.293  10.187  0.4282  0.2075 -0.5699
 3349TIP3    H134242   2.075   1.309  10.164  0.3446  1.8027  0.0815
 3349TIP3    H234243   1.969   1.345  10.266 -1.4554  1.2632 -1.5363
 3350TIP3   OH234244   2.608   3.849  10.487  0.0570  0.3859  0.3322
 3350TIP3    H134245   2.591   3.891  10.403 -0.4187 -2.6708 -1.2122
 3350TIP3    H234246   2.529   3.866  10.539 -0.8649 -0.0762 -0.8795
 3351TIP3   OH234247   3.919   3.325   9.333 -0.4325 -0.2238  0.0798
 3351TIP3    H134248   3.975   3.309   9.409 -0.6434 -0.3891  0.2030
 3351TIP3    H234249   3.830   3.325   9.369 -0.5008  0.2410 -0.0821
 3352TIP3   OH234250   5.535   5.533  10.931 -0.2386  0.4042 -0.0875
 3352TIP3    H134251   5.487   5.455  10.904  0.1009  0.7596 -1.8505
 3352TIP3    H234252   5.539   5.587  10.853  0.2899  1.8155  0.8692
 3353TIP3   OH234253   2.268   3.377   9.398  0.0414 -0.1282  0.3208
 3353TIP3    H134254   2.336   3.423   9.349  1.0687 -1.1388  0.7475
 3353TIP3    H234255   2.205   3.445   9.421  0.2285  0.6104 -1.1973
 3354TIP3   OH234256   4.384   0.731  12.604  0.3354 -0.4661 -0.5049
 3354TIP3    H134257   4.459   0.676  12.583  1.0282  0.0419  0.6016
 3354TIP3    H234258   4.421   0.811  12.640 -0.7252 -0.1023 -0.1711
 3355TIP3   OH234259   0.525   2.498  10.947  0.1351  0.4825 -0.0989
 3355TIP3    H134260   0.560   2.417  10.911  0.2651  0.1832  0.6797
 3355TIP3    H234261   0.433   2.480  10.965  0.1587  0.5169  0.0568
 3356TIP3   OH234262   3.452   2.680  11.849  0.1892  0.3221  0.2976
 3356TIP3    H134263   3.371   2.697  11.801  0.6108 -0.2226 -0.6453
 3356TIP3    H234264   3.425   2.638  11.930 -0.4799  0.3471  0.0897
 3357TIP3   OH234265   0.804   3.462  12.274 -0.1112 -0.0355 -0.3994
 3357TIP3    H134266   0.870   3.526  12.246 -0.3927  0.3377 -0.2182
 3357TIP3    H234267   0.854   3.384  12.295  0.4621  0.7410  1.3121
 3358TIP3   OH234268   0.376   0.636   9.772 -0.0860  0.2142 -0.4959
 3358TIP3    H134269   0.393   0.542   9.766 -1.5553 -0.0517 -0.7208
 3358TIP3    H234270   0.432   0.675   9.705  0.4676 -0.4946 -0.4572
 3359TIP3   OH234271   2.905   0.729  10.978  0.7386  0.3859 -0.2014
 3359TIP3    H134272   2.918   0.698  10.889  0.4557 -0.0218 -0.1018
 3359TIP3    H234273   2.964   0.804  10.986  1.4515 -0.1426 -0.4306
 3360TIP3   OH234274   1.790   5.464  10.603 -0.1746 -0.3016  0.2297
 3360TIP3    H134275   1.821   5.412  10.529  1.4413 -0.3693  0.9270
 3360TIP3    H234276   1.858   5.456  10.670 -1.4060  0.0740  1.6015
 3361TIP3   OH234277   6.290   6.499  10.476 -0.2310  0.0359  0.0908
 3361TIP3    H134278   6.361   6.533  10.531  0.2090 -0.4556 -0.1642
 3361TIP3    H234279   6.217   6.486  10.536  0.1635 -0.2542  0.5137
 3362TIP3   OH234280   3.282   2.359  11.621  0.2817  0.7380  0.0135
 3362TIP3    H134281   3.257   2.315  11.540  1.9321  0.2095 -0.2480
 3362TIP3    H234282   3.233   2.442  11.620 -0.3736  0.3528 -1.0888
 3363TIP3   OH234283   0.417   4.435   9.179 -0.1388  0.3459  0.3590
 3363TIP3    H134284   0.455   4.410   9.095  1.3438  1.4973  0.6424
 3363TIP3    H234285   0.323   4.422   9.168  0.0650  0.0773 -1.3291
 3364TIP3   OH234286   6.072   3.703   9.506 -0.4659  0.4339 -0.0313
 3364TIP3    H134287   6.071   3.614   9.470 -1.3324  0.9383 -1.3376
 3364TIP3    H234288   6.017   3.754   9.446  1.0655  2.1344 -0.0944
 3365TIP3   OH234289   6.510   3.282   9.902  0.7300  0.5112 -0.0486
 3365TIP3    H134290   6.542   3.367   9.871  0.7554  0.2460 -0.7758
 3365TIP3    H234291   6.487   3.297   9.993  0.8622  1.2679 -0.1297
 3366TIP3   OH234292   3.831   2.456  11.891 -0.3126 -0.3510 -0.3259
 3366TIP3    H134293   3.852   2.387  11.953 -1.2022 -0.5602 -0.2478
 3366TIP3    H234294   3.779   2.519  11.941  0.7856  0.5668 -0.3011
 3367TIP3   OH234295   1.288   1.435  10.715  0.0914 -0.0864 -0.0820
 3367TIP3    H134296   1.274   1.403  10.804 -0.7169 -2.8217 -1.1144
 3367TIP3    H234297   1.201   1.452  10.680  0.2827 -0.7510 -0.9251
 3368TIP3   OH234298   1.130   0.068  10.545  0.6076 -0.3737 -0.3332
 3368TIP3    H134299   1.147  -0.023  10.569  0.3327 -0.5918 -0.9513
 3368TIP3    H234300   1.208   0.095  10.496  0.4323 -0.4707 -0.6717
 3369TIP3   OH234301   2.314   1.955   9.771  0.0140  0.1460 -0.0926
 3369TIP3    H134302   2.399   1.922   9.801 -0.8989 -1.0427  1.3366
 3369TIP3    H234303   2.300   2.035   9.821 -0.2023 -0.2658  0.5103
 3370TIP3   OH234304   6.576   1.801   9.340  0.2120  0.0380  0.4009
 3370TIP3    H134305   6.524   1.764   9.268  0.0504  0.4808  0.2882
 3370TIP3    H234306   6.561   1.895   9.334  0.9530  0.1637  0.4212
 3371TIP3   OH234307   1.233   6.296  11.503 -0.2709  0.1507 -0.1673
 3371TIP3    H134308   1.196   6.384  11.511  0.5348  0.5744 -0.9674
 3371TIP3    H234309   1.326   6.307  11.524 -0.4755 -0.8242  1.4056
 3372TIP3   OH234310   3.860   3.839   9.084  0.4134  0.5684  0.0843
 3372TIP3    H134311   3.890   3.755   9.120  1.4423  1.0668  0.4435
 3372TIP3    H234312   3.875   3.832   8.990 -4.1260 -1.5077 -0.7507
 3373TIP3   OH234313   5.214   5.177  12.427  0.1336 -0.0480 -0.5624
 3373TIP3    H134314   5.200   5.099  12.480 -0.3731 -0.2709 -1.0103
 3373TIP3    H234315   5.130   5.223  12.429  0.5793  0.7648  0.1257
 3374TIP3   OH234316   6.596   5.983  10.520  0.0214  0.4547  0.2248
 3374TIP3    H134317   6.554   5.912  10.569  1.2327  0.4131  1.2433
 3374TIP3    H234318   6.584   5.958  10.428  0.0619 -0.8551  0.5460
 3375TIP3   OH234319   5.580   0.466  10.207 -0.0878 -0.3292 -0.9547
 3375TIP3    H134320   5.511   0.401  10.199  0.3222 -0.7573 -1.0822
 3375TIP3    H234321   5.644   0.426  10.267  0.0060  0.0961 -0.7674
 3376TIP3   OH234322   4.464   5.534  12.480 -0.1433  0.0174 -0.2112
 3376TIP3    H134323   4.400   5.605  12.485  2.3222  2.3147  1.1170
 3376TIP3    H234324   4.444   5.478  12.555 -2.4981 -1.1364 -1.6163
 3377TIP3   OH234325   0.483   5.432   9.503  0.1543  0.4956 -0.3176
 3377TIP3    H134326   0.454   5.503   9.445  0.8738 -0.2890 -1.6769
 3377TIP3    H234327   0.520   5.366   9.445 -0.1851 -0.8762  0.9415
 3378TIP3   OH234328   1.324   2.938  10.398  0.3687  0.3215  0.2222
 3378TIP3    H134329   1.288   2.878  10.463  2.4481 -1.3388 -0.0488
 3378TIP3    H234330   1.326   2.888  10.317 -1.3587  2.0621 -0.9979
 3379TIP3   OH234331   2.451   1.780   9.504 -0.2415  0.3763  0.2299
 3379TIP3    H134332   2.518   1.715   9.486  0.7977  0.8014  2.3410
 3379TIP3    H234333   2.380   1.759   9.443  1.1509 -1.0386 -0.9726
 3380TIP3   OH234334   4.790   4.314   9.696 -0.4275  0.3744 -1.0801
 3380TIP3    H134335   4.757   4.328   9.608 -0.5294  3.2444 -0.6548
 3380TIP3    H234336   4.716   4.332   9.753 -0.2020 -0.8788 -0.3370
 3381TIP3   OH234337   5.792   6.614  11.737  0.1661  0.1887 -0.3468
 3381TIP3    H134338   5.753   6.590  11.821 -0.3117 -0.8966 -0.8639
 3381TIP3    H234339   5.719   6.607  11.675  0.5107  1.0031 -0.8567
 3382TIP3   OH234340   2.696   3.542  11.650  0.3189 -0.1145 -0.5046
 3382TIP3    H134341   2.680   3.574  11.739 -0.2543  1.1415 -1.0308
 3382TIP3    H234342   2.743   3.460  11.662  1.1398  0.5268  0.9541
 3383TIP3   OH234343   3.532   4.289   9.108 -0.2189 -0.6805 -0.0338
 3383TIP3    H134344   3.577   4.210   9.139 -0.3478 -1.0335 -0.7250
 3383TIP3    H234345   3.480   4.259   9.033  1.7220  0.5284 -1.9867
 3384TIP3   OH234346   1.802   4.786  10.541  0.2331 -0.1003 -0.1717
 3384TIP3    H134347   1.852   4.754  10.465 -1.3108 -0.3123 -1.1392
 3384TIP3    H234348   1.822   4.724  10.611 -0.2863 -1.3922 -1.1353
 3385TIP3   OH234349   3.232   6.582  12.227 -0.1947 -0.5335  0.4851
 3385TIP3    H134350   3.258   6.653  12.285 -1.0274  0.5740 -0.4623
 3385TIP3    H234351   3.187   6.625  12.154 -2.0071 -2.1370  0.5914
 3386TIP3   OH234352   3.695   4.358  10.876  0.6089  0.5456 -0.3279
 3386TIP3    H134353   3.614   4.325  10.837  1.7609 -0.6432 -1.8100
 3386TIP3    H234354   3.728   4.422  10.813  2.2633 -1.0796 -1.1867
 3387TIP3   OH234355   6.106   0.257  12.114 -0.8430  0.2088 -0.2030
 3387TIP3    H134356   6.184   0.209  12.141 -0.9089 -0.5439 -1.2903
 3387TIP3    H234357   6.038   0.227  12.175 -1.2541 -2.3085 -1.7326
 3388TIP3   OH234358   5.720   1.260   9.278  0.0555 -0.4855 -0.1068
 3388TIP3    H134359   5.721   1.314   9.199 -0.5849 -1.8228 -1.0700
 3388TIP3    H234360   5.793   1.292   9.330 -0.2288  1.2045 -0.6963
 3389TIP3   OH234361   5.355   5.184  10.700 -0.0715  0.4573 -0.4123
 3389TIP3    H134362   5.277   5.239  10.710  0.9755  1.9124  0.1879
 3389TIP3    H234363   5.381   5.195  10.608 -0.0079  0.7882 -0.3572
 3390TIP3   OH234364   3.015   2.162  11.452  0.1590  0.0370  0.0365
 3390TIP3    H134365   3.061   2.096  11.400 -1.1140 -1.4710  0.7275
 3390TIP3    H234366   3.012   2.126  11.540  2.3468  2.5930  1.2743
 3391TIP3   OH234367   0.530   1.016  11.461  0.0816 -0.4036 -0.5359
 3391TIP3    H134368   0.485   1.070  11.525  1.0523 -0.5440  0.2914
 3391TIP3    H234369   0.567   1.078  11.398 -2.8449 -0.3525 -2.3767
 3392TIP3   OH234370   5.300   4.745  10.638  0.1502  0.5258 -0.4918
 3392TIP3    H134371   5.306   4.839  10.620 -0.3571  0.8680  0.9625
 3392TIP3    H234372   5.360   4.705  10.576  0.6747  1.8497 -0.8789
 3393TIP3   OH234373   6.420   3.687   9.976  0.2764 -0.5075 -0.5801
 3393TIP3    H134374   6.362   3.748   9.931 -0.1754  0.2134  0.9160
 3393TIP3    H234375   6.495   3.740  10.004  2.2529 -1.6211 -3.3677
 3394TIP3   OH234376   4.032   1.671   9.989  1.1714 -0.5474 -0.3135
 3394TIP3    H134377   3.999   1.648   9.902 -0.8666  0.5405  0.0871
 3394TIP3    H234378   4.094   1.742   9.974 -0.2643  0.6474 -0.8271
 3395TIP3   OH234379   5.831   3.797  12.268 -0.2481 -0.0574 -0.2921
 3395TIP3    H134380   5.817   3.880  12.223 -1.3037 -0.3692 -0.5555
 3395TIP3    H234381   5.773   3.800  12.344  0.1707 -0.2961  0.0418
 3396TIP3   OH234382   1.752   4.226  11.805 -0.1209 -0.1588 -0.8648
 3396TIP3    H134383   1.736   4.191  11.893  1.9687  0.7921 -0.0348
 3396TIP3    H234384   1.679   4.286  11.789 -0.9576 -0.9531 -0.1352
 3397TIP3   OH234385   5.803   4.515  12.192  0.1472 -0.8981 -0.0298
 3397TIP3    H134386   5.806   4.585  12.257  2.1589 -0.4734 -0.4877
 3397TIP3    H234387   5.734   4.542  12.131  0.2364  0.1967  0.3294
 3398TIP3   OH234388   3.360   5.466   9.439 -0.0297 -0.0177 -0.3130
 3398TIP3    H134389   3.310   5.511   9.507 -1.7437  1.4730 -2.4068
 3398TIP3    H234390   3.295   5.419   9.388  1.0638 -0.3215 -1.4894
 3399TIP3   OH234391   6.480   4.526  12.116 -0.1201  0.6606 -0.2853
 3399TIP3    H134392   6.497   4.550  12.025  0.9120  0.0117 -0.2810
 3399TIP3    H234393   6.466   4.610  12.161 -2.5086  0.9188 -1.3473
 3400TIP3   OH234394   3.782   1.792  11.800 -0.0455  0.5117 -0.4243
 3400TIP3    H134395   3.771   1.702  11.833 -2.4475  1.2103  0.9862
 3400TIP3    H234396   3.839   1.783  11.724  0.9412 -2.0151  0.4982
 3401TIP3   OH234397   3.602   0.572   9.388 -0.3991 -0.5417 -0.1648
 3401TIP3    H134398   3.638   0.640   9.330  0.2975 -0.1823  0.6616
 3401TIP3    H234399   3.522   0.543   9.344  0.3766 -0.6628 -1.5869
 3402TIP3   OH234400   0.745   3.737   9.125 -0.3975 -0.2490 -0.5349
 3402TIP3    H134401   0.750   3.833   9.125  1.1293 -0.3021  0.2537
 3402TIP3    H234402   0.738   3.714   9.217  0.1317 -0.9331 -0.6619
 3403TIP3   OH234403   1.196   4.422  10.137  0.0317 -0.1086 -0.3437
 3403TIP3    H134404   1.285   4.454  10.155  0.2638 -0.2470 -1.1827
 3403TIP3    H234405   1.169   4.379  10.218  0.7339 -0.0724 -0.0822
 3404TIP3   OH234406   3.117   0.766  11.806 -0.2000  0.1148  0.3472
 3404TIP3    H134407   3.194   0.816  11.833 -0.4034  0.6745 -0.0967
 3404TIP3    H234408   3.152   0.683  11.774  0.1652  0.1198  0.7252
 3405TIP3   OH234409   4.937   2.782  12.530  0.4555  0.1536  0.1309
 3405TIP3    H134410   4.880   2.793  12.454 -0.0264  2.0164  0.6926
 3405TIP3    H234411   5.014   2.837  12.511  1.3576 -1.0998  0.0616
 3406TIP3   OH234412   6.607   3.214  11.489  0.4584 -0.0593  0.3977
 3406TIP3    H134413   6.558   3.276  11.435 -0.6822 -1.0022  0.3148
 3406TIP3    H234414   6.586   3.128  11.452  2.2231 -0.5000  0.3341
 3407TIP3   OH234415   4.163   4.219  11.118 -0.0025 -0.2078  0.2712
 3407TIP3    H134416   4.201   4.304  11.096 -0.6089 -0.2132 -0.8575
 3407TIP3    H234417   4.159   4.219  11.214 -0.0247  1.0559  0.2896
 3408TIP3   OH234418   2.791   0.317  10.922  0.1450  0.4196 -0.0341
 3408TIP3    H134419   2.708   0.360  10.941  0.3351  0.3454  1.0122
 3408TIP3    H234420   2.796   0.316  10.826 -2.2304 -1.8460 -0.2314
 3409TIP3   OH234421   0.053   0.992   9.998  0.4866 -0.3398  0.0383
 3409TIP3    H134422   0.046   0.973  10.091 -1.2843 -0.6437 -0.1132
 3409TIP3    H234423   0.070   0.906   9.958 -0.4659 -0.5056 -0.0412
 3410TIP3   OH234424   1.494   0.547  10.601  0.2422  0.4331  0.2522
 3410TIP3    H134425   1.543   0.582  10.675 -0.4217  0.0580  0.8850
 3410TIP3    H234426   1.525   0.457  10.592 -0.6673  0.0395  0.9674
 3411TIP3   OH234427   4.609   3.225  11.196 -0.0128  0.1287  0.3172
 3411TIP3    H134428   4.535   3.227  11.256 -0.7716 -0.5125 -0.5559
 3411TIP3    H234429   4.579   3.169  11.124  1.5121 -0.5477  0.1823
 3412TIP3   OH234430   4.413   0.596  11.516  0.1763 -0.2276 -0.1885
 3412TIP3    H134431   4.397   0.504  11.539  2.9630 -0.6225  0.6149
 3412TIP3    H234432   4.509   0.602  11.512  0.1277  2.9455  1.0334
 3413TIP3   OH234433   2.955   6.447  12.143 -0.0256 -0.5819  0.3860
 3413TIP3    H134434   3.042   6.472  12.174 -0.1742  0.6376 -0.1553
 3413TIP3    H234435   2.942   6.359  12.180 -0.3432  0.8268  4.0628
 3414TIP3   OH234436   1.851   5.926  11.126  1.0006  0.0679 -0.6589
 3414TIP3    H134437   1.894   5.851  11.168 -1.3441 -0.8180  0.3060
 3414TIP3    H234438   1.789   5.887  11.065 -1.0091  1.1379  0.6056
 3415TIP3   OH234439   1.620   2.173  11.768 -0.3986 -0.5424  0.5324
 3415TIP3    H134440   1.712   2.149  11.758 -0.4918 -0.6491 -0.1169
 3415TIP3    H234441   1.575   2.089  11.782 -0.4258 -0.5159  0.6003
 3416TIP3   OH234442   5.259   4.421   9.170  0.2031  0.4206  0.4743
 3416TIP3    H134443   5.335   4.364   9.156 -0.0086 -0.4428  2.4622
 3416TIP3    H234444   5.267   4.488   9.102  0.9758 -1.4217 -1.3743
 3417TIP3   OH234445   2.827   1.415   8.816  0.4009  0.3827 -0.3884
 3417TIP3    H134446   2.761   1.345   8.818  1.6854 -1.0065 -2.5169
 3417TIP3    H234447   2.812   1.460   8.733  0.8311  1.4027  0.0678
 3418TIP3   OH234448   0.593   5.374  10.665 -0.2991 -0.2241  0.0592
 3418TIP3    H134449   0.629   5.338  10.746  0.7037 -3.3682 -1.5657
 3418TIP3    H234450   0.658   5.438  10.636 -0.6921  0.9547  1.7017
 3419TIP3   OH234451   4.350   4.769  12.065 -0.5228 -0.3137 -0.0962
 3419TIP3    H134452   4.298   4.840  12.028  1.3212  0.6409 -1.0034
 3419TIP3    H234453   4.397   4.809  12.138 -0.2806 -0.8753  0.0618
 3420TIP3   OH234454   2.024   1.849   9.167  0.5523 -0.2503 -0.7360
 3420TIP3    H134455   2.010   1.928   9.219  1.2035 -0.3590 -0.3934
 3420TIP3    H234456   1.985   1.870   9.082 -0.9415 -0.2379 -0.0882
 3421TIP3   OH234457   0.626   2.288  10.147  0.1198 -0.0995 -0.1087
 3421TIP3    H134458   0.565   2.245  10.207  1.8611 -0.2434  1.6742
 3421TIP3    H234459   0.603   2.381  10.151  0.0213 -0.1516  0.5685
 3422TIP3   OH234460   4.898   3.630  10.258 -0.5014 -0.0575  0.5809
 3422TIP3    H134461   4.885   3.659  10.168 -1.2352  1.8123  1.2197
 3422TIP3    H234462   4.945   3.548  10.251  0.5951  0.6834 -1.4600
 3423TIP3   OH234463   4.560   5.534   8.876  0.4564  0.0445  0.2453
 3423TIP3    H134464   4.563   5.573   8.964  2.0942 -0.2663  0.3424
 3423TIP3    H234465   4.599   5.447   8.887  1.3839  0.2919 -0.9284
 3424TIP3   OH234466   3.212   4.956   8.796  0.3169  0.3681  0.3687
 3424TIP3    H134467   3.179   5.043   8.818 -0.2014  0.4204 -0.5589
 3424TIP3    H234468   3.307   4.965   8.799  0.2669  0.6683  1.3873
 3425TIP3   OH234469   2.829   2.186  10.297 -0.4562 -0.1538  1.0302
 3425TIP3    H134470   2.898   2.144  10.349  0.1976 -1.0975 -0.5481
 3425TIP3    H234471   2.751   2.183  10.354 -0.2284 -2.7962  1.3042
 3426TIP3   OH234472   2.331   2.630   9.880 -0.4638  0.5515 -0.5297
 3426TIP3    H134473   2.331   2.637   9.784 -1.4500 -0.0045 -0.5842
 3426TIP3    H234474   2.342   2.720   9.910  1.0781  0.6103 -1.1471
 3427TIP3   OH234475   0.047   5.410  12.496  0.1818 -0.0365 -0.3950
 3427TIP3    H134476  -0.044   5.431  12.477  0.4347 -0.3328 -2.1048
 3427TIP3    H234477   0.043   5.354  12.574 -0.9217  1.5058  0.7230
 3428TIP3   OH234478   1.519   3.187   9.872  0.1395 -0.2721  0.2739
 3428TIP3    H134479   1.475   3.134   9.806  1.2281 -0.8301 -0.0213
 3428TIP3    H234480   1.586   3.236   9.824 -1.2753  1.9665  0.4036
 3429TIP3   OH234481   1.925   1.772  11.732 -0.4373  0.7182  0.2377
 3429TIP3    H134482   1.953   1.751  11.643 -0.1059 -0.8282  0.6652
 3429TIP3    H234483   1.837   1.735  11.739 -0.1303  0.0602  0.7970
 3430TIP3   OH234484   6.091   1.395   9.748 -0.1815  0.8866  0.4733
 3430TIP3    H134485   6.166   1.361   9.699 -0.5864 -2.0793  1.6949
 3430TIP3    H234486   6.018   1.338   9.721 -0.7112  0.0465  3.3824
 3431TIP3   OH234487   1.557   3.644  11.433  0.1635 -0.1025  0.4729
 3431TIP3    H134488   1.483   3.595  11.470  1.1947 -0.7439  1.7760
 3431TIP3    H234489   1.521   3.729  11.410 -1.5740 -1.2426 -1.3868
 3432TIP3   OH234490   3.607   2.531   9.420  0.0206 -0.1539 -0.2235
 3432TIP3    H134491   3.526   2.516   9.468  0.1530  1.7318  0.6815
 3432TIP3    H234492   3.586   2.603   9.361  0.8412 -0.1355 -0.5029
 3433TIP3   OH234493   6.495   4.249  10.356 -0.2722  0.3200 -0.7425
 3433TIP3    H134494   6.489   4.310  10.282 -1.1306 -0.9381 -1.7613
 3433TIP3    H234495   6.587   4.249  10.380 -0.3822  2.6290 -0.1648
 3434TIP3   OH234496   3.862   5.265  10.035  1.2189 -0.1138 -0.2608
 3434TIP3    H134497   3.864   5.186  10.089  2.1680  0.8987  1.2718
 3434TIP3    H234498   3.769   5.281  10.019  1.0309 -2.1779 -1.6663
 3435TIP3   OH234499   3.079   0.026  10.101  0.0481  0.0598 -0.4535
 3435TIP3    H134500   3.001   0.063  10.061  1.2928  0.8733 -2.2632
 3435TIP3    H234501   3.112  -0.037  10.037 -0.2804 -1.9354  1.2270
 3436TIP3   OH234502   5.814   6.444   9.679  0.5164 -0.0329  0.1088
 3436TIP3    H134503   5.867   6.474   9.605  0.4122 -1.4597 -0.5969
 3436TIP3    H234504   5.736   6.407   9.638  0.6860 -1.3159  0.8757
 3437TIP3   OH234505   2.433   0.361   9.513 -0.6675  0.0656 -0.3548
 3437TIP3    H134506   2.497   0.395   9.575  1.9540 -0.9338 -2.2989
 3437TIP3    H234507   2.363   0.426   9.512  0.7589  1.7318  1.2036
 3438TIP3   OH234508   3.296   2.225  10.773 -0.5969  0.0554  0.2292
 3438TIP3    H134509   3.281   2.229  10.867 -1.4866 -3.0010  0.3009
 3438TIP3    H234510   3.392   2.220  10.764 -0.5476 -0.5064  1.0112
 3439TIP3   OH234511   3.480   3.798  10.885  0.5838  0.2775  0.6229
 3439TIP3    H134512   3.559   3.840  10.919  0.4369 -0.7968  2.4245
 3439TIP3    H234513   3.414   3.867  10.887  0.7948  0.4635  1.8066
 3440TIP3   OH234514   5.708   5.511  11.659 -0.3116 -0.3795  0.0619
 3440TIP3    H134515   5.705   5.594  11.706  1.5403 -0.3257  0.1288
 3440TIP3    H234516   5.630   5.513  11.603  1.1971  2.7717 -2.2266
 3441TIP3   OH234517   2.061   2.955  12.065 -0.2776  0.2620 -0.0906
 3441TIP3    H134518   2.142   2.984  12.108 -0.5306 -0.0021  0.5761
 3441TIP3    H234519   2.059   3.003  11.982 -0.3837  1.7121  0.7242
 3442TIP3   OH234520   2.173   4.656  11.283  0.2096 -0.1463  0.1219
 3442TIP3    H134521   2.101   4.694  11.233 -0.6823 -0.9302  0.7784
 3442TIP3    H234522   2.245   4.650  11.221 -0.5271 -0.0643 -0.7582
 3443TIP3   OH234523   6.376   3.164  10.416  0.5043  0.2183  0.0041
 3443TIP3    H134524   6.406   3.127  10.333  3.0553  0.8190  0.5769
 3443TIP3    H234525   6.360   3.088  10.471  1.4567 -0.1611 -0.2067
 3444TIP3   OH234526   6.603   3.035  10.906 -0.0542  0.2302 -0.1746
 3444TIP3    H134527   6.694   3.058  10.928  0.3769 -0.1252 -1.4881
 3444TIP3    H234528   6.611   2.957  10.851 -1.1179  0.5163 -0.7537
 3445TIP3   OH234529   4.207   6.106  11.612 -0.2714  0.2869 -0.2362
 3445TIP3    H134530   4.194   6.133  11.702  0.1974 -2.3469  0.6952
 3445TIP3    H234531   4.291   6.146  11.587  0.3559 -0.2012  1.0267
 3446TIP3   OH234532   0.133   3.690   9.964 -0.1748  0.3263 -0.2278
 3446TIP3    H134533   0.227   3.689   9.983 -0.3619  1.1962  0.8335
 3446TIP3    H234534   0.105   3.778   9.988 -1.1250  0.3455 -1.3192
 3447TIP3   OH234535   6.520   1.399  10.465 -0.9111  0.0985  0.4252
 3447TIP3    H134536   6.582   1.398  10.538  1.4311  0.0767 -1.4283
 3447TIP3    H234537   6.436   1.375  10.504  0.4777 -1.1858  2.8744
 3448TIP3   OH234538   1.373   4.028  10.523  0.1266 -0.3976 -0.4598
 3448TIP3    H134539   1.383   4.039  10.618 -0.6951 -1.1237 -0.2803
 3448TIP3    H234540   1.401   4.112  10.486 -1.9198  0.8444  0.5976
 3449TIP3   OH234541   2.789   0.112   9.319 -0.2137  0.3931  0.2090
 3449TIP3    H134542   2.697   0.091   9.329 -0.4703  1.7927  0.9856
 3449TIP3    H234543   2.818   0.060   9.243 -2.2979  1.9663 -1.8072
 3450TIP3   OH234544   5.734   4.690  10.761 -0.1214  0.0065 -0.5860
 3450TIP3    H134545   5.718   4.783  10.779 -1.9298  0.0129 -1.9796
 3450TIP3    H234546   5.827   4.685  10.743  0.3209  1.2588  1.0944
 3451TIP3   OH234547   0.970   5.909  11.576  0.2225 -0.0337 -0.3842
 3451TIP3    H134548   0.962   6.003  11.557  0.3259 -0.1982 -1.2997
 3451TIP3    H234549   0.891   5.871  11.538 -0.3752 -0.1919  0.9645
 3452TIP3   OH234550   6.045   5.834   9.903 -0.7074  0.0954  0.1914
 3452TIP3    H134551   6.122   5.792   9.942  0.3283 -1.0244 -2.7430
 3452TIP3    H234552   5.979   5.765   9.900 -1.3110  0.6071  1.2665
 3453TIP3   OH234553   4.347   3.278  10.342 -0.5556 -0.1386 -0.3353
 3453TIP3    H134554   4.406   3.231  10.282  0.3492  1.7447 -1.0072
 3453TIP3    H234555   4.338   3.365  10.303 -2.5033  0.1509  0.6361
 3454TIP3   OH234556   5.263   0.774  10.596  0.4027  0.0942 -0.9683
 3454TIP3    H134557   5.267   0.695  10.542 -0.7979  0.0243 -0.9789
 3454TIP3    H234558   5.175   0.774  10.632  1.3497 -0.2607  1.6387
 3455TIP3   OH234559   1.552   5.546  11.505 -1.1636 -0.5523  0.1798
 3455TIP3    H134560   1.576   5.620  11.448 -1.4153 -0.7390 -0.1732
 3455TIP3    H234561   1.514   5.587  11.582 -1.6643 -0.3208 -0.1841
 3456TIP3   OH234562   2.405   4.193  11.753 -0.0591  0.1726 -0.6027
 3456TIP3    H134563   2.446   4.117  11.711  1.2035  0.4222  0.1447
 3456TIP3    H234564   2.437   4.191  11.843  0.4981  1.9349 -0.7249
 3457TIP3   OH234565   3.085   5.413  11.716  0.1714 -0.2300 -0.0433
 3457TIP3    H134566   3.172   5.451  11.717  0.8867 -1.7729 -0.1201
 3457TIP3    H234567   3.040   5.456  11.643  1.5882 -0.8909 -1.3504
 3458TIP3   OH234568   4.933   2.292  10.490  0.3184  0.3163  0.1076
 3458TIP3    H134569   4.935   2.387  10.500  1.5680  0.2091  1.0288
 3458TIP3    H234570   4.844   2.267  10.515 -0.1513  1.2730 -0.5567
 3459TIP3   OH234571   5.474   2.801  12.379  0.0850 -0.1282 -0.0799
 3459TIP3    H134572   5.517   2.853  12.311  0.5565 -2.2305 -1.5117
 3459TIP3    H234573   5.547   2.767  12.432 -0.0349 -1.0016 -0.4582
 3460TIP3   OH234574   2.659   4.927  11.889 -0.0694  0.1951 -0.3589
 3460TIP3    H134575   2.643   4.907  11.797  0.7324  0.2949 -0.5257
 3460TIP3    H234576   2.622   5.014  11.901  0.3434  0.4276 -0.7396
 3461TIP3   OH234577   3.781   4.022   2.270 -0.0945  0.2731  0.4688
 3461TIP3    H134578   3.712   4.075   2.231 -1.3605 -1.0593  0.8268
 3461TIP3    H234579   3.861   4.072   2.253 -0.8602  0.8784 -1.7401
 3462TIP3   OH234580   2.496   3.027   8.827  0.0999  0.3772  0.8182
 3462TIP3    H134581   2.519   2.944   8.868  0.1567 -0.4884 -0.8677
 3462TIP3    H234582   2.403   3.038   8.844 -0.2019 -0.7069 -0.0452
 3463TIP3   OH234583   3.540   5.316   9.626  0.6042 -0.3710  0.1665
 3463TIP3    H134584   3.467   5.271   9.585  0.1604 -0.2128  0.7654
 3463TIP3    H234585   3.539   5.404   9.589  1.1535 -0.6794 -0.6170
 3464TIP3   OH234586   5.645   0.485  11.058 -0.0609  0.1795  0.0028
 3464TIP3    H134587   5.585   0.410  11.050  0.6735 -0.4295  0.1323
 3464TIP3    H234588   5.698   0.482  10.979  0.4408  0.1486  0.3412
 3465TIP3   OH234589   2.891   1.298  12.434 -0.4080  0.2190 -0.3232
 3465TIP3    H134590   2.846   1.361  12.378  0.1372  1.3164  0.4304
 3465TIP3    H234591   2.973   1.279  12.387 -0.7883 -0.3125 -0.7818
 3466TIP3   OH234592   6.316   0.250  10.667 -0.2944  0.0721  0.0176
 3466TIP3    H134593   6.285   0.277  10.753 -2.1537  0.6877 -0.7985
 3466TIP3    H234594   6.346   0.160  10.679 -0.8466  0.0377  1.2222
 3467TIP3   OH234595   1.973   3.231   9.563 -0.3734 -0.7866  0.0095
 3467TIP3    H134596   1.988   3.315   9.520 -1.9418  0.1108  1.0841
 3467TIP3    H234597   1.913   3.185   9.505 -0.9198 -0.3989  0.2524
 3468TIP3   OH234598   2.368   0.304  12.059 -0.4868  0.1794  0.4428
 3468TIP3    H134599   2.356   0.224  12.110 -1.6425  0.1956  0.2198
 3468TIP3    H234600   2.443   0.347  12.100 -1.7896  0.5288  2.5767
 3469TIP3   OH234601   2.305   5.056  10.204 -0.8443  0.4691  0.1899
 3469TIP3    H134602   2.335   5.134  10.251  0.5207 -1.0917  2.0361
 3469TIP3    H234603   2.209   5.066  10.200 -0.7803  1.7715  1.1969
 3470TIP3   OH234604   5.966   0.297  11.368 -0.3265 -0.1424  0.3455
 3470TIP3    H134605   5.948   0.270  11.458 -0.4672 -0.1905  0.3022
 3470TIP3    H234606   6.062   0.297  11.362 -0.2023  2.0841  1.1946
 3471TIP3   OH234607   0.360   3.356   9.664 -0.1049  1.1796  0.3018
 3471TIP3    H134608   0.347   3.364   9.759  0.8730  0.7455  0.4865
 3471TIP3    H234609   0.272   3.357   9.628 -0.5521  0.2969  1.3100
 3472TIP3   OH234610   0.415   5.899  10.855  0.3850 -0.2513  0.0050
 3472TIP3    H134611   0.488   5.943  10.811  1.3462  1.5093  3.0103
 3472TIP3    H234612   0.337   5.944  10.824  0.8990  0.1548 -0.7231
 3473TIP3   OH234613   4.295   1.629  11.434 -0.1262  0.3867 -0.6234
 3473TIP3    H134614   4.258   1.717  11.440 -1.2983 -0.0904 -0.5819
 3473TIP3    H234615   4.282   1.592  11.521  0.1329  0.0735 -0.7145
 3474TIP3   OH234616   0.312   0.254  11.534  0.0329  0.2149  0.1589
 3474TIP3    H134617   0.345   0.274  11.622  0.7185 -0.0326 -0.0358
 3474TIP3    H234618   0.313   0.158  11.529  1.3777  0.2507 -0.6183
 3475TIP3   OH234619   0.192   2.225  11.819  0.0795 -0.3611 -0.5233
 3475TIP3    H134620   0.257   2.248  11.885 -0.2196 -0.9682 -0.0018
 3475TIP3    H234621   0.156   2.309  11.790  0.1449 -0.0877  0.1652
 3476TIP3   OH234622   1.302   0.673  11.750 -0.0525 -0.1091  0.0515
 3476TIP3    H134623   1.346   0.696  11.669 -2.2416 -0.3541 -1.2967
 3476TIP3    H234624   1.228   0.735  11.755 -0.3832 -0.5879  1.4624
 3477TIP3   OH234625   3.287   5.479  11.194  0.5518  0.4905  0.1441
 3477TIP3    H134626   3.283   5.395  11.149 -0.2244  0.6873 -0.1677
 3477TIP3    H234627   3.198   5.495  11.224  0.6377  1.3086 -0.0060
 3478TIP3   OH234628   4.918   4.538  11.204 -0.3216 -0.5056 -0.4053
 3478TIP3    H134629   4.996   4.567  11.156  0.6096  1.9784  2.2953
 3478TIP3    H234630   4.949   4.464  11.256  0.1273  0.0612  0.1641
 3479TIP3   OH234631   5.866   0.148  12.231  0.1044  0.3193 -0.0151
 3479TIP3    H134632   5.859   0.222  12.291  1.5185  1.4162 -1.1296
 3479TIP3    H234633   5.895   0.076  12.287  0.7635  1.1393  0.7474
 3480TIP3   OH234634   2.503   3.805  10.976  0.0756 -0.3800 -0.5790
 3480TIP3    H134635   2.547   3.772  10.898  0.8097 -0.1338 -0.2747
 3480TIP3    H234636   2.483   3.896  10.956 -0.5335 -0.5573 -0.8117
 3481TIP3   OH234637   5.802   3.600  11.516  0.1780 -0.1140  0.2412
 3481TIP3    H134638   5.790   3.690  11.486 -0.1556 -0.0557  0.5347
 3481TIP3    H234639   5.896   3.585  11.511  0.4056  0.7201  1.4746
 3482TIP3   OH234640   0.452   1.604  12.206 -0.0906 -0.2984  0.5361
 3482TIP3    H134641   0.465   1.607  12.111 -1.1725 -2.3898  0.2540
 3482TIP3    H234642   0.380   1.665  12.223  1.6839  1.9591  0.4203
 3483TIP3   OH234643   6.080   0.132   9.790 -0.1970  0.0128  0.2535
 3483TIP3    H134644   6.103   0.099   9.704 -2.1586  0.3221 -0.4453
 3483TIP3    H234645   6.037   0.059   9.834 -1.2756  0.5252  0.0785
 3484TIP3   OH234646   5.164   0.296   9.761 -0.1536 -0.4946  0.2049
 3484TIP3    H134647   5.163   0.214   9.712  0.3358 -0.1561 -0.3923
 3484TIP3    H234648   5.254   0.327   9.752  0.0022 -0.5302  1.5093
 3485TIP3   OH234649   6.228   2.455   9.992  0.0843  0.0055  0.3485
 3485TIP3    H134650   6.182   2.372   9.979  0.4379 -0.3579  1.3150
 3485TIP3    H234651   6.173   2.505  10.052  0.2293  0.1787  0.3398
 3486TIP3   OH234652   2.509   4.068   9.078  0.3438 -0.5185  0.5548
 3486TIP3    H134653   2.450   4.097   9.008 -0.6566 -1.6242  0.8969
 3486TIP3    H234654   2.595   4.102   9.052 -0.3003  0.5139 -0.3383
 3487TIP3   OH234655   0.458   6.399  11.632 -0.4610  0.0444  0.2781
 3487TIP3    H134656   0.433   6.432  11.718  0.2249  0.1693  0.4372
 3487TIP3    H234657   0.403   6.446  11.570  1.0064  2.1021  0.4296
 3488TIP3   OH234658   0.710   3.004  10.777 -0.2544  0.0290  0.2795
 3488TIP3    H134659   0.749   2.955  10.849  0.3608  1.5812  1.0494
 3488TIP3    H234660   0.666   2.938  10.724  0.4114 -1.3175  1.3453
 3489TIP3   OH234661   4.802   2.130  12.135 -0.2966 -0.2763 -0.2773
 3489TIP3    H134662   4.792   2.088  12.221  2.5829 -1.6592 -0.5053
 3489TIP3    H234663   4.737   2.087  12.080 -1.0329 -0.5856  0.7965
 3490TIP3   OH234664   0.970   0.375   9.221  0.2816  0.2358 -0.0319
 3490TIP3    H134665   0.982   0.325   9.301 -1.5481 -1.3943 -0.7049
 3490TIP3    H234666   1.058   0.403   9.196  1.1187 -1.0162  1.4027
 3491TIP3   OH234667   4.637   4.169   8.845 -0.0320  0.0528  0.3117
 3491TIP3    H134668   4.558   4.193   8.894  0.2736  0.8810  0.4116
 3491TIP3    H234669   4.707   4.217   8.889  0.4289 -0.1640 -0.1867
 3492TIP3   OH234670   4.998   2.592  11.520 -0.3208 -0.3899  0.1044
 3492TIP3    H134671   5.035   2.678  11.538 -1.3610  0.1390 -0.1852
 3492TIP3    H234672   5.028   2.537  11.593  0.3434  0.2118  0.2982
 3493TIP3   OH234673   3.803   2.118  10.547 -0.8759  0.2719  0.0265
 3493TIP3    H134674   3.878   2.098  10.490 -0.0037  2.8127  0.1296
 3493TIP3    H234675   3.839   2.119  10.635 -1.5556 -0.6591  0.3283
 3494TIP3   OH234676   2.690   5.225  11.692 -0.1817  0.1368  0.5215
 3494TIP3    H134677   2.681   5.296  11.756  0.1102  1.3516 -0.7466
 3494TIP3    H234678   2.600   5.196  11.676 -0.5485  1.8502 -0.7038
 3495TIP3   OH234679   5.555   1.550  11.893 -0.2823 -0.2628 -0.1851
 3495TIP3    H134680   5.497   1.558  11.968  0.0567 -0.5242  0.1071
 3495TIP3    H234681   5.500   1.572  11.818 -0.8622 -0.8840  0.0498
 3496TIP3   OH234682   3.718   0.561  11.065  0.2566 -0.0377  0.3793
 3496TIP3    H134683   3.765   0.512  10.998  0.7225  1.2110 -0.2372
 3496TIP3    H234684   3.760   0.536  11.147 -0.0419 -1.2510  0.1900
 3497TIP3   OH234685   3.986   5.744  12.001 -0.7651  0.5342 -0.0045
 3497TIP3    H134686   4.020   5.674  11.946 -3.2973 -0.3826 -0.5358
 3497TIP3    H234687   3.942   5.804  11.941 -0.7333  1.3092  0.7131
 3498TIP3   OH234688   6.001   2.450  12.258  0.1550 -0.3398 -0.6194
 3498TIP3    H134689   5.940   2.390  12.302 -1.5051 -0.7380 -3.2789
 3498TIP3    H234690   5.946   2.516  12.218  1.7990  1.5421  0.0630
 3499TIP3   OH234691   0.922   0.857  11.933  0.2630 -0.6014 -0.4311
 3499TIP3    H134692   0.948   0.822  12.019  1.1793 -2.0915 -1.2681
 3499TIP3    H234693   0.871   0.935  11.954 -0.3239 -1.4277  1.5058
 3500TIP3   OH234694   1.218   6.393   9.164 -0.2899  0.0654  0.5692
 3500TIP3    H134695   1.157   6.354   9.225 -1.8647 -1.1863 -1.6780
 3500TIP3    H234696   1.174   6.473   9.134 -0.7056 -0.6351 -0.7606
 3501TIP3   OH234697   0.158   1.593  11.136  0.4788  0.0860 -0.2970
 3501TIP3    H134698   0.147   1.683  11.167 -1.7749  0.0912 -0.9423
 3501TIP3    H234699   0.200   1.602  11.050 -0.1567  0.5825 -0.5663
 3502TIP3   OH234700   0.638   0.817  12.579  0.3007  0.4317  0.2787
 3502TIP3    H134701   0.667   0.812  12.670  2.2613 -1.6492 -0.3485
 3502TIP3    H234702   0.689   0.749  12.535 -0.3955  1.5614 -2.4363
 3503TIP3   OH234703   3.451   5.533   9.005  0.0277  0.2605 -0.4153
 3503TIP3    H134704   3.545   5.533   8.990  0.4385  2.6408  1.4227
 3503TIP3    H234705   3.423   5.622   8.983 -1.9126 -0.5315 -1.3774
 3504TIP3   OH234706   4.702   0.211  11.056  0.0450 -0.5774  0.0818
 3504TIP3    H134707   4.625   0.169  11.095  0.8831 -1.1469  1.1955
 3504TIP3    H234708   4.689   0.305  11.074 -1.8241 -0.2567 -2.4077
 3505TIP3   OH234709   2.957   3.313  10.103 -0.3317 -0.2903 -0.3034
 3505TIP3    H134710   3.008   3.265  10.168 -2.1548 -0.0813  1.3707
 3505TIP3    H234711   3.019   3.377  10.067  1.1842 -1.5520 -0.0527
 3506TIP3   OH234712   4.702   2.917   9.678  0.4384 -0.4140  0.4691
 3506TIP3    H134713   4.642   2.884   9.611 -0.1875  0.0033  0.8040
 3506TIP3    H234714   4.749   2.840   9.710  1.1392 -0.5409 -0.8213
 3507TIP3   OH234715   1.163   4.259  10.392 -0.4886  0.0930  0.1943
 3507TIP3    H134716   1.194   4.295  10.475 -0.2154 -1.8206  0.9815
 3507TIP3    H234717   1.233   4.198  10.365 -1.5891 -1.0181 -0.2493
 3508TIP3   OH234718   3.304   3.622  10.339  0.1076 -0.1441  0.0704
 3508TIP3    H134719   3.282   3.533  10.310 -1.1628  0.0198  0.4456
 3508TIP3    H234720   3.397   3.631  10.320 -0.2771 -0.6074 -2.4852
 3509TIP3   OH234721   5.167   3.563  11.010 -0.6873 -0.1313  0.2268
 3509TIP3    H134722   5.128   3.537  10.926 -0.1986  0.0531 -0.0629
 3509TIP3    H234723   5.261   3.551  10.997 -0.5897  0.1275  0.6734
 3510TIP3   OH234724   5.362   1.560  11.713  0.8577 -0.5136  0.1153
 3510TIP3    H134725   5.306   1.637  11.720  0.8044 -0.5081 -0.3843
 3510TIP3    H234726   5.312   1.499  11.659  1.1137 -0.7066  0.0969
 3511TIP3   OH234727   5.105   4.671  12.349  0.0619  0.4811  0.0710
 3511TIP3    H134728   5.137   4.598  12.297 -1.6712  1.9062 -3.2708
 3511TIP3    H234729   5.181   4.730  12.357  0.3462  0.2600 -0.9299
 3512TIP3   OH234730   4.659   1.231   9.939  0.2940  0.0271 -0.6438
 3512TIP3    H134731   4.712   1.308   9.960  0.9432 -0.5274 -0.2509
 3512TIP3    H234732   4.609   1.213  10.019  0.1298  0.0468 -0.7409
 3513TIP3   OH234733   1.087   4.925   9.874 -0.5022  0.2072 -0.6620
 3513TIP3    H134734   1.099   4.906   9.967  1.8797  0.2915 -0.9010
 3513TIP3    H234735   1.054   4.843   9.837 -0.3188 -0.1970  0.0524
 3514TIP3   OH234736   2.882   2.482  10.316  0.8272 -0.0506 -0.1134
 3514TIP3    H134737   2.851   2.405  10.269 -1.2521  1.0377 -0.6313
 3514TIP3    H234738   2.809   2.508  10.373  1.1579  1.9631 -0.5190
 3515TIP3   OH234739   4.789   6.555   9.506  0.2616  0.0348  0.2530
 3515TIP3    H134740   4.826   6.469   9.489  0.3545 -0.0343  0.7736
 3515TIP3    H234741   4.807   6.570   9.599 -1.6196 -0.3101  0.7114
 3516TIP3   OH234742   5.113   3.432  10.243 -0.1918 -0.8304  0.4668
 3516TIP3    H134743   5.116   3.387  10.158  0.0051  1.0612 -0.5936
 3516TIP3    H234744   5.157   3.516  10.227 -0.1069 -0.4384  2.4735
 3517TIP3   OH234745   4.789   4.283  11.873 -0.4236  0.1181 -0.4338
 3517TIP3    H134746   4.879   4.251  11.877 -0.5168 -0.0627  0.4924
 3517TIP3    H234747   4.739   4.219  11.924 -0.7843  1.1882  0.6044
 3518TIP3   OH234748   6.238   0.396  11.408  0.4531 -0.0043 -0.1253
 3518TIP3    H134749   6.242   0.482  11.368  3.2026  0.2585  0.5457
 3518TIP3    H234750   6.268   0.409  11.498 -1.1052 -1.3581  0.6589
 3519TIP3   OH234751   3.450   0.358  10.678 -0.3597 -0.2623  0.0040
 3519TIP3    H134752   3.506   0.385  10.605  0.0955 -1.2396 -0.0300
 3519TIP3    H234753   3.504   0.298  10.728 -0.8180  0.0832  0.9254
 3520TIP3   OH234754   0.160   5.392  10.737 -0.1664  0.1885 -0.4300
 3520TIP3    H134755   0.212   5.312  10.739 -0.1458  0.1650 -1.5332
 3520TIP3    H234756   0.215   5.458  10.777  0.3295 -0.0531 -0.7120
 3521TIP3   OH234757   3.443   2.201  12.102 -0.4188 -0.0292 -0.9642
 3521TIP3    H134758   3.348   2.200  12.102 -0.4573  0.1763  1.0346
 3521TIP3    H234759   3.467   2.210  12.009 -2.3034 -0.8645 -1.5800
 3522TIP3   OH234760   6.207   2.941  10.321 -0.0628 -0.6450  0.2289
 3522TIP3    H134761   6.187   3.002  10.250 -0.6311 -0.7499  0.2981
 3522TIP3    H234762   6.235   2.861  10.276  0.5685 -0.3768  0.1367
 3523TIP3   OH234763   1.192   4.732  11.504 -0.3095 -0.1220  0.5496
 3523TIP3    H134764   1.237   4.708  11.585 -0.6014 -2.0315  0.1834
 3523TIP3    H234765   1.100   4.714  11.521 -0.6386  1.3440  0.4326
 3524TIP3   OH234766   1.865   2.477  11.667 -0.6585  0.3600  0.1052
 3524TIP3    H134767   1.931   2.544  11.687 -0.9995  1.0522 -1.0093
 3524TIP3    H234768   1.850   2.433  11.751  1.8787 -0.4322  0.2319
 3525TIP3   OH234769   5.979   0.561  12.170  0.3056  0.0750  0.5651
 3525TIP3    H134770   6.017   0.568  12.257  0.6028  1.6821  0.3392
 3525TIP3    H234771   6.052   0.532  12.114  0.1463 -0.8300  0.8136
 3526TIP3   OH234772   5.264   4.687   9.633  0.4154 -0.2545 -0.5150
 3526TIP3    H134773   5.314   4.606   9.631  2.8719  1.0345  1.9140
 3526TIP3    H234774   5.210   4.680   9.712 -0.9566 -0.3181 -1.4199
 3527TIP3   OH234775   4.636   5.573  10.605  0.3752  0.3690 -0.1894
 3527TIP3    H134776   4.582   5.590  10.683 -0.2034  1.3852 -0.7961
 3527TIP3    H234777   4.601   5.631  10.538  1.1380 -0.1944 -1.1023
 3528TIP3   OH234778   4.915   2.011  10.094 -0.6486 -0.6886  0.4639
 3528TIP3    H134779   4.925   2.060  10.176 -0.6575  0.0661  0.0219
 3528TIP3    H234780   4.942   1.922  10.116  3.9705  0.3673  0.2722
 3529TIP3   OH234781   1.792   0.921  11.359  0.1717 -0.3763  0.3257
 3529TIP3    H134782   1.799   1.011  11.328 -1.5656 -0.7992 -1.4689
 3529TIP3    H234783   1.700   0.898  11.347  0.3050 -1.9965  1.9603
 3530TIP3   OH234784   5.679   4.920   9.952  0.4658  0.3488 -0.2029
 3530TIP3    H134785   5.701   4.975   9.877 -0.8299  1.4538  0.1974
 3530TIP3    H234786   5.587   4.938   9.969  0.3379 -1.0206  0.7287
 3531TIP3   OH234787   2.140   4.264  11.044 -0.0452  0.0703  0.1777
 3531TIP3    H134788   2.204   4.205  11.084  0.9857  1.1756  0.2051
 3531TIP3    H234789   2.106   4.315  11.117  2.5720  2.8031 -0.3077
 3532TIP3   OH234790   3.119   1.187   9.821  0.3432  0.6761 -0.2425
 3532TIP3    H134791   3.156   1.240   9.750  0.8455 -0.2910 -0.7376
 3532TIP3    H234792   3.034   1.160   9.789 -0.8100  2.7795  0.8365
 3533TIP3   OH234793   3.998   3.582   9.166  0.0169 -0.0712  0.0723
 3533TIP3    H134794   3.979   3.533   9.246 -1.1659 -0.6748 -0.5554
 3533TIP3    H234795   3.984   3.519   9.096  0.6157  0.5734 -0.6379
 3534TIP3   OH234796   0.889   2.872  11.359 -0.1358  0.2634 -0.3376
 3534TIP3    H134797   0.934   2.835  11.283  0.4656  0.2426  0.0227
 3534TIP3    H234798   0.843   2.799  11.399 -0.5829  0.3036 -0.7634
 3535TIP3   OH234799   2.032   1.351  10.793 -0.0337  0.3098 -0.3308
 3535TIP3    H134800   2.091   1.321  10.862  1.2665  2.7772 -0.2437
 3535TIP3    H234801   1.962   1.397  10.838 -1.3103 -1.3681 -0.5180
 3536TIP3   OH234802   2.253   6.362  10.139 -0.0334  0.2704  0.5643
 3536TIP3    H134803   2.243   6.455  10.161 -0.5731  0.5287 -0.7262
 3536TIP3    H234804   2.301   6.361  10.057  0.2141 -0.6064  0.7098
 3537TIP3   OH234805   3.014   1.971  12.344 -0.4612  0.0759  0.2669
 3537TIP3    H134806   3.103   1.992  12.370 -1.1928  2.6011  0.9612
 3537TIP3    H234807   2.973   1.937  12.424 -0.6024  0.5747  0.4067
 3538TIP3   OH234808   4.945   0.581   9.671  0.6375  0.3487 -0.1040
 3538TIP3    H134809   5.021   0.573   9.613 -0.0689 -1.3075 -0.8384
 3538TIP3    H234810   4.874   0.611   9.614  0.3533  0.3640  0.2570
 3539TIP3   OH234811   5.668   0.710  10.280 -0.2826 -0.2044 -0.1254
 3539TIP3    H134812   5.622   0.629  10.256 -0.9429  0.2985 -0.6139
 3539TIP3    H234813   5.599   0.768  10.311  0.2242  0.0849  0.4719
 3540TIP3   OH234814   2.875   5.442   9.693 -0.0014  0.0978  0.2784
 3540TIP3    H134815   2.815   5.381   9.652  0.5357 -0.3311  0.1135
 3540TIP3    H234816   2.960   5.422   9.654  0.0738  1.4054 -0.3071
 3541TIP3   OH234817   0.582   6.019  10.641 -0.5390  0.1176  0.1155
 3541TIP3    H134818   0.563   6.041  10.550  0.3675 -1.8534 -0.6105
 3541TIP3    H234819   0.659   6.072  10.663 -2.0499  2.2515  0.5155
 3542TIP3   OH234820   0.571   3.736  11.649 -0.0144  0.1924 -0.7717
 3542TIP3    H134821   0.604   3.705  11.734 -0.0150  0.9521 -0.4786
 3542TIP3    H234822   0.503   3.674  11.625  0.3930 -0.3654 -0.5005
 3543TIP3   OH234823   2.471   1.980   8.554 -0.7039  0.2472 -0.7187
 3543TIP3    H134824   2.516   1.896   8.544 -1.4165 -0.1847 -0.3644
 3543TIP3    H234825   2.540   2.046   8.544  0.3400 -0.4179  1.4549
 3544TIP3   OH234826   0.756   3.715  10.332  0.2714 -0.1542 -0.4671
 3544TIP3    H134827   0.711   3.648  10.281 -0.6298  0.7187 -0.8483
 3544TIP3    H234828   0.848   3.694  10.323 -0.0343 -2.6100  1.1671
 3545TIP3   OH234829   4.868   1.698  10.558 -0.8191  0.0867 -0.0689
 3545TIP3    H134830   4.849   1.674  10.649 -1.7021 -0.3951 -0.3655
 3545TIP3    H234831   4.963   1.694  10.551 -0.7644 -0.2151  0.7443
 3546TIP3   OH234832   0.877   0.308   8.961 -0.0985  0.2814 -0.0489
 3546TIP3    H134833   0.902   0.326   9.052  0.0498  1.8856 -0.3921
 3546TIP3    H234834   0.936   0.237   8.934 -1.3354 -1.5192  1.6301
 3547TIP3   OH234835   2.027   0.465  12.090 -0.4052 -0.0003 -0.6325
 3547TIP3    H134836   1.967   0.533  12.121 -1.5752 -1.9173  1.5736
 3547TIP3    H234837   2.065   0.428  12.169 -0.8015 -2.7776 -1.6428
 3548TIP3   OH234838   1.750   5.822  11.820  1.0065 -0.0976 -0.1405
 3548TIP3    H134839   1.830   5.865  11.851  1.4994 -2.3960  2.1418
 3548TIP3    H234840   1.765   5.807  11.727  3.0233 -0.0110  0.1321
 3549TIP3   OH234841   0.119   1.837  11.288  0.1542 -0.4167 -0.1825
 3549TIP3    H134842   0.094   1.911  11.232 -1.4744 -0.8021 -0.0166
 3549TIP3    H234843   0.140   1.877  11.372  0.4575 -0.0376 -0.4322
 3550TIP3   OH234844   2.097   1.426  10.424 -0.0767 -0.1348 -0.0422
 3550TIP3    H134845   2.084   1.470  10.508  2.9783 -0.1020  0.5535
 3550TIP3    H234846   2.127   1.495  10.365 -2.4745 -0.1033 -1.3220
 3551TIP3   OH234847   5.928   3.989   9.448  0.4487 -0.0633 -0.0553
 3551TIP3    H134848   5.833   3.991   9.432  0.5181  0.3617 -0.4395
 3551TIP3    H234849   5.967   3.994   9.361  0.8263 -0.2364  0.1009
 3552TIP3   OH234850   5.099   5.132  11.070  0.2776 -0.0052  0.6330
 3552TIP3    H134851   5.069   5.176  10.991 -0.2416 -0.2864  0.6697
 3552TIP3    H234852   5.140   5.051  11.039 -1.1105 -0.7690  0.7176
 3553TIP3   OH234853   4.477   1.153  10.137  0.2179  0.3818  0.4444
 3553TIP3    H134854   4.482   1.192  10.225 -0.7003 -0.0291  0.6881
 3553TIP3    H234855   4.385   1.163  10.112  0.2680 -0.3803 -0.0653
 3554TIP3   OH234856   4.257   1.485  10.795  0.3794 -0.1196  0.1015
 3554TIP3    H134857   4.269   1.426  10.721 -2.4112  0.5352 -0.9802
 3554TIP3    H234858   4.187   1.444  10.847  0.8155  0.5208  1.2382
 3555TIP3   OH234859   6.378   3.517   9.596  0.8354 -0.0959  0.2012
 3555TIP3    H134860   6.457   3.506   9.649 -0.3380 -1.4718  1.7645
 3555TIP3    H234861   6.410   3.546   9.511  2.9872 -0.2163  0.9147
 3556TIP3   OH234862   5.611   1.143   9.621 -1.0159  0.1838  0.0618
 3556TIP3    H134863   5.613   1.083   9.695  0.1116  0.9645  0.7002
 3556TIP3    H234864   5.518   1.153   9.600 -1.2260 -2.4262 -0.6427
 3557TIP3   OH234865   4.659   2.683   9.903  0.0479  0.1461  0.1744
 3557TIP3    H134866   4.600   2.721   9.969  0.2029  2.0537 -0.7207
 3557TIP3    H234867   4.602   2.663   9.829  0.0770 -0.7832  0.3986
 3558TIP3   OH234868   4.044   2.915   9.223  0.1325  0.6845  0.3347
 3558TIP3    H134869   4.118   2.945   9.169 -1.1548  0.5126 -1.6272
 3558TIP3    H234870   4.052   2.820   9.224  0.0386  0.6765  0.2882
 3559TIP3   OH234871   1.059   2.428  11.372 -0.2314 -0.0620 -0.2870
 3559TIP3    H134872   1.049   2.460  11.282 -0.2708 -1.5217 -0.8258
 3559TIP3    H234873   0.980   2.460  11.417 -0.1078  0.8681 -0.6887
 3560TIP3   OH234874   2.923   1.060  10.230 -0.1111  0.2016  0.2973
 3560TIP3    H134875   2.897   1.013  10.309 -0.7501  0.7398  0.4113
 3560TIP3    H234876   2.869   1.138  10.229  0.9735  0.9689  0.1302
 3561TIP3   OH234877   6.491   5.322  12.183  0.9141 -0.0542  0.4599
 3561TIP3    H134878   6.400   5.330  12.155  1.0599 -1.1576 -0.4230
 3561TIP3    H234879   6.493   5.362  12.270 -0.1140  1.1810 -0.0606
 3562TIP3   OH234880   1.068   0.306  11.883  0.3357 -0.0690 -0.0554
 3562TIP3    H134881   1.021   0.381  11.920 -0.3098  0.3247 -1.6009
 3562TIP3    H234882   1.072   0.242  11.955 -1.6742  0.2974  0.4370
 3563TIP3   OH234883   4.495   2.897   9.229  0.6581  0.6636 -0.3138
 3563TIP3    H134884   4.407   2.935   9.238  0.1716 -0.2043 -1.1796
 3563TIP3    H234885   4.551   2.971   9.207  0.1048  1.1984  0.0344
 3564TIP3   OH234886   5.500   0.868  11.034  0.2433 -0.5278  0.2759
 3564TIP3    H134887   5.522   0.948  10.986  0.3435 -0.4493  0.4503
 3564TIP3    H234888   5.492   0.801  10.967  0.3700 -0.4158  0.1474
 3565TIP3   OH234889   4.889   5.899  11.150 -0.1604  0.5664  0.7632
 3565TIP3    H134890   4.854   5.912  11.239 -0.2466  1.7226  0.5797
 3565TIP3    H234891   4.978   5.935  11.154 -0.0121  0.2308  0.4901
 3566TIP3   OH234892   4.143   6.495  12.272  0.0673 -0.1808 -0.4465
 3566TIP3    H134893   4.061   6.447  12.286  0.2875 -0.5044 -0.2530
 3566TIP3    H234894   4.123   6.555  12.199 -0.9086  1.0823  0.8002
 3567TIP3   OH234895   4.025   2.277  11.993  0.6623 -0.2827  0.0521
 3567TIP3    H134896   3.998   2.193  12.032 -0.5055 -0.5974 -1.3457
 3567TIP3    H234897   4.093   2.310  12.052  0.5023 -1.7713  1.1317
 3568TIP3   OH234898   0.027   3.945  11.613 -0.3412 -0.1620 -0.1010
 3568TIP3    H134899  -0.010   3.972  11.529 -1.1391 -0.7495  0.0556
 3568TIP3    H234900   0.098   4.008  11.628 -0.1873 -0.0410 -1.2040
 3569TIP3   OH234901   4.737   5.802   9.101 -0.0693  0.7116  0.9242
 3569TIP3    H134902   4.687   5.867   9.052  0.9888  1.1833  0.4286
 3569TIP3    H234903   4.677   5.772   9.170 -1.6696 -0.1567 -0.7711
 3570TIP3   OH234904   3.578   1.213  10.208 -0.0935  0.0911  0.1697
 3570TIP3    H134905   3.640   1.278  10.240 -1.1830  0.7026  1.1312
 3570TIP3    H234906   3.604   1.197  10.117  0.6011  1.3748  0.1207
 3571TIP3   OH234907   3.222   6.263  10.242  0.7087 -0.0185  0.4205
 3571TIP3    H134908   3.194   6.269  10.150  0.9424  0.8164  0.3949
 3571TIP3    H234909   3.231   6.354  10.270  0.0501 -0.2600  1.4647
 3572TIP3   OH234910   2.205   6.022  10.766 -0.1944 -0.0116  0.0984
 3572TIP3    H134911   2.186   5.937  10.806 -1.6536  0.6931  0.9746
 3572TIP3    H234912   2.214   6.002  10.672 -0.5014 -1.1375  0.2868
 3573TIP3   OH234913   6.533   0.357  10.194 -0.1813 -0.3543  0.2791
 3573TIP3    H134914   6.531   0.287  10.130 -0.4679 -0.1269  0.0380
 3573TIP3    H234915   6.516   0.314  10.278 -1.3222 -0.4395  0.0123
 3574TIP3   OH234916   6.442   3.989  10.275 -0.2872  0.2495  0.1382
 3574TIP3    H134917   6.445   4.084  10.284 -0.2857  0.6924 -3.2639
 3574TIP3    H234918   6.365   3.973  10.219 -0.0358 -1.7121  0.2834
 3575TIP3   OH234919   5.496   1.158  12.122 -0.2421  0.5396 -0.0045
 3575TIP3    H134920   5.410   1.131  12.153  0.0882 -0.2542  0.2561
 3575TIP3    H234921   5.554   1.086  12.148  0.4567  0.9626 -0.3716
 3576TIP3   OH234922   6.218   4.397   9.899  0.5936 -0.3739  0.2760
 3576TIP3    H134923   6.242   4.479   9.856  0.9052 -0.7292 -0.2357
 3576TIP3    H234924   6.178   4.425   9.982  1.2762  0.2725  0.4024
 3577TIP3   OH234925   2.828   3.677  10.025  0.1432 -0.2761 -0.1649
 3577TIP3    H134926   2.924   3.678  10.028  0.1599 -1.0464 -0.2078
 3577TIP3    H234927   2.803   3.769  10.019  0.8999 -0.1035 -0.7347
 3578TIP3   OH234928   1.903   0.005  11.980  0.3128  0.3809 -0.1150
 3578TIP3    H134929   1.809  -0.012  11.982  0.3435  0.2103 -0.1258
 3578TIP3    H234930   1.910   0.100  11.993 -0.0609  1.1132 -3.8985
 3579TIP3   OH234931   3.670   4.674  10.980  0.0563 -0.2352  0.1966
 3579TIP3    H134932   3.728   4.622  11.034  0.2949 -0.2279 -0.0503
 3579TIP3    H234933   3.728   4.725  10.924 -0.1612  0.5059  0.6239
 3580TIP3   OH234934   4.261   2.789  11.251 -0.4050  0.4868  0.0718
 3580TIP3    H134935   4.207   2.712  11.232  1.2371 -0.8463  0.5208
 3580TIP3    H234936   4.202   2.850  11.294 -1.8373 -0.4000 -0.5435
 3581TIP3   OH234937   4.905   2.542  12.376  0.0186  0.0597  0.0942
 3581TIP3    H134938   4.980   2.483  12.365  0.3896  0.3807  0.7955
 3581TIP3    H234939   4.935   2.607  12.440 -1.2913 -0.5591  1.3980
 3582TIP3   OH234940   4.931   5.166  11.720 -0.0427 -0.0463 -0.4327
 3582TIP3    H134941   4.978   5.109  11.782  1.5524  1.4236 -0.2419
 3582TIP3    H234942   4.906   5.107  11.649  0.5160 -1.2210  0.2977
 3583TIP3   OH234943   1.304   2.851  10.709  0.1064  0.2002  0.3965
 3583TIP3    H134944   1.365   2.812  10.771  0.3472  1.9872  1.3286
 3583TIP3    H234945   1.312   2.945  10.722 -1.2302  0.5601 -1.0300
 3584TIP3   OH234946   6.018   2.786  11.158 -0.3090 -0.0099 -0.8863
 3584TIP3    H134947   5.999   2.753  11.246 -0.4528  3.2199  0.4332
 3584TIP3    H234948   5.944   2.841  11.137  0.6371  0.8098 -2.2159
 3585TIP3   OH234949   2.987   2.689  10.165 -0.6012  0.2449 -0.4087
 3585TIP3    H134950   2.935   2.665  10.088 -0.8226  2.0388 -0.8507
 3585TIP3    H234951   2.972   2.617  10.227 -1.9280 -0.3044 -1.3230
 3586TIP3   OH234952   1.865   2.048   9.324  0.2603  0.4273  0.1975
 3586TIP3    H134953   1.832   1.998   9.398  0.2632  0.7602  0.4261
 3586TIP3    H234954   1.794   2.047   9.260 -0.0091  0.7261  0.4866
 3587TIP3   OH234955   0.790   5.092  10.640 -0.2728  0.5310  0.6557
 3587TIP3    H134956   0.824   5.006  10.616  1.2398  1.4612 -0.8157
 3587TIP3    H234957   0.823   5.106  10.729 -1.5815 -0.8801  1.3964
 3588TIP3   OH234958   6.561   3.656  10.387 -0.5214 -0.0340 -0.1326
 3588TIP3    H134959   6.465   3.650  10.384 -0.4831 -1.9361  0.8538
 3588TIP3    H234960   6.578   3.731  10.444 -1.4257  0.2800 -0.2526
 3589TIP3   OH234961   2.020   4.384  10.252  0.5444  0.4591  0.3669
 3589TIP3    H134962   1.930   4.418  10.250  0.5740  0.5202 -0.5600
 3589TIP3    H234963   2.030   4.346  10.339 -0.4061  0.4100  0.4624
 3590TIP3   OH234964   2.265   5.488  11.042 -0.3380  0.1033  0.5833
 3590TIP3    H134965   2.274   5.410  11.097 -0.4836  0.1611  0.6913
 3590TIP3    H234966   2.183   5.528  11.071 -0.7859 -0.2519 -0.1807
 3591TIP3   OH234967   6.090   6.112   9.623 -0.4508 -0.7544 -0.1055
 3591TIP3    H134968   6.067   6.179   9.687 -1.6978 -1.1039 -0.1541
 3591TIP3    H234969   6.136   6.159   9.554  2.4908 -0.6113  1.7606
 3592TIP3   OH234970   2.357   2.101  10.214 -0.5385  0.6602  0.0581
 3592TIP3    H134971   2.369   2.102  10.309 -0.5218  2.6214  0.0849
 3592TIP3    H234972   2.445   2.110  10.179 -0.5251 -0.2777 -0.1502
 3593TIP3   OH234973   4.493   4.107   9.930 -0.1228 -0.4136 -0.1696
 3593TIP3    H134974   4.521   4.037   9.871  1.0369  0.6155 -0.9051
 3593TIP3    H234975   4.481   4.065  10.015  2.7771 -1.1662 -0.0406
 3594TIP3   OH234976   3.970   1.908  10.949 -0.0901  0.0393  0.6029
 3594TIP3    H134977   4.004   1.842  10.889  0.7851  1.5043 -0.5949
 3594TIP3    H234978   3.943   1.980  10.892  1.8395  1.9628  1.9578
 3595TIP3   OH234979   2.263   2.674  11.666  0.4501  0.2684 -0.0381
 3595TIP3    H134980   2.335   2.707  11.612  0.8640  1.6781  1.3272
 3595TIP3    H234981   2.299   2.595  11.707  1.3093  1.0728  0.7886
 3596TIP3   OH234982   0.327   3.876   9.491  0.4014  0.0650  0.0870
 3596TIP3    H134983   0.388   3.886   9.564 -0.1914 -0.6747  0.7048
 3596TIP3    H234984   0.240   3.890   9.530  0.0976 -0.0637 -0.5300
 3597TIP3   OH234985   5.745   4.751  12.357 -0.2749 -0.2208  0.5422
 3597TIP3    H134986   5.669   4.809  12.350  0.3533  0.5365 -0.1979
 3597TIP3    H234987   5.754   4.735  12.451 -0.1445  1.3555  0.8335
 3598TIP3   OH234988   0.131   1.452  11.808  0.3374  0.0857  0.0971
 3598TIP3    H134989   0.102   1.406  11.729  1.6580  1.0632 -0.9989
 3598TIP3    H234990   0.158   1.539  11.777 -0.5159  1.0437  1.8613
 3599TIP3   OH234991   2.875   5.502  12.400 -0.0699  0.1272 -0.0225
 3599TIP3    H134992   2.840   5.414  12.394  0.5078 -0.0747 -0.5375
 3599TIP3    H234993   2.802   5.555  12.431 -0.9756 -0.2059 -1.4691
 3600TIP3   OH234994   3.280   1.665  11.386  0.1538  0.1440 -0.8139
 3600TIP3    H134995   3.212   1.627  11.330  1.1487 -1.4133 -1.0424
 3600TIP3    H234996   3.360   1.618  11.361  0.6495 -0.6003  1.8473
 3601TIP3   OH234997   0.682   6.255  11.544 -0.1425 -0.5952 -0.6628
 3601TIP3    H134998   0.659   6.343  11.572  1.6650 -0.2478 -0.1383
 3601TIP3    H234999   0.613   6.199  11.581  0.9315  0.0903  2.8076
 3602TIP3   OH235000   3.182   1.328   8.989  0.9190  0.3497  0.2032
 3602TIP3    H135001   3.201   1.369   8.905  1.3710 -1.0868 -0.4258
 3602TIP3    H235002   3.174   1.234   8.970  0.1181  0.0866  1.6127
 3603TIP3   OH235003   2.008   2.745  10.600 -0.2403  0.2883 -0.3968
 3603TIP3    H135004   2.092   2.726  10.558 -0.2737 -1.5219  0.3038
 3603TIP3    H235005   2.016   2.837  10.627  1.1929  0.3856 -1.0491
 3604TIP3   OH235006   1.506   4.840  11.068  0.3052  0.1310  0.1864
 3604TIP3    H135007   1.548   4.764  11.107  0.7631  0.8068  1.0256
 3604TIP3    H235008   1.576   4.886  11.022  0.8358  1.9487  2.6400
 3605TIP3   OH235009   6.569   2.772   8.553 -0.5907  0.4459  0.2631
 3605TIP3    H135010   6.611   2.856   8.540 -0.6840  0.0698 -3.6692
 3605TIP3    H235011   6.641   2.709   8.562 -0.5220  0.8114  3.1694
 3606TIP3   OH235012   4.600   1.373   9.203  0.0098  0.0723  0.4205
 3606TIP3    H135013   4.691   1.353   9.180 -0.4958 -0.1765 -1.5937
 3606TIP3    H235014   4.586   1.461   9.170 -0.5742 -0.0405  0.3529
 3607TIP3   OH235015   1.549   1.244   8.039  0.4018 -0.2363 -0.2546
 3607TIP3    H135016   1.545   1.340   8.037  1.4327 -0.1502  0.6022
 3607TIP3    H235017   1.460   1.216   8.019 -0.0946  0.9283  0.1997
 3608TIP3   OH235018   4.520   1.912   9.802  0.1650 -0.1714  0.4027
 3608TIP3    H135019   4.609   1.922   9.837 -0.0034 -1.1591  1.1534
 3608TIP3    H235020   4.533   1.870   9.717  0.4309 -0.3594  0.5304
 3609TIP3   OH235021   0.816   6.573  11.621  0.6750  0.0559  0.0542
 3609TIP3    H135022   0.730   6.577  11.663 -0.2671 -1.2514 -1.5957
 3609TIP3    H235023   0.845   6.664  11.616 -0.4243  0.4796  1.0147
 3610TIP3   OH235024   4.586   0.117  12.321  0.2270 -0.2102  0.1087
 3610TIP3    H135025   4.631   0.062  12.385  1.0722  0.3297 -0.0064
 3610TIP3    H235026   4.496   0.121  12.353  0.6440  0.1172  1.3082
 3611TIP3   OH235027   5.267   1.863  10.102  0.2574 -0.1487 -0.1814
 3611TIP3    H135028   5.351   1.822  10.079 -0.2840 -1.0088 -0.6954
 3611TIP3    H235029   5.201   1.807  10.061 -0.7178 -1.0585  2.3863
 3612TIP3   OH235030   0.561   5.093  10.468 -0.1444 -0.4323 -0.5396
 3612TIP3    H135031   0.491   5.137  10.518  0.0995 -1.3467  0.6550
 3612TIP3    H235032   0.638   5.100  10.524  0.6822  0.3015 -1.7171
 3613TIP3   OH235033   2.637   6.612  10.958 -0.0751 -0.1924  0.1064
 3613TIP3    H135034   2.674   6.674  11.022  0.2141  1.0827 -1.2404
 3613TIP3    H235035   2.613   6.667  10.883 -2.3193 -1.3539 -0.1036
 3614TIP3   OH235036   1.223   3.234  11.688  0.8230  0.5608  0.4387
 3614TIP3    H135037   1.146   3.246  11.633  1.5393  0.3984 -0.6210
 3614TIP3    H235038   1.231   3.139  11.698  1.2292  0.5471  0.0312
 3615TIP3   OH235039   5.414   4.538  10.192  0.9598 -0.1047 -0.9797
 3615TIP3    H135040   5.368   4.594  10.255 -1.2455 -0.6396 -2.0620
 3615TIP3    H235041   5.418   4.453  10.235 -0.9267 -0.5820 -1.6667
 3616TIP3   OH235042   4.927   2.804   9.427  0.1587  0.1262  0.2549
 3616TIP3    H135043   4.889   2.798   9.339 -0.5446  0.6810  0.5185
 3616TIP3    H235044   4.951   2.896   9.437 -2.2408  0.6631  1.6578
 3617TIP3   OH235045   0.775   6.476  10.243 -0.6026 -0.8598  0.3108
 3617TIP3    H135046   0.824   6.503  10.321  0.3806 -1.4803 -0.0789
 3617TIP3    H235047   0.688   6.454  10.276 -1.1090  1.6424  0.8164
 3618TIP3   OH235048   4.507   3.762   9.254 -0.6651  0.0667 -0.4805
 3618TIP3    H135049   4.543   3.843   9.218  0.0199  0.2858  0.6526
 3618TIP3    H235050   4.441   3.792   9.317 -1.7398 -0.3049 -1.3961
 3619TIP3   OH235051   2.520   4.426  11.626 -0.4869  0.3901  0.2008
 3619TIP3    H135052   2.520   4.446  11.720 -0.7599 -0.5190  0.3992
 3619TIP3    H235053   2.472   4.344  11.618 -0.2110  0.3010 -0.7076
 3620TIP3   OH235054   4.106   0.938  10.189 -0.8711 -0.2506 -0.2347
 3620TIP3    H135055   4.048   0.957  10.116 -1.2883  1.4817  0.5077
 3620TIP3    H235056   4.172   1.007  10.187 -1.9835  0.9795  2.1112
 3621TIP3   OH235057   4.369   5.683   9.713 -0.0963 -0.0467  0.0644
 3621TIP3    H135058   4.331   5.611   9.763  0.8056 -2.3241 -2.3436
 3621TIP3    H235059   4.300   5.750   9.714 -1.1093 -0.9976  2.0796
 3622TIP3   OH235060   1.719   5.025  10.616  0.1136 -0.2257  0.5826
 3622TIP3    H135061   1.749   4.935  10.604  0.5515  0.0094 -0.1260
 3622TIP3    H235062   1.624   5.018  10.623  0.0266 -0.6098 -0.8145
 3623TIP3   OH235063   5.790   4.319  10.918  0.0340  0.1822 -0.0420
 3623TIP3    H135064   5.705   4.276  10.914  0.2056 -0.2626  0.9389
 3623TIP3    H235065   5.791   4.377  10.841 -1.7053  1.2441  0.6826
 3624TIP3   OH235066   3.571   1.178   9.914  0.0655 -0.4114  0.5010
 3624TIP3    H135067   3.509   1.118   9.872  0.3179 -0.8840  0.7975
 3624TIP3    H235068   3.548   1.264   9.879 -2.1596 -0.2350  2.1827
 3625TIP3   OH235069   6.550   3.796  10.786  0.1509 -0.2169 -0.3399
 3625TIP3    H135070   6.576   3.843  10.706  1.7686 -0.7193 -0.1506
 3625TIP3    H235071   6.553   3.704  10.761 -0.7819 -0.3225 -0.0859
 3626TIP3   OH235072   3.190   5.047  10.083  0.0656 -0.1477  0.3152
 3626TIP3    H135073   3.113   4.997  10.110  1.3178 -0.9422  2.7383
 3626TIP3    H235074   3.263   5.007  10.131  2.2169 -0.1118 -2.6558
 3627TIP3   OH235075   5.631   5.576   9.963 -0.4116 -0.2194 -0.3763
 3627TIP3    H135076   5.536   5.582   9.971 -0.2151  1.0368  1.6747
 3627TIP3    H235077   5.658   5.526  10.039  0.4170 -3.2632 -2.4896
 3628TIP3   OH235078   0.438   2.323   9.554 -0.0766 -0.3866  0.0948
 3628TIP3    H135079   0.497   2.359   9.620 -0.2960  0.0847  0.0383
 3628TIP3    H235080   0.424   2.395   9.493  0.0994 -0.8093 -0.4525
 3629TIP3   OH235081   3.047   2.697  10.988 -0.5276  0.5994  0.2268
 3629TIP3    H135082   2.986   2.735  10.924  2.1263  0.5447 -2.6177
 3629TIP3    H235083   2.992   2.669  11.061 -4.1243 -0.9499 -2.7458
 3630TIP3   OH235084   2.918   4.303   9.496  1.0714 -0.4905  0.0369
 3630TIP3    H135085   2.869   4.361   9.554  0.1008 -1.0777 -0.1825
 3630TIP3    H235086   2.868   4.222   9.494  0.0761  0.0579 -2.9514
 3631TIP3   OH235087   1.939   3.928  12.108 -0.1131  0.3106 -0.0540
 3631TIP3    H135088   1.926   4.017  12.141 -0.3387 -0.1944  1.3067
 3631TIP3    H235089   1.914   3.872  12.182 -1.3497 -0.9198 -1.3624
 3632TIP3   OH235090   0.123   6.329  12.189  0.3152 -0.3317 -0.7822
 3632TIP3    H135091   0.070   6.398  12.149 -0.3857 -0.3218  0.1137
 3632TIP3    H235092   0.134   6.357  12.280  0.0209 -1.3943 -0.4076
 3633TIP3   OH235093   0.712   1.629  10.497 -0.5873  0.0227  0.0764
 3633TIP3    H135094   0.787   1.570  10.489 -1.0676 -0.4039 -1.6642
 3633TIP3    H235095   0.712   1.655  10.589  0.8565 -1.0669  0.4227
 3634TIP3   OH235096   0.596   6.514  12.280 -0.0819  0.5049 -0.0614
 3634TIP3    H135097   0.539   6.446  12.243  0.4182 -1.0150  1.7853
 3634TIP3    H235098   0.569   6.594  12.236 -1.0761 -0.7872 -1.9399
 3635TIP3   OH235099   3.394   5.826   8.969  0.3394  0.1236 -0.6679
 3635TIP3    H135100   3.411   5.891   9.038 -2.0677  0.9661 -0.7850
 3635TIP3    H235101   3.446   5.858   8.894  0.5500  0.9528 -0.1885
 3636TIP3   OH235102   0.852   4.284  10.716  0.2953  0.2778 -0.5710
 3636TIP3    H135103   0.823   4.233  10.640  0.7144 -2.9258  1.2134
 3636TIP3    H235104   0.925   4.234  10.751  0.6286  2.0763  1.5044
 3637TIP3   OH235105   2.195   0.652  10.852  0.3652  0.3284  0.7872
 3637TIP3    H135106   2.240   0.736  10.842  1.4546  0.0288  2.6977
 3637TIP3    H235107   2.252   0.589  10.808 -0.7542  0.6016 -1.1897
 3638TIP3   OH235108   0.792   6.567   9.370  0.7513  0.0156  0.0834
 3638TIP3    H135109   0.707   6.533   9.398  0.6068 -0.0769 -0.4473
 3638TIP3    H235110   0.791   6.557   9.275  0.0870  2.8875 -0.2986
 3639TIP3   OH235111   3.282   5.896  12.279 -0.0557  0.1343 -0.3713
 3639TIP3    H135112   3.246   5.950  12.209  0.6927  0.4799 -0.4973
 3639TIP3    H235113   3.211   5.888  12.342  0.2740  2.6421  0.4425
 3640TIP3   OH235114   3.341   5.648   8.704  0.0190 -0.0503  0.8066
 3640TIP3    H135115   3.380   5.569   8.669  0.1218  1.4740 -3.0725
 3640TIP3    H235116   3.414   5.709   8.716 -0.3868  0.4964  0.5668
 3641TIP3   OH235117   1.318   3.345   9.384 -0.3945 -0.3048 -0.4006
 3641TIP3    H135118   1.365   3.425   9.361 -1.4448  0.8230  1.1577
 3641TIP3    H235119   1.364   3.312   9.462 -0.7125 -0.5419 -0.3121
 3642TIP3   OH235120   4.099   3.511  10.117  0.8041 -0.1137  0.2943
 3642TIP3    H135121   4.091   3.415  10.110  0.0558 -0.1228  1.0915
 3642TIP3    H235122   4.191   3.525  10.140  1.1509 -0.5725 -0.7469
 3643TIP3   OH235123   3.035   2.511  12.490 -0.1278  0.5950 -0.3255
 3643TIP3    H135124   3.068   2.583  12.437  0.6870  0.0173 -0.6306
 3643TIP3    H235125   2.990   2.454  12.428 -0.5216  0.7020 -0.1363
 3644TIP3   OH235126   2.203   4.386  11.382  0.4534 -0.1370 -0.0872
 3644TIP3    H135127   2.163   4.472  11.371  0.2006 -0.3664 -1.1190
 3644TIP3    H235128   2.290   4.395  11.343  0.6373 -0.1982  0.3081
 3645TIP3   OH235129   5.020   1.585  11.540 -0.0547  0.0771 -0.2088
 3645TIP3    H135130   5.081   1.515  11.518  0.0279 -0.0344  0.3517
 3645TIP3    H235131   5.011   1.636  11.460  3.1931  1.9468  0.4584
 3646TIP3   OH235132   4.117   5.083   9.865  0.1802 -1.4038 -0.0391
 3646TIP3    H135133   4.086   5.024   9.933  0.7511 -0.0148  1.4934
 3646TIP3    H235134   4.068   5.059   9.787  0.2640 -3.7440  0.5757
 3647TIP3   OH235135   4.139   0.267  11.898 -0.7269  0.0006  0.0031
 3647TIP3    H135136   4.141   0.224  11.984  2.6828 -0.0430  0.0366
 3647TIP3    H235137   4.140   0.196  11.835  4.6130 -0.3236  0.0604
 3648TIP3   OH235138   4.480   1.380  11.212  0.2740  0.3230 -0.7358
 3648TIP3    H135139   4.495   1.373  11.118 -2.0368  1.5695 -1.2595
 3648TIP3    H235140   4.438   1.465  11.224  2.2934  1.1095  1.7165
 3649TIP3   OH235141   3.435   1.387  12.215 -0.0627 -0.2000  0.9279
 3649TIP3    H135142   3.371   1.392  12.286  2.5870 -0.1451  3.4514
 3649TIP3    H235143   3.472   1.475  12.210  0.3703 -0.4224 -0.0116
 3650TIP3   OH235144   3.441   6.321   8.617  0.0732 -0.1380  0.1212
 3650TIP3    H135145   3.493   6.394   8.651 -1.6040  0.9414  0.4926
 3650TIP3    H235146   3.369   6.364   8.570 -0.4931 -1.5850 -0.3641
 3651TIP3   OH235147   3.717   4.242  12.290 -0.1996  0.2254 -0.1703
 3651TIP3    H135148   3.765   4.283  12.218 -0.4318  1.7424  0.5089
 3651TIP3    H235149   3.771   4.167  12.315  0.8375  0.7832 -0.6703
 3652TIP3   OH235150   3.553   5.645  11.213 -0.2515 -0.6079 -0.8661
 3652TIP3    H135151   3.635   5.599  11.194 -1.3634 -2.7778 -0.7284
 3652TIP3    H235152   3.544   5.708  11.142  1.4978 -0.3670 -0.9114
 3653TIP3   OH235153   0.320   5.321  11.636 -0.0168 -0.4183 -0.1196
 3653TIP3    H135154   0.391   5.348  11.578 -0.8621  0.8654 -0.5942
 3653TIP3    H235155   0.364   5.279  11.710  1.4461  2.3917  0.7348
 3654TIP3   OH235156   2.040   5.650  10.202  0.2521  0.0045  0.2438
 3654TIP3    H135157   2.041   5.652  10.297  0.9109 -0.1731  0.2467
 3654TIP3    H235158   2.033   5.742  10.176 -0.2793  0.0270  0.4594
 3655TIP3   OH235159   1.789   3.803   9.856 -0.5373  0.0331 -0.2559
 3655TIP3    H135160   1.784   3.788   9.950  0.5540 -0.0775 -0.2067
 3655TIP3    H235161   1.808   3.716   9.819  1.8217  0.4981 -0.3105
 3656TIP3   OH235162   3.479   0.415   9.080  0.2338  0.0142  0.2123
 3656TIP3    H135163   3.542   0.483   9.103 -0.0991 -0.4353  2.6727
 3656TIP3    H235164   3.394   0.457   9.090  0.0349  0.4818 -2.6446
 3657TIP3   OH235165   0.352   2.456  11.502  0.0328 -0.2263  0.1194
 3657TIP3    H135166   0.292   2.382  11.490 -0.7560  0.4617 -0.2584
 3657TIP3    H235167   0.297   2.533  11.495  0.7799  0.4037  0.9343
 3658TIP3   OH235168   3.347   3.930  11.149  0.1209 -0.0117  0.5247
 3658TIP3    H135169   3.436   3.907  11.174  0.6082  0.0918 -1.0348
 3658TIP3    H235170   3.323   4.002  11.209  1.2261  0.2448  0.6800
 3659TIP3   OH235171   6.351   2.624   8.958  0.0278 -0.0992  0.2915
 3659TIP3    H135172   6.403   2.549   8.930  2.4247  1.6895 -0.3920
 3659TIP3    H235173   6.280   2.629   8.894  0.3651 -1.2451 -0.1880
 3660TIP3   OH235174   2.141   2.003  10.070 -0.4767  1.1643  0.2356
 3660TIP3    H135175   2.083   2.059  10.019 -0.5526  1.5935  0.7800
 3660TIP3    H235176   2.202   2.063  10.112  1.0524  0.6501 -1.1374
 3661TIP3   OH235177   5.969   0.487  12.766  0.4350  0.3147  0.3282
 3661TIP3    H135178   5.922   0.541  12.702 -0.4308  0.2543  0.8889
 3661TIP3    H235179   5.901   0.460  12.829  0.5277 -2.5580 -0.6502
 3662TIP3   OH235180   1.011   5.841  11.221  0.2493  0.4900  0.3407
 3662TIP3    H135181   1.058   5.892  11.286  1.2957 -0.6048  0.4799
 3662TIP3    H235182   0.944   5.794  11.271 -1.1576  2.1880  0.1169
 3663TIP3   OH235183   4.804   5.097  11.185 -0.2787 -0.5679 -0.5002
 3663TIP3    H135184   4.814   5.112  11.091  0.4071  1.0218 -0.2084
 3663TIP3    H235185   4.834   5.007  11.199 -0.3090 -0.7899 -1.7817
 3664TIP3   OH235186   4.000   4.439  10.391 -0.0042 -0.3629 -0.4851
 3664TIP3    H135187   3.913   4.408  10.416 -0.0090 -0.1990 -0.2978
 3664TIP3    H235188   4.053   4.359  10.385 -0.5405 -0.6235 -2.1073
 3665TIP3   OH235189   0.989   5.745  10.174 -0.3827  0.1053 -0.0901
 3665TIP3    H135190   1.007   5.660  10.134 -1.3297  0.2722 -0.9023
 3665TIP3    H235191   0.986   5.727  10.268  0.7847 -0.4888 -0.1388
 3666TIP3   OH235192   2.496   6.097  10.833  0.2097  0.5649  0.5732
 3666TIP3    H135193   2.416   6.137  10.798  0.4330  1.4470  1.0314
 3666TIP3    H235194   2.512   6.021  10.777  1.0703  2.4270 -1.8721
 3667TIP3   OH235195   4.075   1.656  11.624  0.1197  0.2820 -0.2344
 3667TIP3    H135196   4.013   1.638  11.553  1.3987  0.1943 -1.3771
 3667TIP3    H235197   4.067   1.750  11.639 -1.3361  0.0437  0.6755
 3668TIP3   OH235198   4.292   1.751   8.510 -0.3265  0.1321 -0.0625
 3668TIP3    H135199   4.243   1.807   8.570 -2.3154  1.4196 -2.6941
 3668TIP3    H235200   4.227   1.691   8.474  0.9407 -1.0952 -0.3908
 3669TIP3   OH235201   5.787   2.956   9.388 -0.0610  0.4491  0.3190
 3669TIP3    H135202   5.866   3.009   9.394 -1.2454  2.2740  0.5765
 3669TIP3    H235203   5.755   2.970   9.299 -0.7693  0.7587  0.6128
 3670TIP3   OH235204   2.115   1.451  11.599 -0.1295  0.3355  0.2765
 3670TIP3    H135205   2.059   1.442  11.676 -0.1100 -0.1397  0.2396
 3670TIP3    H235206   2.114   1.544  11.579  0.5195  0.5874  1.3391
 3671TIP3   OH235207   2.158   4.131  11.564  0.1160 -0.0784 -0.0726
 3671TIP3    H135208   2.169   4.213  11.516 -0.0461 -1.3411 -2.4539
 3671TIP3    H235209   2.187   4.150  11.653  1.9854  2.0109 -1.0463
 3672TIP3   OH235210   1.991   0.889   9.909 -0.1518  0.0477  0.1020
 3672TIP3    H135211   2.046   0.930   9.843 -0.5928  0.2994 -0.1118
 3672TIP3    H235212   1.906   0.932   9.900 -0.9378 -1.5575 -0.8148
 3673TIP3   OH235213   1.218   1.062  10.649  0.2034 -0.0399  0.3949
 3673TIP3    H135214   1.298   1.012  10.667  0.2675  0.1909  0.7712
 3673TIP3    H235215   1.214   1.067  10.554 -0.1525 -1.3089  0.3334
 3674TIP3   OH235216   5.510   5.240  12.256 -0.0205  0.1470  0.3943
 3674TIP3    H135217   5.434   5.293  12.232 -0.2614 -0.4496 -0.2005
 3674TIP3    H235218   5.481   5.188  12.331  0.1588  0.7090  0.8620
 3675TIP3   OH235219   2.733   1.596  10.297  0.9551 -0.5159 -0.4804
 3675TIP3    H135220   2.698   1.604  10.209  2.4607 -0.8615 -1.1359
 3675TIP3    H235221   2.658   1.568  10.350 -0.4642  1.6678 -1.2094
 3676TIP3   OH235222   1.054   0.466   9.869  0.0386 -0.0323 -0.5316
 3676TIP3    H135223   1.031   0.373   9.863  1.8560 -0.6201  0.6325
 3676TIP3    H235224   1.060   0.495   9.778 -3.5136 -0.1677 -0.9599
 3677TIP3   OH235225   4.680   0.976  11.850 -0.0119 -0.3424  0.1084
 3677TIP3    H135226   4.658   1.022  11.931  0.1965 -1.8931  1.0948
 3677TIP3    H235227   4.597   0.944  11.817  0.0847 -1.1582  0.6399
 3678TIP3   OH235228   1.277   2.802  11.978 -0.3617  0.6385  0.0380
 3678TIP3    H135229   1.190   2.768  12.001 -0.1877  0.5119  0.5154
 3678TIP3    H235230   1.333   2.725  11.977 -0.4030  0.6013 -1.0455
 3679TIP3   OH235231   5.826   4.195  11.702 -0.4342 -0.1735 -0.2108
 3679TIP3    H135232   5.801   4.105  11.679 -0.0801 -0.1319 -0.7816
 3679TIP3    H235233   5.888   4.185  11.775 -0.6311 -0.3740 -0.0690
 3680TIP3   OH235234   4.095   0.840   9.489  0.0152 -0.3068  0.0625
 3680TIP3    H135235   4.091   0.764   9.547  1.3434 -1.1810 -0.9143
 3680TIP3    H235236   4.004   0.861   9.470 -0.3837 -1.5994  0.4509
 3681TIP3   OH235237   2.077   4.589  10.586  0.0069  0.6126 -0.3455
 3681TIP3    H135238   2.151   4.632  10.542 -0.9654  1.7919 -0.8657
 3681TIP3    H235239   2.054   4.516  10.527  0.1739  0.7947 -0.6400
 3682TIP3   OH235240   4.016   0.587   8.559  0.1590  0.0265 -0.3584
 3682TIP3    H135241   4.037   0.610   8.650 -2.4955  1.0032  0.0839
 3682TIP3    H235242   4.040   0.665   8.509  1.9600 -0.6421 -0.6096
 3683TIP3   OH235243   0.992   1.734   9.593 -0.2414 -0.4655  0.2584
 3683TIP3    H135244   0.910   1.696   9.560 -0.3421 -0.4544  0.4920
 3683TIP3    H235245   1.035   1.662   9.640 -1.1206  0.0626  1.9645
 3684TIP3   OH235246   5.385   4.422   9.654 -0.0787  0.3007  0.3279
 3684TIP3    H135247   5.413   4.463   9.736  1.4668 -0.1214  0.0527
 3684TIP3    H235248   5.392   4.328   9.671 -0.6282  0.2016  0.0011
 3685TIP3   OH235249   5.490   6.257  11.781 -0.5593  0.4678  0.6294
 3685TIP3    H135250   5.463   6.241  11.691  0.0220  1.0527  0.3422
 3685TIP3    H235251   5.449   6.341  11.803 -0.5851  0.3939  0.8623
 3686TIP3   OH235252   6.386   3.469   9.308  0.1470 -0.4040 -0.6941
 3686TIP3    H135253   6.407   3.384   9.345  2.8891  0.8357  0.9157
 3686TIP3    H235254   6.316   3.452   9.245 -0.3795 -3.5758  0.5954
 3687TIP3   OH235255   6.068   2.048   8.975  0.2812 -0.5935 -0.3138
 3687TIP3    H135256   6.092   1.996   9.051 -0.0338 -1.1339 -0.5781
 3687TIP3    H235257   6.000   2.107   9.008  0.9955  0.0097  0.1055
 3688TIP3   OH235258   1.220   0.207  11.373  0.2388  0.2646  0.4970
 3688TIP3    H135259   1.167   0.217  11.452 -1.1644 -1.1858 -0.2141
 3688TIP3    H235260   1.275   0.131  11.390 -0.5368 -0.4607 -0.1355
 3689TIP3   OH235261   3.829   2.327  11.526 -0.2476  0.6525  0.0978
 3689TIP3    H135262   3.845   2.416  11.494 -1.1478  0.1724 -1.8726
 3689TIP3    H235263   3.760   2.338  11.591  0.5083  1.5098  0.7907
 3690TIP3   OH235264   5.149   3.844  10.935 -0.1071  0.2617  0.0079
 3690TIP3    H135265   5.118   3.756  10.915 -0.2011  0.2487  0.2029
 3690TIP3    H235266   5.195   3.835  11.018 -2.1618  0.8018  1.3009
 3691TIP3   OH235267   3.029   6.024  11.590 -0.2311  1.0124 -0.0136
 3691TIP3    H135268   3.088   6.065  11.653  0.3013  1.0713 -0.5356
 3691TIP3    H235269   3.071   6.040  11.505  0.6795 -1.6840 -0.1639
 3692TIP3   OH235270   0.703   1.005   9.044 -0.2921 -0.1984 -0.0361
 3692TIP3    H135271   0.711   0.910   9.033 -1.1982 -0.3440  0.5122
 3692TIP3    H235272   0.793   1.038   9.036 -0.0499 -1.0243 -0.9009
 3693TIP3   OH235273   5.364   4.116   8.832 -0.4294  0.1498 -0.0064
 3693TIP3    H135274   5.360   4.022   8.849 -0.0910 -0.3623 -2.3752
 3693TIP3    H235275   5.430   4.149   8.892  3.1690 -2.0502 -2.3561
 3694TIP3   OH235276   3.453   4.796  11.086  0.1966 -0.5434 -0.3183
 3694TIP3    H135277   3.541   4.765  11.063 -0.2019 -1.3611 -0.7362
 3694TIP3    H235278   3.420   4.731  11.148 -1.1525 -1.7363 -2.1888
 3695TIP3   OH235279   0.995   2.324   9.975  0.2709  0.3766 -0.0535
 3695TIP3    H135280   1.002   2.378  10.053 -0.0818 -0.2902  0.4488
 3695TIP3    H235281   0.952   2.244  10.005  0.8813 -0.2301 -0.7573
 3696TIP3   OH235282   0.198   6.065  11.639  0.1538  0.3623  0.6378
 3696TIP3    H135283   0.230   6.048  11.728  0.7599 -3.4327 -0.1291
 3696TIP3    H235284   0.103   6.060  11.646  0.2126 -0.3487  1.0557
 3697TIP3   OH235285   0.771   0.741   9.062 -0.1060  0.3760  0.0699
 3697TIP3    H135286   0.757   0.657   9.018 -2.7976 -0.1019  1.6098
 3697TIP3    H235287   0.829   0.720   9.136 -0.9278 -0.2208  0.5693
 3698TIP3   OH235288   0.302   5.648  10.747  0.1697 -0.8219  0.0272
 3698TIP3    H135289   0.345   5.724  10.785 -0.7273  0.0357 -0.6122
 3698TIP3    H235290   0.216   5.646  10.789 -0.0648 -1.0812 -0.4546
 3699TIP3   OH235291   1.542   1.734   9.353 -0.3266  0.2582 -0.3722
 3699TIP3    H135292   1.635   1.752   9.349 -0.3439  0.8014  1.0889
 3699TIP3    H235293   1.500   1.818   9.333 -0.4740  0.2518 -0.1045
 3700TIP3   OH235294   6.004   0.958  10.432 -0.4370  0.1308  0.1553
 3700TIP3    H135295   6.037   1.036  10.388  0.5699  0.9216  2.1847
 3700TIP3    H235296   5.958   0.909  10.364 -0.9259  2.3822 -1.2229
 3701TIP3   OH235297   4.739   4.299  11.410  0.2290 -0.4080 -0.0241
 3701TIP3    H135298   4.769   4.225  11.357 -0.0528  1.3468 -2.8128
 3701TIP3    H235299   4.816   4.324  11.462  1.9598  0.3789 -2.7530
 3702TIP3   OH235300   0.898   6.553  10.461 -0.2964  0.0451 -0.0464
 3702TIP3    H135301   0.970   6.615  10.469  0.8834 -1.4415  1.8347
 3702TIP3    H235302   0.881   6.525  10.551 -1.3056 -1.7550 -0.7443
 3703TIP3   OH235303   5.862   4.422  11.539  0.1009 -0.1810 -0.2737
 3703TIP3    H135304   5.945   4.398  11.497  0.6566 -0.2369  0.8250
 3703TIP3    H235305   5.837   4.344  11.588 -1.0277 -0.4428 -1.2107
 3704TIP3   OH235306   6.123   5.685  10.659 -0.0871  0.3749  0.0778
 3704TIP3    H135307   6.173   5.619  10.708 -0.2694  0.2352  0.0775
 3704TIP3    H235308   6.134   5.660  10.567 -1.3672 -0.5346  0.1458
 3705TIP3   OH235309   0.894   0.709  11.388 -0.0348  0.2837 -0.0092
 3705TIP3    H135310   0.804   0.732  11.410  0.2429  0.0751  1.4326
 3705TIP3    H235311   0.889   0.678  11.298 -1.7171 -1.4523  0.6103
 3706TIP3   OH235312   2.219   4.223  10.115 -0.2185 -1.0747 -0.1090
 3706TIP3    H135313   2.180   4.218  10.028 -0.5920  0.1382 -0.0333
 3706TIP3    H235314   2.167   4.289  10.161  0.2986 -1.3202  0.8643
 3707TIP3   OH235315   4.037   3.119  11.920 -0.1937  0.4832 -0.5212
 3707TIP3    H135316   4.044   3.210  11.950  0.5053  0.9965 -2.1255
 3707TIP3    H235317   4.128   3.090  11.912 -0.4225 -0.5900  0.6032
 3708TIP3   OH235318   4.370   1.009  12.155  0.3779  0.0062 -0.1384
 3708TIP3    H135319   4.460   1.036  12.173  0.4582 -1.2112  1.3938
 3708TIP3    H235320   4.377   0.918  12.126 -0.3924 -0.2714  0.5081
 3709TIP3   OH235321   0.104   5.462  10.008 -0.2457  0.1076 -0.3998
 3709TIP3    H135322   0.013   5.440   9.985 -1.2638  0.3507  2.9063
 3709TIP3    H235323   0.140   5.381  10.043 -0.2178  0.7195  1.0629
 3710TIP3   OH235324   5.339   2.852   8.646  0.0994 -0.2059 -0.1368
 3710TIP3    H135325   5.379   2.770   8.615  1.0112 -1.1836  3.1797
 3710TIP3    H235326   5.400   2.920   8.618  1.2098 -1.0879  0.0618
 3711TIP3   OH235327   5.715   6.557  11.300 -0.0736  0.3208  1.0276
 3711TIP3    H135328   5.697   6.463  11.301 -1.1895  0.5182  2.0652
 3711TIP3    H235329   5.632   6.598  11.325 -0.0838  1.6892 -1.0056
 3712TIP3   OH235330   1.562   3.568  11.765  0.3327 -0.4002  0.1062
 3712TIP3    H135331   1.632   3.633  11.760 -0.7940  0.9880  1.4600
 3712TIP3    H235332   1.600   3.489  11.725  2.1849  0.6816 -0.4023
 3713TIP3   OH235333   4.380   5.840   9.998 -0.3680  0.2260  0.3622
 3713TIP3    H135334   4.324   5.799   9.933 -1.6327  0.2701  1.3781
 3713TIP3    H235335   4.338   5.924  10.018  0.7302  0.8175  0.2647
 3714TIP3   OH235336   2.592   0.444  12.200 -0.3599 -0.1072 -0.1569
 3714TIP3    H135337   2.673   0.451  12.250 -0.7689 -0.7847  0.6239
 3714TIP3    H235338   2.528   0.494  12.252 -1.2460 -2.3696  1.0421
 3715TIP3   OH235339   0.122   4.244  10.774  0.0539  0.6801 -0.0134
 3715TIP3    H135340   0.209   4.283  10.760 -0.3230  1.3268 -0.6433
 3715TIP3    H235341   0.140   4.160  10.817  0.9935  0.7909 -0.1629
 3716TIP3   OH235342   4.830   2.405   9.118 -0.5503  0.1354 -0.4811
 3716TIP3    H135343   4.749   2.374   9.078 -0.0521  0.5215 -1.8285
 3716TIP3    H235344   4.898   2.350   9.078  0.3092  2.5595 -2.6007
 3717TIP3   OH235345   3.693   5.271  10.362 -0.1292 -0.3323  0.1195
 3717TIP3    H135346   3.619   5.256  10.421  1.0871 -2.7162  1.1459
 3717TIP3    H235347   3.762   5.305  10.419 -0.1553  1.2140 -0.7110
 3718TIP3   OH235348   3.459   2.322  11.832 -0.1463 -0.5629 -0.1720
 3718TIP3    H135349   3.401   2.316  11.756  0.7333  0.3572 -0.9406
 3718TIP3    H235350   3.450   2.413  11.861 -1.2650 -1.1598  1.4950
 3719TIP3   OH235351   5.284   1.503  11.216  0.0842  0.3418  0.3551
 3719TIP3    H135352   5.227   1.489  11.140  0.1720  0.7120  0.2180
 3719TIP3    H235353   5.362   1.544  11.180  1.7122 -2.6760  0.0779
 3720TIP3   OH235354   6.299   0.378  10.913  0.2421 -0.1111 -0.3629
 3720TIP3    H135355   6.387   0.350  10.938  0.4758  1.3154  0.5176
 3720TIP3    H235356   6.251   0.386  10.996 -0.5916 -0.4500 -0.7955
 3721TIP3   OH235357   4.183   5.177   8.701 -0.1355 -0.0937  0.0819
 3721TIP3    H135358   4.124   5.214   8.766 -0.3290  0.8368 -0.6036
 3721TIP3    H235359   4.199   5.249   8.639 -0.2140 -1.0288 -1.0660
 3722TIP3   OH235360   4.970   2.055  11.072 -0.2353  0.0240  0.1665
 3722TIP3    H135361   4.946   1.963  11.068  0.7779 -0.3170  1.1960
 3722TIP3    H235362   4.979   2.082  10.981 -1.3346 -0.6608 -0.1572
 3723TIP3   OH235363   6.432   0.641  12.527 -0.3479 -0.5991  0.1603
 3723TIP3    H135364   6.376   0.618  12.601  1.3555 -0.0684  1.6742
 3723TIP3    H235365   6.416   0.734  12.512 -0.9332 -0.7796 -0.3739
 3724TIP3   OH235366   1.473   2.773  10.909  0.0699  0.2263  0.0322
 3724TIP3    H135367   1.427   2.748  10.989 -0.9083  0.9552 -0.2738
 3724TIP3    H235368   1.560   2.735  10.918 -0.6926 -1.5236  0.4798
 3725TIP3   OH235369   3.694   2.236  10.233 -0.3219 -0.0496  0.1864
 3725TIP3    H135370   3.627   2.226  10.166  0.3117  0.0813 -0.4777
 3725TIP3    H235371   3.662   2.306  10.289 -1.7417 -1.3737  1.1331
 3726TIP3   OH235372   1.702   0.183  10.087  0.1391  0.4043  0.0449
 3726TIP3    H135373   1.751   0.173  10.169  0.1642  1.2867  0.1490
 3726TIP3    H235374   1.623   0.131  10.099  1.1250 -1.2040 -0.1939
 3727TIP3   OH235375   0.404   4.323  10.698  0.5537  0.1861 -0.0472
 3727TIP3    H135376   0.465   4.284  10.760  0.7796  1.6514  0.6911
 3727TIP3    H235377   0.411   4.268  10.620  3.0091  0.4624 -0.0762
 3728TIP3   OH235378   2.532   6.212  11.089  0.2242 -0.1408  0.9103
 3728TIP3    H135379   2.533   6.175  11.001 -0.5587  2.8199 -0.4761
 3728TIP3    H235380   2.453   6.176  11.129 -0.1316 -0.5122 -0.0941
 3729TIP3   OH235381   2.827   3.314  11.685 -0.3559 -0.0171  0.0691
 3729TIP3    H135382   2.903   3.321  11.628 -0.4263  1.9261  0.1515
 3729TIP3    H235383   2.765   3.259  11.636  0.3157  0.0505 -0.8740
 3730TIP3   OH235384   2.550   0.869  10.728 -0.1984  0.7394  0.2830
 3730TIP3    H135385   2.596   0.838  10.650 -0.5464  0.3053  0.2490
 3730TIP3    H235386   2.458   0.857  10.708 -0.3447  1.8079  0.2683
 3731TIP3   OH235387   3.354   5.084  10.453 -0.1430  0.3646  0.1983
 3731TIP3    H135388   3.373   5.074  10.360 -1.5783  0.8594 -0.1885
 3731TIP3    H235389   3.429   5.047  10.498  0.1411 -0.7726 -1.1572
 3732TIP3   OH235390   6.205   2.742  12.093  0.4148  0.0633 -0.4997
 3732TIP3    H135391   6.118   2.713  12.119  0.0608  2.6659  1.6562
 3732TIP3    H235392   6.265   2.690  12.146 -0.0989  1.4745  1.5816
 3733TIP3   OH235393   0.893   4.267  12.578 -0.0794  0.1898  0.2910
 3733TIP3    H135394   0.853   4.328  12.516  0.2810 -0.3272 -0.4673
 3733TIP3    H235395   0.836   4.189  12.576  0.3819 -0.1435 -0.0061
 3734TIP3   OH235396   5.725   0.363  12.807  0.6957 -0.0164 -0.2961
 3734TIP3    H135397   5.635   0.353  12.839  0.7482  2.3628  0.7713
 3734TIP3    H235398   5.714   0.391  12.716  0.3692  0.0846 -0.2279
 3735TIP3   OH235399   0.477   0.776  11.283 -0.0193 -0.0030  0.3086
 3735TIP3    H135400   0.450   0.828  11.359  0.6758 -0.7052  1.0480
 3735TIP3    H235401   0.414   0.799  11.215 -0.2487  1.1496  0.8846
 3736TIP3   OH235402   5.975   5.834  11.711 -0.2838 -0.3186  0.0571
 3736TIP3    H135403   6.028   5.838  11.790 -1.2174  0.0336  0.6870
 3736TIP3    H235404   6.038   5.820  11.640  0.3469 -4.0638  1.1394
 3737TIP3   OH235405   4.588   3.542   9.881  0.5430  0.8738 -0.0458
 3737TIP3    H135406   4.639   3.563   9.803 -2.4920  0.0803 -2.4733
 3737TIP3    H235407   4.518   3.608   9.882 -1.0450 -0.7139  0.2928
 3738TIP3   OH235408   4.047   1.579  11.012  0.0379  0.8085  0.4108
 3738TIP3    H135409   4.046   1.614  11.101  0.5035 -1.2508  1.2827
 3738TIP3    H235410   4.039   1.484  11.023 -1.5001  0.5825 -1.8227
 3739TIP3   OH235411   6.193   0.250  12.625 -0.2258  0.3654 -0.5612
 3739TIP3    H135412   6.131   0.323  12.631 -1.7242 -0.7182 -1.9957
 3739TIP3    H235413   6.141   0.172  12.644  1.4883 -0.3736  1.6746
 3740TIP3   OH235414   1.843   0.434  10.040 -0.3482  0.0954  0.1087
 3740TIP3    H135415   1.769   0.377  10.022 -1.0846  0.9688  0.3335
 3740TIP3    H235416   1.804   0.516  10.069  0.7112  0.4150  0.6779
 3741TIP3   OH235417   4.865   0.789  11.819 -0.3242  0.1233  0.4860
 3741TIP3    H135418   4.816   0.709  11.836  0.2220 -0.5522 -0.9198
 3741TIP3    H235419   4.800   0.859  11.823 -1.8440 -0.8979 -2.9826
 3742TIP3   OH235420   4.133   2.171  11.177  0.0023 -0.1587  0.1989
 3742TIP3    H135421   4.174   2.257  11.169 -0.5839  0.0447 -0.8205
 3742TIP3    H235422   4.138   2.133  11.089  0.2294 -1.1595  0.6273
 3743TIP3   OH235423   0.361   5.289  10.536 -0.5423 -0.5787  0.0863
 3743TIP3    H135424   0.439   5.317  10.583 -0.7300 -0.8022  0.5306
 3743TIP3    H235425   0.299   5.361  10.545 -0.7910 -0.8615  0.6835
 3744TIP3   OH235426   5.348   1.018   9.444  0.2437 -0.2393  0.7855
 3744TIP3    H135427   5.323   0.963   9.519 -1.1862 -0.4469  0.1893
 3744TIP3    H235428   5.294   0.987   9.372  0.0862  1.3129  0.1824
 3745TIP3   OH235429   3.718   1.838  10.548 -0.3811  0.1066 -0.2211
 3745TIP3    H135430   3.668   1.875  10.475 -1.8138 -0.5069  0.3942
 3745TIP3    H235431   3.801   1.885  10.548 -0.7490  0.7963 -1.6338
 3746TIP3   OH235432   4.358   5.348  12.287 -0.5459  0.4257  0.0455
 3746TIP3    H135433   4.416   5.401  12.342 -0.9403 -0.3794  1.3011
 3746TIP3    H235434   4.377   5.375  12.198  2.1985 -0.2452  0.3456
 3747TIP3   OH235435   5.817   0.327  10.284 -0.0111  0.5773 -0.0462
 3747TIP3    H135436   5.829   0.236  10.257 -2.0913  0.7818 -1.9533
 3747TIP3    H235437   5.871   0.378  10.222  1.4734  0.6803  1.2673
 3748TIP3   OH235438   1.826   0.571   9.599  0.1962 -0.0673  0.0132
 3748TIP3    H135439   1.749   0.552   9.653  0.2190  0.5089  0.2526
 3748TIP3    H235440   1.891   0.604   9.660  0.0751  1.0177 -0.4129
 3749TIP3   OH235441   1.779   4.746  11.977 -0.4116  0.1043 -0.2548
 3749TIP3    H135442   1.764   4.727  12.069  0.3595  0.0737 -0.1352
 3749TIP3    H235443   1.777   4.661  11.934 -3.4377  0.2851 -0.6936
 3750TIP3   OH235444   6.243   2.068   9.887 -0.2949  0.4663  0.5427
 3750TIP3    H135445   6.207   2.102   9.968 -0.2977  0.6405  0.4693
 3750TIP3    H235446   6.188   2.105   9.818  0.8084  1.8108  0.3437
 3751TIP3   OH235447   1.729   3.398  10.511 -0.1235  0.0325  0.2928
 3751TIP3    H135448   1.760   3.315  10.547 -0.1852  0.6064  1.7242
 3751TIP3    H235449   1.657   3.374  10.453 -0.0220 -0.9244  0.5588
 3752TIP3   OH235450   2.493   2.546  11.432  0.0017 -0.4002 -0.9001
 3752TIP3    H135451   2.442   2.625  11.414  0.9053  0.2596 -0.6483
 3752TIP3    H235452   2.437   2.493  11.489 -1.3973 -0.8380 -2.5918
 3753TIP3   OH235453   0.756   0.553  10.581 -0.6437 -0.0794  0.1679
 3753TIP3    H135454   0.691   0.484  10.565 -0.5940  0.3576 -2.1910
 3753TIP3    H235455   0.705   0.626  10.614 -0.6237 -1.3378  3.3451
 3754TIP3   OH235456   6.594   2.856   9.436 -0.1215 -0.5163 -0.3326
 3754TIP3    H135457   6.520   2.846   9.377 -0.7068 -0.4175  0.3661
 3754TIP3    H235458   6.661   2.899   9.383 -1.1773  0.9828 -0.5214
 3755TIP3   OH235459   1.651   3.471   9.496 -0.0705  0.0580  0.1689
 3755TIP3    H135460   1.682   3.561   9.499 -1.5849  0.6125  0.3578
 3755TIP3    H235461   1.589   3.469   9.423 -1.3678 -0.3477  1.2309
 3756TIP3   OH235462   4.475   2.081  11.290  0.3393 -0.1674  0.0651
 3756TIP3    H135463   4.566   2.084  11.319 -0.0149 -0.8531  1.2907
 3756TIP3    H235464   4.445   2.172  11.297  0.1879 -0.3319  2.1826
 3757TIP3   OH235465   2.771   0.853  11.663 -0.3216  0.0472 -0.4570
 3757TIP3    H135466   2.755   0.770  11.708 -2.2506  0.2662 -0.6766
 3757TIP3    H235467   2.829   0.901  11.721  1.0844 -1.5366 -0.4536
 3758TIP3   OH235468   0.942   2.118  10.702 -0.1745  0.1863  0.3046
 3758TIP3    H135469   0.908   2.066  10.629  0.7378 -0.5792  0.4083
 3758TIP3    H235470   0.970   2.053  10.767 -0.6302  0.8467  1.1916
 3759TIP3   OH235471   5.512   3.806  11.934 -0.5087  0.0900 -0.3024
 3759TIP3    H135472   5.598   3.812  11.891 -0.1664  2.9183  0.5317
 3759TIP3    H235473   5.524   3.742  12.003  0.5587 -0.4849 -0.9833
 3760TIP3   OH235474   5.378   1.669   9.557  0.2259 -0.5367  0.4623
 3760TIP3    H135475   5.390   1.582   9.597  1.0741 -1.0451 -0.8405
 3760TIP3    H235476   5.358   1.650   9.466 -2.4335  0.5794  0.7303
 3761TIP3   OH235477   1.230   5.393  11.671  0.5119 -0.8932 -0.1272
 3761TIP3    H135478   1.306   5.343  11.642 -0.2248 -1.4462 -1.1352
 3761TIP3    H235479   1.155   5.344  11.639 -0.2359  0.7378 -0.9758
 3762TIP3   OH235480   3.388   1.474  10.862  0.5658  0.1310 -0.0633
 3762TIP3    H135481   3.350   1.463  10.949  1.2692 -1.1025  0.1128
 3762TIP3    H235482   3.482   1.457  10.875  1.0473  2.0836 -0.6743
 3763TIP3   OH235483   5.849   4.201  11.177 -0.1247  0.1715  0.4867
 3763TIP3    H135484   5.826   4.260  11.249 -0.4261  1.2237 -0.4520
 3763TIP3    H235485   5.836   4.253  11.098  0.7556 -0.7837 -0.3123
 3764TIP3   OH235486   5.901   2.500  11.285  0.0057  0.4767 -0.0058
 3764TIP3    H135487   5.876   2.584  11.246 -1.0885 -0.6740 -1.9877
 3764TIP3    H235488   5.831   2.481  11.347 -0.8954  0.0779 -1.1134
 3765TIP3   OH235489   3.358   3.555  12.073  0.2625 -0.1607  0.0957
 3765TIP3    H135490   3.380   3.536  11.981 -1.3423 -1.7695  0.0047
 3765TIP3    H235491   3.376   3.473  12.119  1.6800  0.8196  1.3993
 3766TIP3   OH235492   4.432   2.317  11.809  0.6811  0.2800 -0.2048
 3766TIP3    H135493   4.362   2.257  11.781 -0.2764  1.5430 -0.6164
 3766TIP3    H235494   4.441   2.301  11.903  0.9636 -1.0222 -0.4433
 3767TIP3   OH235495   3.748   2.730   8.562 -0.2494  0.5798 -0.2324
 3767TIP3    H135496   3.727   2.822   8.544  1.0107  1.0657  0.6270
 3767TIP3    H235497   3.830   2.734   8.612  0.2475 -1.0554 -0.8701
 3768TIP3   OH235498   0.576   1.958  11.914  0.6571 -0.0239 -0.5672
 3768TIP3    H135499   0.603   2.034  11.862  2.5156 -0.4570 -0.3243
 3768TIP3    H235500   0.652   1.900  11.912  0.5964 -0.3187  2.1220
 3769TIP3   OH235501   6.301   3.622  10.621  0.3403  0.3306  0.0644
 3769TIP3    H135502   6.365   3.582  10.562 -0.2956  0.3558 -0.6575
 3769TIP3    H235503   6.286   3.555  10.689  0.2519 -0.1442 -0.4141
 3770TIP3   OH235504   3.410   1.813  12.349 -0.3491 -0.3464 -0.0229
 3770TIP3    H135505   3.387   1.906  12.348  0.9319 -0.0081 -1.0403
 3770TIP3    H235506   3.502   1.811  12.373 -0.6635 -1.4658  1.2283
 3771TIP3   OH235507   4.648   5.521  10.276  0.0669 -0.2940  0.0130
 3771TIP3    H135508   4.643   5.605  10.230  0.6533 -1.1257 -1.6438
 3771TIP3    H235509   4.566   5.517  10.326 -0.0195  1.2027  0.0604
 3772TIP3   OH235510   2.702   2.765   9.386 -0.1034 -0.1769  0.1120
 3772TIP3    H135511   2.695   2.743   9.479 -0.1797 -0.9410 -0.0695
 3772TIP3    H235512   2.632   2.829   9.371 -1.3068 -1.4205  0.1947
 3773TIP3   OH235513   0.542   3.133   9.150 -0.0836 -0.1122  0.5169
 3773TIP3    H135514   0.483   3.130   9.074 -0.6441  1.1544  0.8632
 3773TIP3    H235515   0.600   3.058   9.138 -0.5013 -0.2552 -0.8806
 3774TIP3   OH235516   5.196   2.581   9.105 -0.5958  0.3527 -0.6046
 3774TIP3    H135517   5.264   2.615   9.163 -1.1460 -0.3878  0.5143
 3774TIP3    H235518   5.180   2.492   9.137 -3.0038  0.9318  0.0248
 3775TIP3   OH235519   2.332   2.178   9.927  0.2817 -0.4652 -0.2129
 3775TIP3    H135520   2.259   2.238   9.914  2.0770  2.1729  0.8816
 3775TIP3    H235521   2.357   2.191  10.019  1.9410 -1.4368 -0.4884
 3776TIP3   OH235522   2.593   1.263   8.802 -0.0002  0.2149 -0.2009
 3776TIP3    H135523   2.618   1.171   8.806 -1.3060 -0.1085  2.6653
 3776TIP3    H235524   2.514   1.263   8.746  1.6829  0.1430 -2.7487
 3777TIP3   OH235525   0.965   2.824  10.693 -0.4188  0.0896  0.2536
 3777TIP3    H135526   1.052   2.805  10.726 -0.1917 -0.3767 -0.5751
 3777TIP3    H235527   0.910   2.754  10.727 -0.2852 -0.1132  0.0551
 3778TIP3   OH235528   3.777   5.701   9.990 -0.0723  1.0096  0.7391
 3778TIP3    H135529   3.778   5.789  10.027  2.3714  2.0538 -1.4959
 3778TIP3    H235530   3.860   5.663  10.016  0.1940  0.5081 -0.7855
 3779TIP3   OH235531   2.518   4.966   9.704 -0.9662 -0.3264 -0.0215
 3779TIP3    H135532   2.610   4.952   9.682 -1.1961 -2.1483 -0.0206
 3779TIP3    H235533   2.495   5.049   9.662  1.0686  1.0117  1.3363
 3780TIP3   OH235534   0.356   3.795  12.108  0.0218  0.0678 -0.2503
 3780TIP3    H135535   0.314   3.798  12.022 -3.3850  0.5220  1.2766
 3780TIP3    H235536   0.353   3.702  12.132 -1.0823  0.2324  0.2758
 3781TIP3   OH235537   5.097   6.584  11.524  0.5790 -0.3124 -0.2417
 3781TIP3    H135538   5.088   6.664  11.574  0.2820  0.1248 -0.9740
 3781TIP3    H235539   5.054   6.603  11.440  1.6796 -0.7593 -0.9399
 3782TIP3   OH235540   0.262   5.915   9.754 -0.1302 -0.0333 -0.1370
 3782TIP3    H135541   0.177   5.953   9.733  0.2830  0.2073 -1.4267
 3782TIP3    H235542   0.326   5.974   9.714  0.6249 -0.5532  0.2699
 3783TIP3   OH235543   5.486   3.805   9.932  0.4140 -0.1914  0.0205
 3783TIP3    H135544   5.517   3.880   9.880  1.5496 -0.4392  0.3269
 3783TIP3    H235545   5.471   3.841  10.019  0.8549 -0.2931  0.1393
 3784TIP3   OH235546   4.911   0.342  10.883  0.2238 -0.0593 -0.1049
 3784TIP3    H135547   4.936   0.271  10.825 -1.9071  0.4299 -1.7815
 3784TIP3    H235548   4.845   0.303  10.941  0.6351  0.0331  0.4300
 3785TIP3   OH235549   3.252   2.393  10.276 -0.3404 -0.0948 -0.1081
 3785TIP3    H135550   3.235   2.300  10.261  1.2973 -0.2591 -1.2537
 3785TIP3    H235551   3.236   2.434  10.191 -0.1988  0.5292  0.1607
 3786TIP3   OH235552   1.253   2.972  11.752  0.5265 -0.5539 -0.0917
 3786TIP3    H135553   1.334   2.968  11.701 -0.1899 -2.5015 -1.1830
 3786TIP3    H235554   1.274   2.927  11.834  0.6585 -0.6689 -0.1890
 3787TIP3   OH235555   1.969   2.049  10.636 -0.2188 -0.1304 -0.3079
 3787TIP3    H135556   2.010   2.133  10.657 -0.4423 -0.5147  1.9224
 3787TIP3    H235557   1.876   2.064  10.647 -0.3617 -0.3869 -1.0875
 3788TIP3   OH235558   0.673   0.606   9.742  0.4507 -0.3282 -0.4184
 3788TIP3    H135559   0.628   0.524   9.762 -0.7083  0.3753 -0.0315
 3788TIP3    H235560   0.639   0.668   9.807  0.3548  0.7642 -1.4767
 3789TIP3   OH235561   2.036   4.271  12.370  0.6799  0.5763  0.3690
 3789TIP3    H135562   2.054   4.363  12.350 -0.2554  0.7594  0.3119
 3789TIP3    H235563   1.979   4.242  12.298  1.0477 -0.0755  0.3380
 3790TIP3   OH235564   4.763   3.556   9.676  0.6159  0.1686  0.4447
 3790TIP3    H135565   4.809   3.482   9.714 -0.1740 -0.6686 -0.1798
 3790TIP3    H235566   4.832   3.620   9.656  1.2534 -0.1920  1.4065
 3791TIP3   OH235567   0.759   5.833   9.364  0.2098 -0.4778 -0.9015
 3791TIP3    H135568   0.673   5.849   9.401  0.0909 -2.0108 -0.4636
 3791TIP3    H235569   0.751   5.749   9.318  1.2408 -0.2416 -1.5502
 3792TIP3   OH235570   5.680   3.971  10.456 -0.7050 -0.3095 -0.3213
 3792TIP3    H135571   5.590   3.985  10.485 -0.6065  0.1958 -0.2494
 3792TIP3    H235572   5.732   4.031  10.510 -0.4387  0.1178 -1.0471
 3793TIP3   OH235573   2.270   1.290  11.095 -0.1704  0.5752 -0.0640
 3793TIP3    H135574   2.239   1.219  11.151  4.3301 -0.9846  0.8439
 3793TIP3    H235575   2.289   1.249  11.011 -1.7804  1.8006 -1.1030
 3794TIP3   OH235576   0.083   4.006   9.714 -0.5156 -0.5789  0.2158
 3794TIP3    H135577   0.091   3.915   9.684  1.9917 -0.2277 -0.4185
 3794TIP3    H235578   0.083   4.058   9.633  2.8498  0.1756  0.5442
 3795TIP3   OH235579   4.484   1.178  11.696  0.0311 -0.1023 -0.2033
 3795TIP3    H135580   4.488   1.113  11.766  1.2888  0.0561 -0.1119
 3795TIP3    H235581   4.436   1.252  11.735 -3.1846 -1.6167 -0.9091
 3796TIP3   OH235582   2.249   3.025   9.784 -0.7065 -0.1308 -0.1709
 3796TIP3    H135583   2.339   2.996   9.768 -1.3313 -1.3767 -1.5947
 3796TIP3    H235584   2.238   3.015   9.878  0.7646  0.4199  0.0943
 3797TIP3   OH235585   2.934   1.601  12.058 -0.4335 -0.0086 -0.0049
 3797TIP3    H135586   2.911   1.665  12.125 -0.4496 -1.0299  0.9873
 3797TIP3    H235587   3.017   1.563  12.087 -1.6847 -2.2947  0.8563
 3798TIP3   OH235588   1.551   4.401  11.740  0.2806  0.0453 -0.5347
 3798TIP3    H135589   1.474   4.458  11.734  0.1713  0.2046  1.6289
 3798TIP3    H235590   1.624   4.462  11.757  0.1551 -0.3662  1.8591
 3799TIP3   OH235591   3.328   0.599  12.110  0.0365 -0.1570 -0.0659
 3799TIP3    H135592   3.420   0.585  12.134 -0.0170 -2.8799 -1.0281
 3799TIP3    H235593   3.327   0.598  12.015 -1.0529 -1.0190 -0.0720
 3800TIP3   OH235594   5.689   0.119  10.053 -0.1561 -0.2492 -0.5754
 3800TIP3    H135595   5.769   0.074  10.022  1.6727  1.2836  1.6396
 3800TIP3    H235596   5.676   0.085  10.141 -1.0364  0.7075 -0.3304
 3801TIP3   OH235597   4.274   5.316  11.384 -0.2306 -0.1063  0.0398
 3801TIP3    H135598   4.232   5.337  11.468  1.7683 -1.1643  1.3925
 3801TIP3    H235599   4.244   5.228  11.363  0.5562 -0.5050  0.5408
 3802TIP3   OH235600   5.152   0.447  11.822 -0.0870  0.3604  0.0788
 3802TIP3    H135601   5.236   0.420  11.860 -0.1580  0.4583  0.3085
 3802TIP3    H235602   5.172   0.468  11.731 -0.2676 -1.8216 -0.5290
 3803TIP3   OH235603   5.288   0.264  11.476 -0.0826 -0.2882 -0.7495
 3803TIP3    H135604   5.332   0.187  11.439 -0.0342 -0.4945 -0.2640
 3803TIP3    H235605   5.263   0.237  11.564  0.6052  0.5145 -0.3020
 3804TIP3   OH235606   4.790   5.936  10.294 -0.2113  0.3524 -0.6507
 3804TIP3    H135607   4.710   5.895  10.261 -0.6431  0.5971  0.0800
 3804TIP3    H235608   4.761   5.993  10.365  0.6257  0.3342 -0.2806
 3805TIP3   OH235609   0.340   0.573  10.872 -0.4676  0.6321  0.1059
 3805TIP3    H135610   0.303   0.585  10.960 -2.0670  1.2113 -0.6132
 3805TIP3    H235611   0.264   0.575  10.814  0.5018 -0.4017 -1.2488
 3806TIP3   OH235612   6.452   4.493   9.359  0.1196 -0.0970  0.1450
 3806TIP3    H135613   6.454   4.587   9.342  0.4615 -0.0545  0.4130
 3806TIP3    H235614   6.387   4.482   9.429 -0.9378 -0.2189 -0.8312
 3807TIP3   OH235615   6.525   0.629  10.666 -0.1343  0.2063  0.1918
 3807TIP3    H135616   6.447   0.609  10.615 -0.1428  0.8916 -0.0746
 3807TIP3    H235617   6.492   0.654  10.752 -0.1265 -0.8356  0.5030
 3808TIP3   OH235618   5.220   2.140  11.117 -0.6303  0.1978  0.5025
 3808TIP3    H135619   5.126   2.123  11.111 -1.0263  1.6700  1.8817
 3808TIP3    H235620   5.233   2.167  11.208  1.0093  0.7076  0.1357
 3809TIP3   OH235621   5.378   4.563  11.089  0.0095 -0.3346  0.5492
 3809TIP3    H135622   5.461   4.610  11.099  0.8289 -1.0340 -2.2107
 3809TIP3    H235623   5.390   4.482  11.138  0.4856  0.0747  1.1285
 3810TIP3   OH235624   1.299   5.350   9.369  0.0826 -0.0473 -0.2993
 3810TIP3    H135625   1.250   5.273   9.338 -1.5938  0.7876  0.1929
 3810TIP3    H235626   1.232   5.410   9.401  1.5157  0.7619  1.2920
 3811TIP3   OH235627   1.853   4.168  10.074 -0.0979  0.8024 -0.3209
 3811TIP3    H135628   1.860   4.107  10.001 -1.9805 -0.9277  0.8411
 3811TIP3    H235629   1.934   4.154  10.124  0.4968  0.8962 -1.2334
 3812TIP3   OH235630   1.467   1.281  11.824 -0.0898 -0.5004  0.0865
 3812TIP3    H135631   1.504   1.227  11.895 -1.4250 -0.0067  1.2001
 3812TIP3    H235632   1.428   1.217  11.764  0.4729 -0.8909  0.1271
 3813TIP3   OH235633   4.123   4.388  11.999  0.3231  0.0992  0.4550
 3813TIP3    H135634   4.206   4.342  12.007  0.2619  0.1889  1.9102
 3813TIP3    H235635   4.116   4.440  12.079  0.3662  2.6618 -1.1200
 3814TIP3   OH235636   3.538   2.390   9.134 -0.7350  0.1064 -0.0481
 3814TIP3    H135637   3.508   2.386   9.043  0.3630 -0.5366 -0.4002
 3814TIP3    H235638   3.608   2.456   9.133 -0.6105 -0.0195  0.2917
 3815TIP3   OH235639   4.615   3.458  11.454 -0.0935 -0.1486  0.5610
 3815TIP3    H135640   4.543   3.478  11.514 -1.6825 -0.9599 -0.9929
 3815TIP3    H235641   4.673   3.400  11.504 -1.3604 -0.7900  1.3309
 3816TIP3   OH235642   2.579   2.597   8.766  0.4299  0.7265 -0.4535
 3816TIP3    H135643   2.504   2.541   8.746  1.9557 -1.3672 -0.6042
 3816TIP3    H235644   2.589   2.653   8.689 -0.4674  0.4631 -0.7696
 3817TIP3   OH235645   2.863   3.759   8.866  0.6867  0.6287 -0.5293
 3817TIP3    H135646   2.857   3.831   8.928  2.1281  1.0539 -0.8444
 3817TIP3    H235647   2.777   3.755   8.824  0.5152  1.9940 -0.3301
 3818TIP3   OH235648   1.886   0.072   9.893  0.2237 -0.8088 -0.0776
 3818TIP3    H135649   1.835   0.098   9.969  2.0527 -0.5485  1.1208
 3818TIP3    H235650   1.976   0.094   9.915  1.0587 -2.4011 -1.5905
 3819TIP3   OH235651   6.346   2.755  10.181 -0.5729  0.2620 -0.5184
 3819TIP3    H135652   6.374   2.665  10.196  0.2064  0.7483  1.2065
 3819TIP3    H235653   6.396   2.783  10.104 -1.4331 -0.9962 -1.5807
 3820TIP3   OH235654   4.398   3.929  10.164  0.1317 -0.4400  0.0485
 3820TIP3    H135655   4.445   3.884  10.234  0.5567  0.0799  0.1005
 3820TIP3    H235656   4.393   4.020  10.194  1.1694 -0.0089 -1.0401
 3821TIP3   OH235657   5.908   2.996   8.665  0.2399 -0.4479  1.0189
 3821TIP3    H135658   5.814   2.980   8.665  0.4093 -2.1538 -1.8768
 3821TIP3    H235659   5.945   2.917   8.706  0.4654 -0.2890  1.1235
 3822TIP3   OH235660   3.609   5.751   9.584 -0.4679 -0.3306  0.0504
 3822TIP3    H135661   3.608   5.691   9.509  0.7099 -0.0775 -0.1880
 3822TIP3    H235662   3.569   5.701   9.655 -3.1269 -0.0134 -1.1354
 3823TIP3   OH235663   2.482   3.378  10.734 -0.2609 -0.5198  0.4129
 3823TIP3    H135664   2.566   3.399  10.775 -0.7220 -1.1108  1.6925
 3823TIP3    H235665   2.478   3.436  10.657  0.7739  0.3861  1.0133
 3824TIP3   OH235666   2.202   0.281   9.972  0.0704 -0.4317  0.7193
 3824TIP3    H135667   2.128   0.337   9.948  0.9559  0.5677  0.2878
 3824TIP3    H235668   2.276   0.316   9.924  0.5114 -2.4684 -0.2039
 3825TIP3   OH235669   2.740   3.768   9.643 -0.1992  0.1100  0.1713
 3825TIP3    H135670   2.726   3.863   9.644 -2.9550 -0.1187 -2.5703
 3825TIP3    H235671   2.835   3.758   9.652  0.2116  3.1107  0.2811
 3826TIP3   OH235672   0.241   0.827  12.357  0.3536  0.5244 -1.1818
 3826TIP3    H135673   0.188   0.887  12.305  1.6244  1.6651 -1.2096
 3826TIP3    H235674   0.284   0.882  12.422 -1.2567 -0.8568  1.2158
 3827TIP3   OH235675   2.998   5.525  10.733 -0.5046  0.3901  0.3146
 3827TIP3    H135676   3.061   5.574  10.681  0.6642 -1.1941  0.1399
 3827TIP3    H235677   3.015   5.552  10.823 -1.3799  1.8898  0.0565
 3828TIP3   OH235678   4.468   5.603  11.868  0.0195  0.1943 -0.4730
 3828TIP3    H135679   4.442   5.695  11.875  2.2704  0.9462 -0.9822
 3828TIP3    H235680   4.543   5.604  11.808 -0.1680 -2.0469 -0.8223
 3829TIP3   OH235681   2.990   5.665  10.984 -0.2248 -0.1771 -0.0207
 3829TIP3    H135682   3.029   5.753  10.989 -1.1213  0.2285 -0.0338
 3829TIP3    H235683   2.914   5.669  11.043 -0.0045 -1.0917  0.3422
 3830TIP3   OH235684   3.586   1.615  12.132  0.0035 -0.2336 -0.2329
 3830TIP3    H135685   3.640   1.648  12.203 -1.7958 -0.1948  1.1805
 3830TIP3    H235686   3.649   1.577  12.070  1.8216  2.0427  0.0780
 3831TIP3   OH235687   6.066   3.090   9.380 -0.3499 -0.1671  0.5413
 3831TIP3    H135688   6.126   3.144   9.328  0.7367 -2.1592 -0.4037
 3831TIP3    H235689   6.054   3.139   9.461  0.6512  1.4274 -0.2097
 3832TIP3   OH235690   1.895   0.269  11.962 -0.1161 -0.3892 -0.3886
 3832TIP3    H135691   1.943   0.346  11.992  0.2271 -0.2289 -1.3261
 3832TIP3    H235692   1.837   0.301  11.893 -1.7711 -0.5394  0.8690
 3833TIP3   OH235693   6.272   2.615  10.507 -0.2487  0.1886  0.1456
 3833TIP3    H135694   6.245   2.549  10.571  0.2685 -0.8469 -0.6652
 3833TIP3    H235695   6.211   2.604  10.434  0.2017  0.1970 -0.2379
 3834TIP3   OH235696   1.628   3.492  12.020 -0.1674  0.4099  0.0025
 3834TIP3    H135697   1.575   3.520  11.945  0.5979  0.3175 -0.5896
 3834TIP3    H235698   1.701   3.554  12.021  0.9700 -0.8618 -0.6536
 3835TIP3   OH235699   5.496   3.958  12.251  0.3943  0.0004  0.5395
 3835TIP3    H135700   5.434   4.030  12.237  0.0441 -0.6664 -1.5184
 3835TIP3    H235701   5.573   3.982  12.200  0.2489 -1.0897 -0.2287
 3836TIP3   OH235702   6.227   4.772  11.232  0.2841  0.6395 -0.3428
 3836TIP3    H135703   6.278   4.763  11.152 -0.8075 -0.0878 -0.9682
 3836TIP3    H235704   6.171   4.695  11.235  0.8525  0.2303  1.5493
 3837TIP3   OH235705   5.540   3.847  11.517 -0.3985  0.1816 -0.4678
 3837TIP3    H135706   5.543   3.770  11.462  0.6413 -0.5151  0.5290
 3837TIP3    H235707   5.481   3.823  11.589  1.0327 -0.2559  0.6132
 3838TIP3   OH235708   3.879   4.287  10.131 -0.1944 -0.1407  0.2561
 3838TIP3    H135709   3.834   4.277  10.215 -0.8051 -0.0093 -0.0431
 3838TIP3    H235710   3.895   4.381  10.124  1.3873 -0.3276  0.9822
 3839TIP3   OH235711   6.334   2.584   9.766 -0.5505 -0.3638 -0.5186
 3839TIP3    H135712   6.285   2.512   9.805  1.2510 -1.3064  0.1111
 3839TIP3    H235713   6.401   2.606   9.831 -0.1668  0.9269 -1.3055
 3840TIP3   OH235714   3.951   0.372   8.865  0.4412 -0.8393 -0.2881
 3840TIP3    H135715   3.908   0.295   8.903 -1.9411  0.7504  0.5061
 3840TIP3    H235716   3.930   0.367   8.771 -0.3102 -0.8319 -0.1295
 3841TIP3   OH235717   0.067   5.009  11.302  0.1823 -0.0194  0.0903
 3841TIP3    H135718   0.130   5.062  11.351 -1.2964  0.8755  1.0897
 3841TIP3    H235719   0.011   5.073  11.258  0.5201 -0.8011 -1.5787
 3842TIP3   OH235720   2.024   5.169  11.702  0.3501  0.3158  0.1188
 3842TIP3    H135721   1.964   5.096  11.717  1.1560 -0.4730 -0.3887
 3842TIP3    H235722   2.040   5.167  11.608  1.5055  0.2303  0.3008
 3843TIP3   OH235723   0.405   5.808  11.741 -0.2848 -0.1985  0.1166
 3843TIP3    H135724   0.441   5.886  11.698  1.8561 -1.1686 -0.0071
 3843TIP3    H235725   0.356   5.764  11.672  0.8897 -0.3791 -0.6366
 3844TIP3   OH235726   0.268   3.382   9.937 -0.0986 -0.3594  0.6519
 3844TIP3    H135727   0.214   3.460   9.951 -1.7639 -1.3194 -0.0480
 3844TIP3    H235728   0.207   3.309   9.948  0.9877 -1.4956 -0.5431
 3845TIP3   OH235729   3.958   0.769  11.985  0.2050  0.1560  0.6577
 3845TIP3    H135730   3.944   0.848  12.036 -1.2223 -0.5027  1.3536
 3845TIP3    H235731   3.993   0.706  12.047  0.2812 -0.0840  0.3743
 3846TIP3   OH235732   5.047   6.551  10.533  0.0588 -0.8848 -0.1494
 3846TIP3    H135733   4.997   6.528  10.454  1.5547 -0.0693 -1.4050
 3846TIP3    H235734   5.124   6.494  10.530 -0.0341 -1.0849  0.9350
 3847TIP3   OH235735   0.355   5.542   9.734  0.0779 -0.4118  0.0468
 3847TIP3    H135736   0.425   5.519   9.674 -0.3672 -1.3906 -0.1191
 3847TIP3    H235737   0.293   5.592   9.681 -0.2267 -1.1212 -0.2877
 3848TIP3   OH235738   2.249   4.720  10.861  0.0232  0.2480 -0.8706
 3848TIP3    H135739   2.333   4.732  10.818  0.3014 -0.2401 -0.4702
 3848TIP3    H235740   2.250   4.629  10.892  0.1971  0.8134  0.9359
 3849TIP3   OH235741   1.591   1.198  10.039 -0.6580  0.0436 -0.2781
 3849TIP3    H135742   1.552   1.225   9.957  1.7120  1.7832 -0.9330
 3849TIP3    H235743   1.588   1.276  10.095  0.7325 -0.1132  0.0548
 3850TIP3   OH235744   3.491   5.189  10.787 -0.7017 -0.3386  0.3972
 3850TIP3    H135745   3.516   5.216  10.876 -2.7217  0.3476  0.7963
 3850TIP3    H235746   3.426   5.120  10.800 -0.6042 -0.6305 -0.5699
 3851TIP3   OH235747   1.293   2.623  12.353 -0.0563 -0.0824  0.1057
 3851TIP3    H135748   1.274   2.717  12.353 -0.2217 -0.1142  0.4884
 3851TIP3    H235749   1.213   2.583  12.317 -0.0988 -0.0978  0.2168
 3852TIP3   OH235750   6.345   6.152  11.115 -0.2863  0.5076  0.2746
 3852TIP3    H135751   6.439   6.170  11.106  0.0922 -0.3749  2.1599
 3852TIP3    H235752   6.314   6.219  11.176 -0.8245  0.5376 -0.0264
 3853TIP3   OH235753   2.596   2.745   8.518 -0.1523  0.1656 -0.1604
 3853TIP3    H135754   2.550   2.703   8.446 -1.2051 -0.0955  0.6380
 3853TIP3    H235755   2.613   2.834   8.487  0.4191 -0.2805 -1.1483
 3854TIP3   OH235756   1.959   0.794  10.828 -0.5609 -0.1800 -0.8958
 3854TIP3    H135757   2.034   0.736  10.819 -1.4450 -1.1356 -2.5735
 3854TIP3    H235758   1.997   0.882  10.833  0.7288 -0.7666  0.2639
 3855TIP3   OH235759   4.143   1.365  11.172  0.0435 -0.1456 -0.1878
 3855TIP3    H135760   4.204   1.436  11.151 -0.2351 -0.5537 -2.7177
 3855TIP3    H235761   4.169   1.335  11.259  3.7117 -0.5175 -1.2681
 3856TIP3   OH235762   2.070   2.001  12.540  0.0913 -0.0577  0.4479
 3856TIP3    H135763   1.983   1.964  12.527 -0.6068  1.7788 -0.3516
 3856TIP3    H235764   2.111   1.943  12.605 -0.4013 -2.9785 -1.6607
 3857TIP3   OH235765   4.650   2.894  10.792 -0.3543  0.2904 -0.5255
 3857TIP3    H135766   4.712   2.834  10.751  0.0261  0.2208  0.1341
 3857TIP3    H235767   4.702   2.942  10.857 -1.3760 -1.2004  1.4910
 3858TIP3   OH235768   5.098   0.081  12.271  0.5501  0.3083  0.3078
 3858TIP3    H135769   5.177   0.027  12.265  0.2154 -0.1560 -0.0084
 3858TIP3    H235770   5.027   0.024  12.240 -0.3478 -0.1578  2.9411
 3859TIP3   OH235771   3.189   4.800   8.566 -0.1414  0.0800  0.1028
 3859TIP3    H135772   3.282   4.802   8.544 -0.1479  0.2646  0.0910
 3859TIP3    H235773   3.182   4.856   8.644 -0.8212  3.2655 -2.0614
 3860TIP3   OH235774   2.378   3.109  10.968  0.1563 -0.0186  0.0476
 3860TIP3    H135775   2.455   3.165  10.964  0.2909 -0.2352 -2.2676
 3860TIP3    H235776   2.337   3.119  10.881 -1.1956 -1.5779  0.4468
 3861TIP3   OH235777   4.618   4.549  11.432  0.4625  0.5581 -0.0931
 3861TIP3    H135778   4.661   4.466  11.410 -2.0515 -0.5717 -1.2150
 3861TIP3    H235779   4.580   4.533  11.518  0.2346  0.6494 -0.1769
 3862TIP3   OH235780   5.074   1.394  12.672  0.0450 -0.1131  0.2065
 3862TIP3    H135781   5.136   1.457  12.708  1.3607 -1.3213  0.0906
 3862TIP3    H235782   5.027   1.444  12.605  1.8847  0.4528 -0.7190
 3863TIP3   OH235783   4.032   6.225  10.409 -0.0045 -0.3650 -0.5039
 3863TIP3    H135784   4.071   6.288  10.349 -1.2742  1.1754  0.2068
 3863TIP3    H235785   3.946   6.205  10.372 -1.6147  2.0308  1.5609
 3864TIP3   OH235786   4.377   3.952  12.445 -0.5035  0.2600 -0.1074
 3864TIP3    H135787   4.459   3.980  12.485  0.0601  0.1010 -1.1162
 3864TIP3    H235788   4.363   4.014  12.372 -0.7721 -0.2970 -0.5392
 3865TIP3   OH235789   2.610   3.858   8.523  1.0473  0.2944  0.4935
 3865TIP3    H135790   2.697   3.831   8.493  1.0064  0.5133  0.1792
 3865TIP3    H235791   2.555   3.855   8.445 -0.3504 -4.1191  1.3658
 3866TIP3   OH235792   0.925   6.044   9.514  0.5077 -0.2312  0.3006
 3866TIP3    H135793   0.865   6.011   9.581  0.4831 -0.6276  0.0885
 3866TIP3    H235794   0.970   6.117   9.556  0.7320 -0.6788  0.8583
 3867TIP3   OH235795   5.819   3.185   9.178  0.1196 -0.1568 -0.0028
 3867TIP3    H135796   5.786   3.268   9.145 -1.0570 -1.2670 -1.7809
 3867TIP3    H235797   5.914   3.199   9.187 -0.0416  1.3206 -0.3628
 3868TIP3   OH235798   5.569   5.661  10.706  0.2802  0.3050 -0.2445
 3868TIP3    H135799   5.583   5.744  10.660  0.1121  0.0457 -0.7742
 3868TIP3    H235800   5.507   5.613  10.651 -0.6247  0.3479  0.6981
 3869TIP3   OH235801   2.739   0.625   8.702  0.3807  0.8900  0.4353
 3869TIP3    H135802   2.815   0.600   8.755  0.6531  0.8676  0.0384
 3869TIP3    H235803   2.704   0.703   8.745  1.0738  1.3435  0.2059
 3870TIP3   OH235804   3.636   1.388  11.515 -0.2486  0.4690  0.5638
 3870TIP3    H135805   3.609   1.425  11.599 -0.1128  3.3482 -0.5407
 3870TIP3    H235806   3.732   1.384  11.520 -0.3203 -1.0960  1.1604
 3871TIP3   OH235807   2.198   3.241  10.017  0.0663  0.4054 -0.0524
 3871TIP3    H135808   2.148   3.279  10.090 -0.3968  2.2806 -1.2927
 3871TIP3    H235809   2.132   3.197   9.964  0.5463 -1.9605  1.1617
 3872TIP3   OH235810   4.219   2.428   9.202 -0.4954 -0.0711  0.0862
 3872TIP3    H135811   4.206   2.337   9.177  0.8382 -0.6151  1.2482
 3872TIP3    H235812   4.315   2.439   9.204 -0.6176  0.9430  1.3540
 3873TIP3   OH235813   5.158   2.837  11.303  0.2117  0.1579  0.0915
 3873TIP3    H135814   5.153   2.806  11.393  1.9372 -2.9425 -0.7412
 3873TIP3    H235815   5.088   2.790  11.257  1.4440 -0.9060 -0.7696
 3874TIP3   OH235816   2.193   3.881  11.490  0.2034 -0.5734 -0.3542
 3874TIP3    H135817   2.187   3.975  11.507 -1.1962 -0.5690 -0.6902
 3874TIP3    H235818   2.241   3.875  11.407 -0.6167 -0.0544 -0.8969
 3875TIP3   OH235819   6.356   6.616  10.731  0.1724  0.3186  0.0330
 3875TIP3    H135820   6.444   6.613  10.769  0.6892 -3.1936 -1.1277
 3875TIP3    H235821   6.299   6.580  10.798  0.2075 -0.6557 -0.4445
 3876TIP3   OH235822   2.787   1.515  12.309  0.0177 -0.2956 -0.3850
 3876TIP3    H135823   2.854   1.572  12.346 -1.5193  0.3937  1.4899
 3876TIP3    H235824   2.747   1.568  12.239 -1.4986  1.1011  1.4352
 3877TIP3   OH235825   1.641   4.510   9.340 -0.4915  0.2629 -0.1268
 3877TIP3    H135826   1.699   4.483   9.268  0.4567  0.5129  0.5307
 3877TIP3    H235827   1.554   4.512   9.300 -0.1435 -0.6548 -1.0006
 3878TIP3   OH235828   3.184   0.284  12.274  0.9572 -0.2133  0.0873
 3878TIP3    H135829   3.161   0.338  12.198  1.2157 -2.1575 -1.4593
 3878TIP3    H235830   3.099   0.256  12.309  0.8265  1.0392  0.8137
 3879TIP3   OH235831   1.870   6.515  11.238 -0.1815 -0.6753  0.0629
 3879TIP3    H135832   1.931   6.573  11.284 -0.3070 -0.3354 -0.1951
 3879TIP3    H235833   1.893   6.524  11.145  0.0412 -1.3233  0.0551
 3880TIP3   OH235834   1.139   0.571  12.240  0.0152 -0.1108 -0.6461
 3880TIP3    H135835   1.063   0.519  12.267 -0.5770  0.8300 -0.4425
 3880TIP3    H235836   1.214   0.526  12.277 -0.6021 -0.0641  0.6953
 3881TIP3   OH235837   0.617   0.467  12.250 -0.3229  0.2267  0.4231
 3881TIP3    H135838   0.613   0.385  12.299 -0.9584 -1.2215 -1.8940
 3881TIP3    H235839   0.530   0.506  12.262 -1.1989 -1.1333 -1.0949
 3882TIP3   OH235840   2.541   2.702  12.165 -0.2735  0.0044  0.4234
 3882TIP3    H135841   2.448   2.723  12.155  0.4761  3.2472 -1.1535
 3882TIP3    H235842   2.581   2.784  12.194  2.2880 -0.9021 -0.2714
 3883TIP3   OH235843   2.084   2.874  11.060  0.6939 -0.3021  0.9014
 3883TIP3    H135844   1.997   2.852  11.029  0.9061 -1.9744  1.4209
 3883TIP3    H235845   2.072   2.900  11.151  0.8183 -1.2916  1.2092
 3884TIP3   OH235846   2.003   0.082  11.404 -0.0199  0.2451  0.0818
 3884TIP3    H135847   2.057   0.028  11.462 -0.6903  0.9277  1.4087
 3884TIP3    H235848   2.041   0.170  11.412 -0.2142  0.3731 -0.3980
 3885TIP3   OH235849   5.515   6.072  10.445 -0.0233  0.3766  0.4176
 3885TIP3    H135850   5.588   6.096  10.388 -2.7181  1.5641 -2.9398
 3885TIP3    H235851   5.466   6.153  10.458 -2.3647 -0.8317 -0.1423
 3886TIP3   OH235852   4.687   4.471  11.692  0.4104 -0.1333  0.2413
 3886TIP3    H135853   4.724   4.412  11.757  0.7983  0.6424  0.7357
 3886TIP3    H235854   4.762   4.516  11.655  0.1063  0.1314 -0.0598
 3887TIP3   OH235855   5.933   4.302   9.229  0.1646  0.4614 -0.8996
 3887TIP3    H135856   5.842   4.289   9.202 -0.3494 -1.3515  1.3420
 3887TIP3    H235857   5.969   4.214   9.235  1.0470  0.9088  1.3766
 3888TIP3   OH235858   0.780   3.701  10.714  0.0436  0.2270 -0.0171
 3888TIP3    H135859   0.790   3.610  10.742 -0.2524  0.4990  1.0458
 3888TIP3    H235860   0.870   3.735  10.710  0.2454 -0.4330 -1.6373
 3889TIP3   OH235861   6.064   5.014  11.216 -0.7676  0.2888  0.2678
 3889TIP3    H135862   6.077   4.919  11.207  0.6950  0.4690  0.1617
 3889TIP3    H235863   5.972   5.024  11.241 -1.3606 -1.0513 -1.2596
 3890TIP3   OH235864   2.885   1.301   9.654  0.9012  0.4838  0.3535
 3890TIP3    H135865   2.869   1.206   9.655  0.9360  0.4630 -0.4095
 3890TIP3    H235866   2.798   1.340   9.647  0.9281  0.4897  0.0554
 3891TIP3   OH235867   1.650   6.480   9.892  0.2696  0.2462  0.5412
 3891TIP3    H135868   1.694   6.396   9.903  2.8103  1.0980 -2.0707
 3891TIP3    H235869   1.580   6.463   9.829  0.3499 -0.0450  0.5330
 3892TIP3   OH235870   3.614   2.731   8.807 -0.3957 -0.1993  0.6759
 3892TIP3    H135871   3.636   2.723   8.715 -0.0980 -0.6282  0.7826
 3892TIP3    H235872   3.518   2.729   8.809 -0.3906 -0.7218  0.4259
 3893TIP3   OH235873   6.319   6.110  11.926  0.2019  0.3799 -0.6211
 3893TIP3    H135874   6.248   6.116  11.862 -0.2817 -0.7150 -0.2179
 3893TIP3    H235875   6.346   6.018  11.924  1.0096  0.5898 -0.1237
 3894TIP3   OH235876   6.008   0.362  10.087 -0.4463  0.0507 -0.3068
 3894TIP3    H135877   6.001   0.267  10.096 -0.8599  0.1492  0.5271
 3894TIP3    H235878   6.096   0.383  10.118 -0.8000  0.0586  0.7590
 3895TIP3   OH235879   1.381   2.930  12.219  0.2450 -0.5628  0.2791
 3895TIP3    H135880   1.329   2.915  12.141 -1.5951 -0.7451  1.4648
 3895TIP3    H235881   1.398   3.025  12.219 -0.4619 -0.4304  0.0615
 3896TIP3   OH235882   0.922   0.461  10.144 -0.1567  0.4497  0.5406
 3896TIP3    H135883   0.839   0.508  10.153 -1.8556 -2.1326 -0.5484
 3896TIP3    H235884   0.942   0.467  10.051  0.0978 -0.1970  0.5523
 3897TIP3   OH235885   6.181   3.330  10.303  0.4868  0.6416 -0.3899
 3897TIP3    H135886   6.137   3.301  10.222 -1.4434  1.3045  0.3751
 3897TIP3    H235887   6.228   3.252  10.333 -2.1219 -0.8906  0.0026
 3898TIP3   OH235888   1.149   0.440  12.710 -0.3887 -0.5219 -0.7231
 3898TIP3    H135889   1.210   0.511  12.733  1.6645 -2.4673  0.1920
 3898TIP3    H235890   1.097   0.427  12.789 -0.0452 -0.7164 -0.5272
 3899TIP3   OH235891   2.416   2.343   9.355  0.2751 -0.6062 -0.2424
 3899TIP3    H135892   2.372   2.349   9.270 -2.0182  1.4055  0.9299
 3899TIP3    H235893   2.361   2.284   9.406  0.3625 -0.0581  0.5000
 3900TIP3   OH235894   4.512   4.560  10.520  0.4438 -0.2458  0.0108
 3900TIP3    H135895   4.444   4.506  10.558 -0.5213  0.1925 -1.0545
 3900TIP3    H235896   4.586   4.552  10.581 -0.0290 -1.8992  0.4042
 3901TIP3   OH235897   4.245   5.991  12.376  0.1813 -0.6818  0.7359
 3901TIP3    H135898   4.177   6.053  12.401  1.7683  1.0378  0.9712
 3901TIP3    H235899   4.253   5.932  12.451 -0.8865 -0.8007  0.7783
 3902TIP3   OH235900   5.929   4.772   9.491 -0.4393 -0.0216  0.3600
 3902TIP3    H135901   5.896   4.845   9.438 -0.3268  1.0296  1.6844
 3902TIP3    H235902   5.986   4.724   9.432 -0.5654  0.9278 -0.5751
 3903TIP3   OH235903   3.050   4.107  10.465  0.0833  0.3098 -0.3745
 3903TIP3    H135904   3.054   4.087  10.371  0.8752  0.9743 -0.4959
 3903TIP3    H235905   3.109   4.043  10.505  0.0923  0.3126 -0.3834
 3904TIP3   OH235906   0.866   5.884  11.936 -0.1629  0.1933  0.1143
 3904TIP3    H135907   0.946   5.837  11.963  0.1517  0.1638 -0.8476
 3904TIP3    H235908   0.898   5.967  11.901 -0.5444  0.1355 -0.3756
 3905TIP3   OH235909   2.498   3.196   9.449  0.0978 -0.1746  0.0719
 3905TIP3    H135910   2.517   3.239   9.533 -0.0420 -0.1331  0.0824
 3905TIP3    H235911   2.430   3.250   9.409  0.5227  0.0919 -0.3003
 3906TIP3   OH235912   2.117   3.542  10.793  0.2530  0.2425  0.1546
 3906TIP3    H135913   2.163   3.542  10.709  0.9829  1.4887  0.5271
 3906TIP3    H235914   2.029   3.574  10.772  0.4869  0.7172 -0.1191
 3907TIP3   OH235915   2.726   2.570   9.033 -0.0725  0.3956  0.1143
 3907TIP3    H135916   2.652   2.583   8.973 -0.7385  0.7062  0.9636
 3907TIP3    H235917   2.726   2.476   9.050 -0.6013  0.4541  0.4877
 3908TIP3   OH235918   5.508   2.174  11.374  0.8855  0.2279 -0.0388
 3908TIP3    H135919   5.524   2.129  11.457  0.6280  0.2796  0.0411
 3908TIP3    H235920   5.552   2.120  11.308  1.4660  0.4215  0.1819
 3909TIP3   OH235921   1.015   1.354  12.138 -0.3033 -0.0545 -0.4456
 3909TIP3    H135922   0.973   1.395  12.062  0.5630 -1.5066 -1.7879
 3909TIP3    H235923   0.969   1.271  12.148 -0.3099  0.0658  0.5496
 3910TIP3   OH235924   5.829   4.708  11.562 -0.4683  0.2463 -0.2144
 3910TIP3    H135925   5.851   4.616  11.580 -1.1601  0.3786  1.4534
 3910TIP3    H235926   5.898   4.758  11.605 -2.9522  0.6161  3.7960
 3911TIP3   OH235927   3.193   0.421   9.739 -0.1343 -0.1107  0.2204
 3911TIP3    H135928   3.098   0.418   9.737 -0.1518  0.5182 -1.0523
 3911TIP3    H235929   3.215   0.429   9.832 -1.3002 -0.5528  0.5476
 3912TIP3   OH235930   5.962   2.869  11.795  0.2421 -0.2002 -0.0753
 3912TIP3    H135931   6.041   2.832  11.756 -1.8569 -1.2275 -3.7850
 3912TIP3    H235932   5.913   2.905  11.721 -1.5850  2.8904  2.3899
 3913TIP3   OH235933   3.626   2.443  11.288 -0.1467 -0.1244  0.0460
 3913TIP3    H135934   3.544   2.492  11.299  0.2923  0.1834  2.7324
 3913TIP3    H235935   3.599   2.352  11.279 -0.8266  0.1592 -0.8888
 3914TIP3   OH235936   0.200   3.258  11.683  0.4399  0.2491  0.2271
 3914TIP3    H135937   0.207   3.163  11.692  1.3009  0.2180 -0.5803
 3914TIP3    H235938   0.146   3.272  11.605 -0.5229  0.4442  0.9095
 3915TIP3   OH235939   5.224   4.572   8.940 -0.4031  0.2623 -0.1284
 3915TIP3    H135940   5.276   4.551   8.863  0.7176  0.5192  0.5361
 3915TIP3    H235941   5.135   4.584   8.907 -0.2086 -0.9931 -1.1742
 3916TIP3   OH235942   1.069   1.446   9.391 -0.0386  0.2113  0.3181
 3916TIP3    H135943   1.110   1.427   9.307 -1.9565  1.7728 -1.0188
 3916TIP3    H235944   1.130   1.408   9.455 -0.0117 -3.8710 -1.7767
 3917TIP3   OH235945   3.548   5.954   9.900 -0.2084 -0.3463 -0.2953
 3917TIP3    H135946   3.462   5.994   9.913  0.5673  1.3612 -0.1096
 3917TIP3    H235947   3.600   5.984   9.975  1.0059  0.0015 -1.2434
 3918TIP3   OH235948   1.113   5.297  12.361  1.1021  0.3948  0.0250
 3918TIP3    H135949   1.195   5.344  12.350  2.1708 -1.6704 -1.5113
 3918TIP3    H235950   1.108   5.278  12.455  2.2875  0.7131  0.1626
 3919TIP3   OH235951   4.950   0.016  11.876 -0.2415 -0.8255 -0.6880
 3919TIP3    H135952   4.877  -0.020  11.926  0.8772 -0.2456  1.4470
 3919TIP3    H235953   4.909   0.076  11.813 -1.6141 -0.6660  0.3314
 3920TIP3   OH235954   0.993   6.589  10.861 -0.1142 -0.0987  0.0480
 3920TIP3    H135955   0.975   6.571  10.953 -0.1348  0.0595  0.0763
 3920TIP3    H235956   0.915   6.559  10.814 -0.1764 -0.0169  0.1002
 3921TIP3   OH235957   3.850   5.062  12.662 -0.4808 -0.0925  0.0851
 3921TIP3    H135958   3.790   5.131  12.635  0.9732  0.7551 -1.1527
 3921TIP3    H235959   3.796   4.983  12.665 -1.3746  0.3371 -2.5080
 3922TIP3   OH235960   2.059   4.817  10.724  0.1787 -0.1578  0.4434
 3922TIP3    H135961   2.113   4.779  10.793  1.9081  1.1635 -0.1128
 3922TIP3    H235962   2.047   4.745  10.661  1.4488 -0.4485  0.5055
 3923TIP3   OH235963   5.207   4.298  10.229 -0.2759 -0.0792  0.0383
 3923TIP3    H135964   5.200   4.359  10.155  1.4851  1.4061  1.0038
 3923TIP3    H235965   5.124   4.306  10.275 -0.6236  0.4876 -0.6676
 3924TIP3   OH235966   4.636   4.321  12.377  0.3289 -0.2129  0.4144
 3924TIP3    H135967   4.575   4.389  12.352  1.8007  0.3806 -1.8753
 3924TIP3    H235968   4.709   4.368  12.419  1.2981 -0.3187 -1.0726
 3925TIP3   OH235969   4.641   3.331   9.608  0.0483  0.1342 -0.4822
 3925TIP3    H135970   4.646   3.425   9.627 -2.3663  0.1027  0.7116
 3925TIP3    H235971   4.637   3.289   9.694  1.8323 -1.1726 -0.9841
 3926TIP3   OH235972   6.554   4.921  11.868 -0.4015  0.1814 -0.1521
 3926TIP3    H135973   6.595   4.834  11.873 -0.2704  0.2153 -0.5396
 3926TIP3    H235974   6.532   4.943  11.958 -0.6452 -0.3568 -0.0764
 3927TIP3   OH235975   1.517   5.410   9.523 -0.0937 -0.3480  0.2406
 3927TIP3    H135976   1.480   5.390   9.609  1.1868 -0.3557  0.8187
 3927TIP3    H235977   1.444   5.399   9.462 -1.0047 -0.4274  1.3112
 3928TIP3   OH235978   3.887   0.326  11.619 -0.4448  0.0761 -0.0470
 3928TIP3    H135979   3.835   0.386  11.566 -0.8757 -0.3139 -0.0656
 3928TIP3    H235980   3.947   0.383  11.667 -0.3212  0.4638 -0.6478
 3929TIP3   OH235981   3.177   2.201  12.054 -0.2278 -0.6192  0.2709
 3929TIP3    H135982   3.135   2.236  11.975  2.0995  0.5117 -0.5627
 3929TIP3    H235983   3.125   2.124  12.076 -1.2677 -0.6859 -2.0790
 3930TIP3   OH235984   1.185   1.797  12.085  0.0736  0.0337  0.0196
 3930TIP3    H135985   1.112   1.853  12.109  0.6293  0.0698  1.8439
 3930TIP3    H235986   1.263   1.848  12.108  0.6301 -0.6342 -0.3493
 3931TIP3   OH235987   0.440   1.725  10.836 -0.0763 -0.1154  0.1350
 3931TIP3    H135988   0.411   1.774  10.759  1.8741  2.0892  0.6848
 3931TIP3    H235989   0.402   1.772  10.910 -0.8582 -1.4462  0.6206
 3932TIP3   OH235990   2.410   5.986  11.483  0.4013  0.4374  0.0640
 3932TIP3    H135991   2.495   6.028  11.496  0.2182  0.4907  1.2737
 3932TIP3    H235992   2.347   6.057  11.494  0.2259  0.7646 -2.6040
 3933TIP3   OH235993   3.021   1.075  11.668 -0.2995  0.4981 -0.4908
 3933TIP3    H135994   3.051   0.995  11.625 -0.2290  0.2461  0.0167
 3933TIP3    H235995   2.998   1.048  11.757  2.6659  1.5525  0.7236
 3934TIP3   OH235996   4.276   2.455   9.579  0.5540  0.2180  0.2957
 3934TIP3    H135997   4.212   2.399   9.536  0.0656  0.7298  0.3354
 3934TIP3    H235998   4.348   2.396   9.604 -0.2556 -0.5100  0.9684
 3935TIP3   OH235999   4.191   2.104  10.910  0.8767  0.0275  0.6623
 3935TIP3    H136000   4.234   2.088  10.826  1.3825  1.0521  0.7155
 3935TIP3    H236001   4.105   2.137  10.887 -0.3203 -2.8282  0.5405
 3936TIP3   OH236002   6.121   1.014  11.441 -0.7230  1.1751  0.0511
 3936TIP3    H136003   6.086   0.956  11.509 -2.8598  4.0135  1.5924
 3936TIP3    H236004   6.201   1.050  11.479  0.3663 -0.3614 -0.7273
 3937TIP3   OH236005   2.905   4.172  12.407  0.4987  0.1957 -0.0643
 3937TIP3    H136006   2.872   4.111  12.473 -0.9787  0.8366 -0.1596
 3937TIP3    H236007   3.000   4.166  12.413  0.3845 -0.3473  1.5717
 3938TIP3   OH236008   5.575   5.586  12.014  0.2272 -1.0189  0.1258
 3938TIP3    H136009   5.495   5.540  12.040 -0.4491 -1.2719 -2.1516
 3938TIP3    H236010   5.556   5.679  12.029 -0.7126 -1.0388 -0.8272
 3939TIP3   OH236011   3.477   0.361  12.605  0.8051 -0.6650  0.2104
 3939TIP3    H136012   3.472   0.453  12.632  3.1642 -0.6169  0.7382
 3939TIP3    H236013   3.397   0.346  12.554  0.9571  2.0382 -1.0013
 3940TIP3   OH236014   0.453   1.780  11.266 -0.1550 -0.1522  0.0185
 3940TIP3    H136015   0.466   1.870  11.297 -0.4937  0.4421 -1.4623
 3940TIP3    H236016   0.381   1.746  11.319 -0.3521  0.6212  0.2593
 3941TIP3   OH236017   3.548   5.353  11.233  0.0421  0.2257 -0.0586
 3941TIP3    H136018   3.507   5.423  11.183 -0.0734  0.2943  0.1307
 3941TIP3    H236019   3.494   5.345  11.312  1.3293  1.4642  0.9971
 3942TIP3   OH236020   2.165   6.332  11.265 -0.0356  0.3732  0.0282
 3942TIP3    H136021   2.149   6.274  11.339  0.1327  0.0289 -0.2032
 3942TIP3    H236022   2.252   6.369  11.281 -0.2127  0.6926  0.2605
 3943TIP3   OH236023   5.218   4.997  10.490  0.3481  0.8629  0.1461
 3943TIP3    H136024   5.129   4.984  10.523  0.2203  1.7272  0.1832
 3943TIP3    H236025   5.226   5.092  10.483  0.8798  0.7486 -0.9321
 3944TIP3   OH236026   0.510   6.502  10.296  0.2539 -0.1815  0.4010
 3944TIP3    H136027   0.423   6.468  10.278 -0.2777  0.9795  0.6482
 3944TIP3    H236028   0.528   6.562  10.224  0.6859 -0.1301  0.5477
 3945TIP3   OH236029   5.252   1.451  11.474  0.3635  0.1815  0.3037
 3945TIP3    H136030   5.259   1.466  11.380 -0.3615 -1.5990 -0.0815
 3945TIP3    H236031   5.274   1.359  11.485 -0.0115  0.2475  1.8253
 3946TIP3   OH236032   0.036   2.086  10.810  0.3410 -0.0898  0.7133
 3946TIP3    H136033   0.031   2.069  10.904  1.1598  2.7872  1.3705
 3946TIP3    H236034   0.000   2.174  10.800  1.4271  0.1526 -1.4977
 3947TIP3   OH236035   3.730   5.051  11.746 -0.3008  0.2861  0.0940
 3947TIP3    H136036   3.709   5.140  11.718  0.0547 -0.2154 -1.8737
 3947TIP3    H236037   3.644   5.011  11.763 -0.4844  0.8323  0.4800
 3948TIP3   OH236038   3.373   2.684  12.352  0.2218  0.3625 -0.5740
 3948TIP3    H136039   3.302   2.730  12.397  0.1510  0.5900 -0.9157
 3948TIP3    H236040   3.352   2.591  12.363 -0.3528  0.4341 -1.0227
 3949TIP3   OH236041   3.043   3.465   8.845 -0.0880  0.5743  0.0444
 3949TIP3    H136042   3.095   3.397   8.888 -0.2330  0.6343  0.3228
 3949TIP3    H236043   3.104   3.537   8.830  0.4056 -0.1318 -1.5175
 3950TIP3   OH236044   0.080   5.743  10.880  0.0389  0.2405 -0.2888
 3950TIP3    H136045   0.080   5.838  10.870 -0.4039  0.2332 -0.3858
 3950TIP3    H236046   0.030   5.727  10.960 -1.3226  0.0182 -1.1464
 3951TIP3   OH236047   3.275   5.777  10.778  0.1174 -0.4064 -0.0710
 3951TIP3    H136048   3.265   5.707  10.713  2.3996 -1.1094  0.2353
 3951TIP3    H236049   3.268   5.858  10.727 -3.7152 -0.6592 -0.2715
 3952TIP3   OH236050   4.562   3.132  11.886 -0.1851 -0.0071  0.3857
 3952TIP3    H136051   4.619   3.113  11.811 -0.7245  0.8549 -0.2566
 3952TIP3    H236052   4.611   3.101  11.962  0.6829 -0.2358 -0.2554
 3953TIP3   OH236053   4.649   4.184  10.234 -0.1044  0.0304 -0.7444
 3953TIP3    H136054   4.559   4.215  10.243 -1.3745 -2.9036 -2.0883
 3953TIP3    H236055   4.700   4.243  10.290 -2.6783  2.3581 -0.6350
 3954TIP3   OH236056   4.079   4.930   9.009 -0.0893  0.2836 -0.5320
 3954TIP3    H136057   4.008   4.939   9.073  0.2691 -0.3859 -0.0241
 3954TIP3    H236058   4.039   4.887   8.934 -0.0915 -0.6511 -0.0077
 3955TIP3   OH236059   6.015   1.981  11.785  0.3784 -0.3487 -0.0576
 3955TIP3    H136060   5.981   1.899  11.749  1.3808 -1.1625  0.8067
 3955TIP3    H236061   6.106   1.962  11.807  0.4799  0.8499  0.6227
 3956TIP3   OH236062   4.467   6.382  10.579  0.3812 -0.2687  0.2862
 3956TIP3    H136063   4.456   6.431  10.497  1.1172  2.4429  1.6950
 3956TIP3    H236064   4.542   6.424  10.622  0.5585 -2.1890  1.9915
 3957TIP3   OH236065   4.941   3.380   9.765  0.1293  0.2280  0.2841
 3957TIP3    H136066   4.923   3.286   9.773  1.4142 -0.1412 -0.8208
 3957TIP3    H236067   5.018   3.385   9.708  1.7464  1.8034  2.4130
 3958TIP3   OH236068   1.771   2.065   9.029 -0.0152  0.1740  0.2684
 3958TIP3    H136069   1.790   2.159   9.027  0.0207  0.2271 -3.0892
 3958TIP3    H236070   1.678   2.060   9.051 -0.1561  1.0446 -0.0686
 3959TIP3   OH236071   2.527   5.678   9.510 -0.4118 -0.0383  0.0253
 3959TIP3    H136072   2.535   5.773   9.500 -2.3433  0.2812  0.9425
 3959TIP3    H236073   2.610   5.643   9.477  0.4631  1.9732 -0.0665
 3960TIP3   OH236074   5.398   5.819  10.388 -0.5553  0.6446 -0.1047
 3960TIP3    H136075   5.433   5.901  10.420 -1.4976  1.2302 -0.5173
 3960TIP3    H236076   5.331   5.845  10.324 -0.5529 -0.4427 -0.5777
 3961TIP3   OH236077   4.626   4.072  12.468 -0.4759  0.2338 -0.3850
 3961TIP3    H136078   4.696   4.035  12.415  0.5842  1.6184 -0.0345
 3961TIP3    H236079   4.625   4.165  12.445  0.0109  0.8932  1.9077
 3962TIP3   OH236080   4.331   4.383  11.413 -0.4164 -0.2161 -0.2834
 3962TIP3    H136081   4.252   4.426  11.445  0.8763  1.7160  0.4502
 3962TIP3    H236082   4.344   4.420  11.325  0.3520  0.4662  0.1040
 3963TIP3   OH236083   0.840   1.150  12.168 -0.2859  0.3352  0.0660
 3963TIP3    H136084   0.801   1.121  12.250  0.1878 -0.3582  0.0566
 3963TIP3    H236085   0.789   1.107  12.100  0.2448 -0.2702  0.0428
 3964TIP3   OH236086   6.016   1.995   8.623 -0.0037  0.7333 -0.2611
 3964TIP3    H136087   5.923   1.978   8.608  0.2137  0.7254 -1.7225
 3964TIP3    H236088   6.037   2.068   8.565  0.1299  3.1867  2.6384
 3965TIP3   OH236089   1.889   3.170  11.600  0.6828 -0.2320 -0.5617
 3965TIP3    H136090   1.966   3.212  11.562  0.6145  0.2862 -0.1318
 3965TIP3    H236091   1.856   3.114  11.529  0.9682  0.1754 -1.0280
 3966TIP3   OH236092   1.463   1.527  11.727  0.1469  0.1233  0.6022
 3966TIP3    H136093   1.453   1.442  11.769 -2.6887  0.8784  1.6778
 3966TIP3    H236094   1.394   1.582  11.766 -0.1112  2.0264 -2.2090
 3967TIP3   OH236095   5.576   5.758  11.513 -0.1488 -0.2243 -0.0960
 3967TIP3    H136096   5.504   5.721  11.564 -0.5411  0.5357 -0.0843
 3967TIP3    H236097   5.640   5.786  11.578 -0.3758  0.1779 -0.0377
 3968TIP3   OH236098   2.311   1.759  10.068 -0.0195  0.6480  0.3554
 3968TIP3    H136099   2.386   1.782  10.123 -1.3309 -0.1982  2.6496
 3968TIP3    H236100   2.291   1.840  10.021  2.2964  0.8807 -0.3545
 3969TIP3   OH236101   5.256   3.524   9.970 -0.2691  0.0233  0.4788
 3969TIP3    H136102   5.244   3.430   9.958 -0.5762  0.0343  0.6665
 3969TIP3    H236103   5.346   3.533  10.002  0.4084 -0.0370 -1.3005
 3970TIP3   OH236104   5.503   3.014  10.171 -0.4918  0.4822  0.3168
 3970TIP3    H136105   5.500   3.104  10.138 -2.8057 -0.3420 -2.0536
 3970TIP3    H236106   5.411   2.990  10.185 -0.0508 -1.8679 -0.2629
 3971TIP3   OH236107   4.696   4.972   9.460  0.0759 -0.2991 -0.3747
 3971TIP3    H136108   4.753   4.930   9.524 -1.2572 -1.3248  0.2030
 3971TIP3    H236109   4.748   5.044   9.425  0.9786  0.0713  1.5947
 3972TIP3   OH236110   2.655   4.467   9.633 -0.1785  0.3057  0.5289
 3972TIP3    H136111   2.568   4.433   9.612 -0.7550  1.4791  0.9244
 3972TIP3    H236112   2.673   4.433   9.721 -0.1652 -0.0902  0.3710
 3973TIP3   OH236113   3.454   4.986  12.432  0.5908 -0.2882 -0.4092
 3973TIP3    H136114   3.507   4.940  12.498 -0.1385 -1.0965 -0.3688
 3973TIP3    H236115   3.368   4.945  12.438  0.2305  0.3416 -1.1552
 3974TIP3   OH236116   2.593   6.554  10.282  0.3342 -0.4011 -0.0321
 3974TIP3    H136117   2.642   6.522  10.358 -1.3297 -0.0773  1.2527
 3974TIP3    H236118   2.620   6.497  10.210  2.0768 -0.6208  0.7532
 3975TIP3   OH236119   0.624   1.350  11.894  0.2868 -0.1028 -0.5337
 3975TIP3    H136120   0.576   1.344  11.977 -0.4990 -0.2362 -0.9905
 3975TIP3    H236121   0.556   1.364  11.828  0.8452 -0.6197 -1.2338
 3976TIP3   OH236122   5.491   5.859  12.064  0.2707  0.1406 -0.3072
 3976TIP3    H136123   5.398   5.880  12.064  0.6162  1.9154 -1.3577
 3976TIP3    H236124   5.526   5.906  11.988  2.1528  0.0948  0.4762
 3977TIP3   OH236125   2.371   2.383  10.594  0.4072 -0.2164  0.2689
 3977TIP3    H136126   2.445   2.443  10.605  0.3846 -0.0561 -0.4508
 3977TIP3    H236127   2.367   2.336  10.677  0.0466  1.2093  1.1098
 3978TIP3   OH236128   4.593   0.799  12.338  0.0214  0.3707 -0.1920
 3978TIP3    H136129   4.617   0.733  12.403 -0.0109  0.4957 -0.0532
 3978TIP3    H236130   4.589   0.751  12.255  1.1784  0.4248 -0.2938
 3979TIP3   OH236131   0.758   2.749   9.360 -0.1982  0.4905  0.0429
 3979TIP3    H136132   0.758   2.682   9.429  2.1206 -0.8707 -1.1614
 3979TIP3    H236133   0.813   2.819   9.395 -0.6608  0.7086  0.3450
 3980TIP3   OH236134   6.415   5.751  11.651 -0.0147 -0.1586  0.1066
 3980TIP3    H136135   6.412   5.762  11.556 -0.7740 -0.9186  0.0251
 3980TIP3    H236136   6.466   5.671  11.664  0.2180  0.0282  0.3471
 3981TIP3   OH236137   0.069   4.398  12.266 -0.0951  0.2003  0.0585
 3981TIP3    H136138   0.089   4.443  12.348 -1.3531 -0.9719  1.0547
 3981TIP3    H236139  -0.013   4.437  12.236  0.4309  0.7183 -0.7324
 3982TIP3   OH236140   2.197   0.523  11.213 -0.2324  0.2781 -0.5061
 3982TIP3    H136141   2.289   0.529  11.238 -0.6592  1.0533  0.9427
 3982TIP3    H236142   2.164   0.612  11.219 -0.3591  0.6422 -4.1614
 3983TIP3   OH236143   2.107   0.637   8.751 -0.7172  0.1186  0.2639
 3983TIP3    H136144   2.194   0.653   8.714 -0.6840 -0.2636  0.1714
 3983TIP3    H236145   2.090   0.545   8.732 -0.5374 -0.2032  1.5440
 3984TIP3   OH236146   2.873   2.110   9.980  0.2651 -0.5332  0.2568
 3984TIP3    H136147   2.860   2.199  10.013  0.5080 -0.5112  0.2938
 3984TIP3    H236148   2.940   2.119   9.912  1.1218 -0.8533  1.0323
 3985TIP3   OH236149   2.264   1.630   8.205 -0.0232  0.6929  0.4098
 3985TIP3    H136150   2.189   1.656   8.151  0.3325  0.6535 -0.1084
 3985TIP3    H236151   2.313   1.569   8.151  0.0071  0.1684  1.0215
 3986TIP3   OH236152   3.840   3.181  10.455  0.1694 -0.2686  0.2312
 3986TIP3    H136153   3.931   3.154  10.439  0.0802 -0.9325  0.8707
 3986TIP3    H236154   3.819   3.147  10.541 -0.4935  0.4189  0.3489
 3987TIP3   OH236155   0.691   3.989   8.780  0.1775 -0.0207  0.6198
 3987TIP3    H136156   0.784   4.005   8.760 -0.2119  0.3272 -1.0919
 3987TIP3    H236157   0.686   3.894   8.796  0.8998  0.0367  1.2596
 3988TIP3   OH236158   4.332   0.432  11.106  0.3988  0.0285  0.1079
 3988TIP3    H136159   4.356   0.503  11.046 -0.8024  0.4722  0.1246
 3988TIP3    H236160   4.269   0.379  11.057 -0.1107  0.0304  0.7420
 3989TIP3   OH236161   1.747   4.810   9.396 -0.4715 -0.1830  0.4908
 3989TIP3    H136162   1.686   4.871   9.437 -0.6711 -1.0726  1.5637
 3989TIP3    H236163   1.727   4.816   9.302 -1.9284 -0.1409  0.7845
 3990TIP3   OH236164   1.267   2.168  10.112  0.2423  0.0952  0.2895
 3990TIP3    H136165   1.206   2.097  10.136 -0.8018  0.6696 -0.5755
 3990TIP3    H236166   1.299   2.201  10.196  0.4657 -1.1606  0.7122
 3991TIP3   OH236167   1.686   2.094  10.282 -0.1486 -0.4885 -0.1984
 3991TIP3    H136168   1.624   2.054  10.343 -1.0857 -0.0166 -0.8154
 3991TIP3    H236169   1.754   2.028  10.270  0.0538 -0.5933  1.3312
 3992TIP3   OH236170   2.830   3.251  11.949  0.3637  0.2149 -0.5078
 3992TIP3    H136171   2.848   3.295  11.866  1.8049 -0.8801 -0.8102
 3992TIP3    H236172   2.787   3.169  11.924  2.1813 -0.8443 -0.3311
 3993TIP3   OH236173   0.158   1.827  12.477 -0.4910  0.3621 -0.0222
 3993TIP3    H136174   0.177   1.854  12.567 -1.1098  0.7918 -0.0173
 3993TIP3    H236175   0.236   1.851  12.427 -0.8152  1.6859  0.0855
 3994TIP3   OH236176   1.634   1.600   8.787  0.0770 -0.4132  0.1242
 3994TIP3    H136177   1.609   1.553   8.708  1.4969 -1.1870  0.0948
 3994TIP3    H236178   1.710   1.652   8.762 -0.8082  1.0857  0.4407
 3995TIP3   OH236179   6.281   6.219  10.729  0.1113 -0.1131 -0.1301
 3995TIP3    H136180   6.283   6.272  10.809  1.1038  0.2600 -0.3937
 3995TIP3    H236181   6.238   6.138  10.756  0.9288 -0.2156  0.9351
 3996TIP3   OH236182   5.220   1.301   9.350 -0.1565  0.2257 -0.3685
 3996TIP3    H136183   5.261   1.215   9.351  0.8782  0.6741 -1.7606
 3996TIP3    H236184   5.150   1.294   9.285 -1.1608 -0.0045  0.6924
 3997TIP3   OH236185   0.625   3.370  12.027  0.9783 -0.1148  0.3733
 3997TIP3    H136186   0.644   3.456  12.065  2.7088 -0.9091  1.4489
 3997TIP3    H236187   0.711   3.329  12.016  0.2319 -1.4939 -0.6758
 3998TIP3   OH236188   2.106   0.989  11.043  0.2467 -0.1967  0.2644
 3998TIP3    H136189   2.078   0.917  11.100  2.1752  0.2326  1.8863
 3998TIP3    H236190   2.202   0.983  11.042  0.6197  3.0917  1.6046
 3999TIP3   OH236191   5.983   6.286   9.814 -0.5626  0.1113 -0.0512
 3999TIP3    H136192   5.987   6.306   9.907 -2.7985 -0.5227  0.2176
 3999TIP3    H236193   5.917   6.346   9.779 -0.2428 -0.1256 -1.1027
 4000TIP3   OH236194   3.581   3.334   9.222 -0.1875  0.5209  0.8343
 4000TIP3    H136195   3.612   3.268   9.285 -1.1112  1.6393  2.5422
 4000TIP3    H236196   3.565   3.285   9.142 -0.0811 -1.1892  1.8083
 4001TIP3   OH236197   0.146   0.501  10.674 -0.1683  0.2295 -0.9525
 4001TIP3    H136198   0.166   0.466  10.587 -0.0391 -1.2023 -0.3713
 4001TIP3    H236199   0.074   0.562  10.659 -0.1031  0.0590 -2.0744
 4002TIP3   OH236200   2.398   2.650   9.589  0.4214  0.4694  0.1366
 4002TIP3    H136201   2.330   2.584   9.600  1.6931 -0.6715  1.8276
 4002TIP3    H236202   2.464   2.609   9.533  0.3926  1.0103 -0.3045
 4003TIP3   OH236203   1.443   5.350  11.257 -0.6163 -0.3102  0.7109
 4003TIP3    H136204   1.494   5.296  11.197  0.4698  1.6614 -0.2602
 4003TIP3    H236205   1.501   5.424  11.278 -2.2151  0.7931  1.4562
 4004TIP3   OH236206   0.354   3.280  10.302  0.5965 -0.0055 -0.3367
 4004TIP3    H136207   0.358   3.322  10.388  1.2665 -1.6451  0.4895
 4004TIP3    H236208   0.292   3.208  10.313  1.4690 -0.8790 -0.8939
 4005TIP3   OH236209   5.495   2.043  10.266 -0.2116  0.5798 -0.0387
 4005TIP3    H136210   5.543   1.998  10.196  0.3434  1.3785 -0.1877
 4005TIP3    H236211   5.552   2.116  10.291 -2.0520  2.5919 -1.3811
 4006TIP3   OH236212   5.935   3.068   9.913 -0.0622  0.2085  0.3745
 4006TIP3    H136213   5.947   3.018   9.832  1.5936 -2.1943  1.9770
 4006TIP3    H236214   5.849   3.040   9.946 -0.2689  0.3839 -0.0091
 4007TIP3   OH236215   0.516   1.353   9.859  0.0966 -0.1245  0.3963
 4007TIP3    H136216   0.442   1.363   9.799  0.0399 -0.0691  0.4761
 4007TIP3    H236217   0.506   1.424   9.922  0.5160  0.2120  0.0914
 4008TIP3   OH236218   2.390   1.055  10.342 -0.9080  0.6860 -0.3152
 4008TIP3    H136219   2.402   1.083  10.433  1.2305  1.9901 -0.9167
 4008TIP3    H236220   2.431   1.125  10.291 -0.5742 -0.8228 -2.2016
 4009TIP3   OH236221   5.298   6.371  10.230  0.2763  0.4049  0.1120
 4009TIP3    H136222   5.207   6.361  10.258 -0.2059  1.7992 -0.7940
 4009TIP3    H236223   5.292   6.419  10.147  1.7938 -0.5050 -0.5771
 4010TIP3   OH236224   1.726   0.275  11.032  0.4065 -0.5362 -0.1047
 4010TIP3    H136225   1.803   0.330  11.049 -0.1989  0.6689 -1.0792
 4010TIP3    H236226   1.658   0.310  11.090 -0.0724 -0.0093 -0.9502
 4011TIP3   OH236227   6.077   2.819  12.438 -0.5578 -0.0790  0.2003
 4011TIP3    H136228   6.122   2.894  12.402  0.8002 -0.7655  0.4102
 4011TIP3    H236229   6.110   2.811  12.528 -0.0278 -1.3893 -0.0749
 4012TIP3   OH236230   0.036   1.899  10.114 -0.2628  0.6720  0.0330
 4012TIP3    H136231  -0.034   1.878  10.176  0.5280  1.2232  1.1428
 4012TIP3    H236232   0.050   1.993  10.126  0.6011  0.5852 -0.2532
 4013TIP3   OH236233   0.313   3.746  10.401  0.2465  0.0468 -0.2419
 4013TIP3    H136234   0.394   3.744  10.452 -0.1440 -1.4480  0.3771
 4013TIP3    H236235   0.255   3.683  10.445 -0.9716  0.5030 -1.1260
 4014TIP3   OH236236   5.794   5.772  12.393 -0.2608  0.1152 -0.7448
 4014TIP3    H136237   5.843   5.692  12.376 -0.7797 -0.5329  0.6727
 4014TIP3    H236238   5.704   5.743  12.407 -0.0923  0.6521  1.8669
 4015TIP3   OH236239   4.018   4.811  12.475 -0.6126 -0.3534 -0.0575
 4015TIP3    H136240   3.978   4.872  12.413 -0.6240  0.2235  0.5162
 4015TIP3    H236241   4.070   4.866  12.533 -2.9077 -0.4814  2.3143
 4016TIP3   OH236242   2.145   4.303  10.481  0.1223 -0.6127  0.2163
 4016TIP3    H136243   2.225   4.337  10.440 -0.4146  0.5086  0.0545
 4016TIP3    H236244   2.177   4.246  10.550  1.1370  1.0482  1.2070
 4017TIP3   OH236245   1.117   0.867  11.741  0.1308  0.7522  0.6105
 4017TIP3    H136246   1.088   0.911  11.661 -1.1347 -2.4745 -0.8680
 4017TIP3    H236247   1.043   0.875  11.802  0.2475  1.3670  0.6750
 4018TIP3   OH236248   4.860   5.424  10.452  0.4064  0.0261  0.1170
 4018TIP3    H136249   4.809   5.405  10.531 -0.4231 -1.3318 -0.7044
 4018TIP3    H236250   4.798   5.465  10.392  0.1767 -1.7506 -0.9380
 4019TIP3   OH236251   3.652   1.014  11.885 -0.4985  0.2100 -0.2258
 4019TIP3    H136252   3.702   1.091  11.912  0.7012 -0.2018 -1.1748
 4019TIP3    H236253   3.572   1.050  11.847  0.1093  1.0052 -0.7823
 4020TIP3   OH236254   6.375   6.565   9.852 -0.4193  0.1535  0.6377
 4020TIP3    H136255   6.343   6.634   9.911 -3.0966 -0.5826  0.1884
 4020TIP3    H236256   6.320   6.489   9.871 -0.1518 -0.6670 -1.5101
 4021TIP3   OH236257   0.086   5.331  12.027  0.1445  0.3539 -0.3228
 4021TIP3    H136258   0.007   5.314  12.077 -0.0660  0.0473 -0.7564
 4021TIP3    H236259   0.087   5.264  11.959  0.2481  0.9741 -0.9443
 4022TIP3   OH236260   4.264   0.496  10.723  0.7399  0.0288 -0.2603
 4022TIP3    H136261   4.199   0.471  10.789  1.1568 -2.8830 -0.8410
 4022TIP3    H236262   4.267   0.592  10.728 -0.7056  0.0312  2.5129
 4023TIP3   OH236263   2.502   4.691  10.664  0.0895 -0.2169 -0.3116
 4023TIP3    H136264   2.571   4.629  10.641  1.0312  1.0921 -1.1413
 4023TIP3    H236265   2.486   4.740  10.583 -0.5178  0.7285  0.3602
 4024TIP3   OH236266   4.181   3.999  12.022  0.1522 -0.0551  0.4742
 4024TIP3    H136267   4.224   3.916  12.041 -0.9128 -0.3067  1.9557
 4024TIP3    H236268   4.088   3.979  12.022 -0.0765  0.6397 -1.8634
 4025TIP3   OH236269   0.996   6.027  10.802  0.0472  0.1417  0.2886
 4025TIP3    H136270   1.077   6.055  10.844  0.2933  0.4798 -0.4037
 4025TIP3    H236271   0.935   6.013  10.875  0.3554  1.0601  0.7371
 4026TIP3   OH236272   2.192   2.339  12.575  0.2365  0.2486  0.5103
 4026TIP3    H136273   2.258   2.349  12.644  1.8615  0.5768 -1.0276
 4026TIP3    H236274   2.108   2.347  12.621  1.1642  5.0539  1.9496
 4027TIP3   OH236275   5.202   1.310  12.430 -0.2753  0.1816  0.2135
 4027TIP3    H136276   5.181   1.302  12.523 -1.1037 -1.2198 -0.0627
 4027TIP3    H236277   5.184   1.223  12.394 -0.3707  0.8095 -1.3352
 4028TIP3   OH236278   3.792   3.971  10.974  0.1385 -0.3598  0.0554
 4028TIP3    H136279   3.764   3.997  10.887 -1.1870 -0.4029  0.4429
 4028TIP3    H236280   3.886   3.988  10.976  0.5001 -1.8102 -1.8971
 4029TIP3   OH236281   2.161   2.630   8.268  0.1747  0.6969 -0.1014
 4029TIP3    H136282   2.210   2.563   8.316 -0.5404 -1.4924 -2.1870
 4029TIP3    H236283   2.222   2.662   8.202 -0.4444 -0.4486 -1.2886
 4030TIP3   OH236284   1.434   2.574   9.584  0.2022 -0.1459  0.2121
 4030TIP3    H136285   1.488   2.549   9.509  0.8524  1.0199  0.2543
 4030TIP3    H236286   1.467   2.522   9.657 -0.3729 -1.2205 -0.2774
 4031TIP3   OH236287   3.275   2.477   8.015  0.4448  0.7166 -0.3115
 4031TIP3    H136288   3.251   2.392   8.052 -0.1740  0.4655 -1.2588
 4031TIP3    H236289   3.224   2.484   7.934  2.1279  1.0069 -1.4077
 4032TIP3   OH236290   1.377   2.688  11.339 -0.0687 -0.2618 -0.0130
 4032TIP3    H136291   1.326   2.725  11.412 -0.7404  0.4153 -0.8028
 4032TIP3    H236292   1.356   2.744  11.264  0.7837 -0.8121 -0.6833
 4033TIP3   OH236293   5.607   1.623  12.389  0.2574 -0.4348  0.0425
 4033TIP3    H136294   5.536   1.687  12.395 -1.1086 -1.9938  1.9751
 4033TIP3    H236295   5.567   1.546  12.347  1.3317 -0.7063 -0.5333
 4034TIP3   OH236296   3.687   6.105  11.169 -0.3520  0.3936  0.0725
 4034TIP3    H136297   3.740   6.074  11.243 -1.7786 -1.4889  0.3871
 4034TIP3    H236298   3.640   6.181  11.202  0.9221  1.1202  0.2735
 4035TIP3   OH236299   0.962   2.434  11.078  0.0716  0.2888  0.5177
 4035TIP3    H136300   0.873   2.411  11.104  0.2055 -0.4397  0.3374
 4035TIP3    H236301   0.995   2.357  11.033  1.0959  0.2345  1.3209
 4036TIP3   OH236302   1.597   2.708  12.148  0.5861 -0.5184 -0.0613
 4036TIP3    H136303   1.641   2.674  12.226  1.0225  0.6707  0.2340
 4036TIP3    H236304   1.512   2.739  12.180  1.9229  2.9121  0.7056
 4037TIP3   OH236305   4.896   6.398  11.222  0.7748  0.3980 -0.3575
 4037TIP3    H136306   4.891   6.469  11.158 -0.1830  0.1491 -0.5791
 4037TIP3    H236307   4.965   6.340  11.190 -0.5392 -0.3977 -1.9011
 4038TIP3   OH236308   0.162   2.879  12.372 -0.4058  0.3203  0.4312
 4038TIP3    H136309   0.226   2.943  12.402  0.0323 -0.6962  1.7543
 4038TIP3    H236310   0.090   2.931  12.336 -0.6672  1.6353  2.6696
 4039TIP3   OH236311   5.619   2.629   8.849 -0.0109 -0.9873 -0.1608
 4039TIP3    H136312   5.573   2.612   8.932  0.5717 -0.7636  0.2147
 4039TIP3    H236313   5.694   2.682   8.874  0.3775 -1.2306 -0.7912
 4040TIP3   OH236314   0.323   4.397  12.437 -0.3890 -0.0299 -0.1878
 4040TIP3    H136315   0.399   4.357  12.395 -0.3983 -1.0851  0.7386
 4040TIP3    H236316   0.278   4.324  12.480 -1.9516  0.5730 -0.7220
 4041TIP3   OH236317   2.063   3.330  10.950 -0.7393 -0.4012 -0.2336
 4041TIP3    H136318   2.087   3.404  10.895 -1.6967  0.6288  0.6755
 4041TIP3    H236319   2.037   3.370  11.034 -1.2974 -1.7563  0.2714
 4042TIP3   OH236320   2.847   4.245  10.602  0.2376  0.0156  0.7022
 4042TIP3    H136321   2.923   4.198  10.569 -0.2545  1.0311 -2.1811
 4042TIP3    H236322   2.780   4.177  10.612  0.6891 -0.4708  0.4795
 4043TIP3   OH236323   2.089   6.161  10.259  0.0934 -0.4707 -0.5020
 4043TIP3    H136324   2.108   6.247  10.222 -1.7583 -0.0637 -0.5944
 4043TIP3    H236325   2.140   6.158  10.340  1.2569  0.1262 -1.1873
 4044TIP3   OH236326   6.423   4.717  11.721  0.5196  0.0007 -0.0549
 4044TIP3    H136327   6.428   4.627  11.754 -2.2617  0.1849  1.1443
 4044TIP3    H236328   6.402   4.769  11.798  0.5354  1.4620 -1.0110
 4045TIP3   OH236329   0.534   3.927  10.048 -0.0572  0.2931  0.0977
 4045TIP3    H136330   0.626   3.918  10.026  0.2007  0.3835  1.0876
 4045TIP3    H236331   0.509   4.012  10.012  0.0577 -0.0389 -0.7752
 4046TIP3   OH236332   0.749   2.722  11.654 -0.3023 -0.2369 -0.4218
 4046TIP3    H136333   0.745   2.697  11.747  1.4889 -0.5619 -0.3933
 4046TIP3    H236334   0.719   2.813  11.653 -3.2227 -1.0937  0.0062
 4047TIP3   OH236335   2.292   3.739   9.333  0.2564  0.4590  0.0630
 4047TIP3    H136336   2.363   3.676   9.321 -0.3830 -0.7669  2.1947
 4047TIP3    H236337   2.227   3.714   9.266  1.1057  0.5585 -0.8251
 4048TIP3   OH236338   5.542   3.350  11.937  0.3547 -0.1063  0.1279
 4048TIP3    H136339   5.579   3.430  11.899  1.0036 -0.9294 -1.0157
 4048TIP3    H236340   5.459   3.338  11.890  0.9191 -0.8539 -0.6943
 4049TIP3   OH236341   2.609   2.524  10.664  0.3859 -0.3251  0.0965
 4049TIP3    H136342   2.620   2.472  10.744 -1.7160 -0.3614  0.4285
 4049TIP3    H236343   2.538   2.585  10.685 -0.5046 -0.6025 -1.8413
 4050TIP3   OH236344   0.816   5.497  10.345 -0.0496 -0.1659  0.3013
 4050TIP3    H136345   0.868   5.539  10.414  2.1099 -0.1726 -1.2311
 4050TIP3    H236346   0.842   5.405  10.348  0.7634 -0.0104 -1.0446
 4051TIP3   OH236347   6.371   4.200   9.977 -0.5932  0.3021  0.0194
 4051TIP3    H136348   6.321   4.272   9.940 -1.9947  0.1005  1.3977
 4051TIP3    H236349   6.459   4.209   9.940  0.0545  4.2438  2.0833
 4052TIP3   OH236350   4.642   4.515  10.294 -0.7065  0.0452  0.2481
 4052TIP3    H136351   4.721   4.563  10.316 -1.2798  1.5589 -0.8525
 4052TIP3    H236352   4.581   4.535  10.365 -0.7337  0.4138  0.1203
 4053TIP3   OH236353   3.121   1.342   9.323  0.5239  0.0019 -0.0328
 4053TIP3    H136354   3.090   1.415   9.269 -1.8446  0.7311  2.0862
 4053TIP3    H236355   3.064   1.269   9.299 -0.2659  0.2165  1.1223
 4054TIP3   OH236356   3.388   1.950   8.762 -0.6813 -0.1283 -0.2053
 4054TIP3    H136357   3.358   1.898   8.837  0.6054 -1.3080 -0.4468
 4054TIP3    H236358   3.394   1.886   8.691  2.6780 -0.1400 -0.0649
 4055TIP3   OH236359   3.700   2.964  11.067 -0.2977 -0.2192 -0.1786
 4055TIP3    H136360   3.685   2.967  11.161 -3.3026 -0.0769 -0.5635
 4055TIP3    H236361   3.676   2.876  11.041  0.2300 -0.1676 -0.8852
 4056TIP3   OH236362   2.279   1.021  11.554  0.2514 -0.5792 -0.0399
 4056TIP3    H136363   2.187   1.041  11.572  0.4255 -0.1985  0.4576
 4056TIP3    H236364   2.279   0.930  11.525 -0.1645 -0.9106  0.9758
 4057TIP3   OH236365   2.091   1.073   8.724 -0.4678  0.5281  0.0757
 4057TIP3    H136366   2.165   1.065   8.663 -1.0821 -0.9897 -0.5098
 4057TIP3    H236367   2.076   1.168   8.731  0.5427  0.7885 -1.0079
 4058TIP3   OH236368   1.738   0.995   9.910 -0.1598 -0.6375 -0.2551
 4058TIP3    H136369   1.735   1.090   9.920  0.0873 -0.7938  1.8376
 4058TIP3    H236370   1.669   0.974   9.847 -2.6195  0.6759  1.7961
 4059TIP3   OH236371   2.190   0.044   9.847 -0.9129  0.0671 -0.6608
 4059TIP3    H136372   2.194   0.129   9.890  1.6322  0.2815 -1.1224
 4059TIP3    H236373   2.212  -0.019   9.917  1.9554  0.3048 -1.2101
 4060TIP3   OH236374   5.410   3.017  12.141  0.3892  0.4186 -0.0430
 4060TIP3    H136375   5.380   3.108  12.143  2.0510  0.9950  0.3712
 4060TIP3    H236376   5.487   3.016  12.197  0.1999 -1.3473  0.2435
 4061TIP3   OH236377   2.870   0.036   9.596 -0.0546  0.1977 -0.2549
 4061TIP3    H136378   2.863   0.040   9.501  0.2147  0.2816 -0.2733
 4061TIP3    H236379   2.792  -0.011   9.624  0.2882 -0.5995 -0.5877
 4062TIP3   OH236380   3.755   1.971  11.221 -0.7860 -0.1834 -0.2504
 4062TIP3    H136381   3.782   1.880  11.223  0.6872  0.2127 -0.8280
 4062TIP3    H236382   3.759   2.000  11.313  0.5499 -0.2118 -0.2849
 4063TIP3   OH236383   0.652   4.429  12.515  0.2830  0.3705 -0.2445
 4063TIP3    H136384   0.590   4.366  12.477  0.8438 -0.5635  0.3594
 4063TIP3    H236385   0.600   4.476  12.581  0.8152 -2.3418  2.3064
 4064TIP3   OH236386   6.064   3.285  11.521 -0.0173  0.5226 -0.6029
 4064TIP3    H136387   6.022   3.279  11.607  0.9076 -1.8408 -0.2385
 4064TIP3    H236388   6.060   3.378  11.499 -2.4131  0.8688  0.8919
 4065TIP3   OH236389   2.015   5.717  10.486 -0.4017  0.6169  0.5422
 4065TIP3    H136390   2.023   5.807  10.518  0.4026  0.7143  0.1038
 4065TIP3    H236391   2.077   5.667  10.539  0.4580  0.6615 -0.3807
 4066TIP3   OH236392   0.131   1.331  10.654  0.0315 -0.8611 -0.3122
 4066TIP3    H136393   0.134   1.239  10.680  0.4835 -0.3282  1.6588
 4066TIP3    H236394   0.211   1.345  10.604 -1.0220 -1.9958 -2.4757
 4067TIP3   OH236395   1.247   4.057  12.103  0.0488  0.1006  0.2134
 4067TIP3    H136396   1.303   4.026  12.174  0.0038  2.4115  1.3403
 4067TIP3    H236397   1.304   4.111  12.049 -0.2456 -0.5594 -0.7935
 4068TIP3   OH236398   3.775   6.367  11.962  0.1464  0.4288  0.3295
 4068TIP3    H136399   3.858   6.388  11.919  0.8395 -0.4119  1.1900
 4068TIP3    H236400   3.784   6.275  11.986 -0.4656  0.6968  1.6682
 4069TIP3   OH236401   0.656   0.583  10.130 -0.1381  0.0817 -0.8050
 4069TIP3    H136402   0.625   0.633  10.054  0.0989 -0.1351 -1.0483
 4069TIP3    H236403   0.636   0.638  10.205 -0.7094  0.1387 -0.9949
 4070TIP3   OH236404   1.586   0.362   8.886 -0.1190 -0.5546 -0.5682
 4070TIP3    H136405   1.682   0.366   8.883 -0.1172  2.7202  0.3124
 4070TIP3    H236406   1.558   0.405   8.805 -0.8195 -0.0450 -0.0652
 4071TIP3   OH236407   5.195   6.468  12.006 -0.5606 -0.2033  0.5759
 4071TIP3    H136408   5.145   6.540  11.969 -0.1998 -0.9185 -1.3962
 4071TIP3    H236409   5.271   6.509  12.045  0.8543  0.4147 -2.5372
 4072TIP3   OH236410   1.266   2.867  11.141 -0.0958  0.1855  0.1297
 4072TIP3    H136411   1.230   2.928  11.205  0.7372  0.5116  0.3056
 4072TIP3    H236412   1.300   2.923  11.071 -0.2658 -0.1301 -0.2088
 4073TIP3   OH236413   1.951   6.448  11.763 -0.8868 -0.6691  0.1566
 4073TIP3    H136414   1.954   6.543  11.755 -0.0073 -0.7059  0.0059
 4073TIP3    H236415   1.938   6.432  11.857  0.0957 -0.4108  0.3480
 4074TIP3   OH236416   5.035   4.415   9.701 -0.1741  0.1335 -0.2851
 4074TIP3    H136417   4.953   4.368   9.714 -0.8546  1.5178  0.7477
 4074TIP3    H236418   5.022   4.464   9.619 -0.8115  1.1471  0.4001
 4075TIP3   OH236419   0.112   0.086  10.014  0.8387  0.1213  0.0180
 4075TIP3    H136420   0.052   0.140   9.964  1.5615  3.0202  2.0328
 4075TIP3    H236421   0.057   0.040  10.077  0.4956  1.0657  0.4223
 4076TIP3   OH236422   4.678   1.481  10.394 -0.6162  0.1104 -0.5030
 4076TIP3    H136423   4.771   1.475  10.372 -0.7411 -0.7022 -0.8281
 4076TIP3    H236424   4.677   1.524  10.480  0.2191 -2.1140  0.6753
 4077TIP3   OH236425   1.866   1.444   9.306 -0.3475 -0.1488 -0.2378
 4077TIP3    H136426   1.829   1.463   9.220 -0.8421  1.0152  0.2059
 4077TIP3    H236427   1.860   1.527   9.353 -0.4031 -0.8532  1.0383
 4078TIP3   OH236428   3.763   4.653   9.936  0.2250 -0.5613  0.4365
 4078TIP3    H136429   3.751   4.747   9.949 -2.0306 -0.7733  0.3600
 4078TIP3    H236430   3.825   4.627  10.003  3.2919  1.4239 -1.4017
 4079TIP3   OH236431   3.408   3.799   9.873  0.1899 -0.2207 -0.0259
 4079TIP3    H136432   3.470   3.792   9.946  0.4886  0.0482 -0.2554
 4079TIP3    H236433   3.388   3.892   9.868 -1.7461 -0.4996  1.3164
 4080TIP3   OH236434   2.264   2.752  10.481  0.4712 -0.0278 -0.1759
 4080TIP3    H136435   2.296   2.819  10.421 -0.5557  1.8647  1.2425
 4080TIP3    H236436   2.315   2.766  10.561 -1.6231  0.9872  1.0698
 4081TIP3   OH236437   5.815   3.560  10.403  0.3431  0.1229 -0.1611
 4081TIP3    H136438   5.752   3.582  10.472  0.1508  1.2986 -0.6665
 4081TIP3    H236439   5.857   3.480  10.432 -0.7534 -0.1853  0.6295
 4082TIP3   OH236440   2.484   6.185  10.559  0.0369  0.3643  0.1207
 4082TIP3    H136441   2.485   6.090  10.550  3.7915  0.2336  0.2585
 4082TIP3    H236442   2.482   6.218  10.469  0.0498  0.1028  0.0250
 4083TIP3   OH236443   0.590   2.574  10.175  0.7433  0.0264 -0.0912
 4083TIP3    H136444   0.562   2.622  10.253 -0.9782 -0.7392 -0.2056
 4083TIP3    H236445   0.669   2.620  10.147  1.4990  0.2423  2.1626
 4084TIP3   OH236446   4.627   2.508  12.332 -0.1938  0.1205  0.0683
 4084TIP3    H136447   4.605   2.427  12.378  0.0888 -1.0741 -1.8281
 4084TIP3    H236448   4.715   2.530  12.361 -0.8666  0.7030  1.8306
 4085TIP3   OH236449   6.019   0.116  10.203  0.1815  0.4160  0.3634
 4085TIP3    H136450   6.025   0.021  10.197 -1.1206  0.3599 -0.4350
 4085TIP3    H236451   6.080   0.139  10.273  0.0330 -1.0673  1.0226
 4086TIP3   OH236452   5.357   1.195  11.511 -0.0816  0.7272 -0.7972
 4086TIP3    H136453   5.328   1.190  11.420  1.7377 -0.3488 -1.3775
 4086TIP3    H236454   5.327   1.113  11.550  1.0647  0.1434 -1.0861
 4087TIP3   OH236455   2.874   0.882  11.412 -0.0657 -0.2750 -1.0293
 4087TIP3    H136456   2.817   0.827  11.359 -0.2413  0.3288 -1.4897
 4087TIP3    H236457   2.862   0.851  11.501 -1.5532  0.2125 -1.0350
 4088TIP3   OH236458   1.112   3.944  11.348 -0.5786 -0.3722 -0.2975
 4088TIP3    H136459   1.177   4.008  11.379 -0.4812 -0.2925 -0.6585
 4088TIP3    H236460   1.149   3.911  11.266  0.8966 -3.1669  1.3502
 4089TIP3   OH236461   3.110   0.490  12.496  0.2059 -0.5704  0.5807
 4089TIP3    H136462   3.197   0.526  12.480 -0.2694 -0.2428 -1.4707
 4089TIP3    H236463   3.114   0.401  12.463 -0.8630  0.1934 -1.8242
 4090TIP3   OH236464   2.176   4.022   9.711  0.1876  0.0991  0.2973
 4090TIP3    H136465   2.266   4.010   9.681  0.3260 -0.1702  0.8097
 4090TIP3    H236466   2.122   3.987   9.640  0.5196 -0.9875  0.5563
 4091TIP3   OH236467   0.413   5.891  12.245 -0.1284  0.4300 -0.5569
 4091TIP3    H136468   0.349   5.957  12.272  0.0896 -0.2740  2.0188
 4091TIP3    H236469   0.492   5.941  12.223  0.4359  1.1183  2.5200
 4092TIP3   OH236470   6.551   0.346   9.279  0.1019  0.0457 -0.2017
 4092TIP3    H136471   6.622   0.409   9.294  1.0588 -0.8925 -0.6901
 4092TIP3    H236472   6.475   0.401   9.263  0.6574  1.0821  0.5230
 4093TIP3   OH236473   0.091   1.063  12.258  0.8793 -0.0465 -0.1363
 4093TIP3    H136474   0.034   1.067  12.181 -0.7499  0.2864  1.0284
 4093TIP3    H236475   0.080   1.149  12.299  2.8875  0.3287 -0.2835
 4094TIP3   OH236476   3.328   2.423  12.377 -0.1166  0.3627  0.2661
 4094TIP3    H136477   3.276   2.415  12.297 -0.8608  1.2907  0.6401
 4094TIP3    H236478   3.295   2.352  12.433  0.0805  0.0054 -0.0607
 4095TIP3   OH236479   0.270   6.412  11.878 -0.4337 -0.4426 -0.5771
 4095TIP3    H136480   0.311   6.326  11.888 -1.5618 -0.8255  1.1904
 4095TIP3    H236481   0.226   6.408  11.793  2.4425 -0.2743 -2.1857
 4096TIP3   OH236482   2.371   4.487  10.408 -0.0775 -0.0743 -0.6532
 4096TIP3    H136483   2.322   4.569  10.421 -1.2163 -0.9076  0.5776
 4096TIP3    H236484   2.461   4.509  10.433 -0.6548  0.4586  1.1528
 4097TIP3   OH236485   1.891   1.572  10.861 -0.1092  0.1732  0.1606
 4097TIP3    H136486   1.799   1.579  10.885 -0.9721  0.0900 -2.8088
 4097TIP3    H236487   1.923   1.663  10.861  0.1046  0.1425  1.9660
 4098TIP3   OH236488   6.330   1.176  11.537  0.2359 -0.2170 -0.6442
 4098TIP3    H136489   6.303   1.265  11.516  0.0130 -0.5654 -1.9482
 4098TIP3    H236490   6.346   1.177  11.631  0.1708  1.1740 -0.6272
 4099TIP3   OH236491   1.531   6.441  12.486  0.5510  0.4192 -0.2207
 4099TIP3    H136492   1.527   6.533  12.458  0.9212 -0.1966 -2.4836
 4099TIP3    H236493   1.613   6.408  12.450 -0.2682 -1.1862 -0.7178
 4100TIP3   OH236494   1.262   4.845  11.973  0.1507 -0.7567  0.1910
 4100TIP3    H136495   1.307   4.824  11.891  0.3262  0.1936  0.0345
 4100TIP3    H236496   1.197   4.776  11.983  1.5172 -2.0675  0.3378
 4101TIP3   OH236497   5.442   0.075  11.345 -0.6999 -0.9527  0.0466
 4101TIP3    H136498   5.456   0.150  11.287 -0.0019 -1.6739 -0.7426
 4101TIP3    H236499   5.428   0.001  11.286  0.0293 -1.7040  0.7829
 4102TIP3   OH236500   5.415   1.650  10.014 -0.3704 -0.1199 -0.5042
 4102TIP3    H136501   5.481   1.582   9.996 -0.5639 -0.8245  1.2904
 4102TIP3    H236502   5.422   1.667  10.108  0.0308  2.7885 -0.9656
 4103TIP3   OH236503   6.168   4.444  10.695  0.2786 -0.4484 -0.3250
 4103TIP3    H136504   6.206   4.364  10.658  0.3304 -1.2690  1.3794
 4103TIP3    H236505   6.226   4.514  10.667  0.8661 -1.1661 -0.9449
 4104TIP3   OH236506   2.601   6.105   9.133  1.0753 -0.3941  0.4756
 4104TIP3    H136507   2.522   6.085   9.183 -0.1228  0.5820 -0.9431
 4104TIP3    H236508   2.593   6.198   9.111  2.3857 -0.3922 -0.1091
 4105TIP3   OH236509   3.690   5.122  11.402  0.3167 -0.1981  0.1196
 4105TIP3    H136510   3.683   5.028  11.387  0.7611 -0.1962 -0.1043
 4105TIP3    H236511   3.599   5.152  11.405  0.1825 -0.5120 -0.5962
 4106TIP3   OH236512   0.718   5.284  12.393 -0.5432  0.1336 -0.3715
 4106TIP3    H136513   0.727   5.373  12.428  1.9741 -0.3636  0.4240
 4106TIP3    H236514   0.796   5.271  12.340 -0.3211 -1.9762  0.3804
 4107TIP3   OH236515   4.045   5.872  10.964  0.0774  0.4155  0.2473
 4107TIP3    H136516   3.980   5.938  10.937  1.3705  1.6372 -0.0462
 4107TIP3    H236517   4.120   5.924  10.992  1.0923 -0.9618  0.1485
 4108TIP3   OH236518   6.131   2.508  12.533 -0.3422 -0.2705 -0.1672
 4108TIP3    H136519   6.106   2.579  12.474  0.4140  0.2735  0.1511
 4108TIP3    H236520   6.055   2.497  12.591 -1.2933 -1.1499 -1.5163
 4109TIP3   OH236521   5.192   0.934  11.139 -0.2029 -0.1806 -0.3592
 4109TIP3    H136522   5.127   0.869  11.166  0.7359 -0.2931  1.8200
 4109TIP3    H236523   5.276   0.889  11.148  0.4727  1.2619  1.2073
 4110TIP3   OH236524   5.759   2.982  11.634  0.2639 -0.3306 -0.1249
 4110TIP3    H136525   5.725   3.071  11.641  0.8717 -0.0076 -1.0724
 4110TIP3    H236526   5.720   2.948  11.554  0.8994 -0.5147 -0.3648
 4111TIP3   OH236527   1.979   1.933  11.436 -0.2028  0.3121 -0.3627
 4111TIP3    H136528   1.926   1.943  11.357  0.4134 -0.3923 -0.8866
 4111TIP3    H236529   1.957   2.010  11.489 -1.6034  0.1215 -0.6268
 4112TIP3   OH236530   2.818   4.097   8.735  0.2761  0.3271 -0.1181
 4112TIP3    H136531   2.773   4.119   8.653 -0.4200  1.1972  0.4712
 4112TIP3    H236532   2.903   4.064   8.707  0.3287  1.2771 -1.1862
 4113TIP3   OH236533   4.114   4.349  12.396  0.5187  0.3263  0.2197
 4113TIP3    H136534   4.172   4.279  12.364  0.0558 -0.0156  0.1106
 4113TIP3    H236535   4.132   4.423  12.338  1.7932  0.6563  1.0102
 4114TIP3   OH236536   3.099   2.511  10.473  0.0393 -0.1782  0.1877
 4114TIP3    H136537   3.168   2.506  10.407 -0.7584  2.6179 -1.0201
 4114TIP3    H236538   3.017   2.503  10.423 -0.6037  2.8791  0.5696
 4115TIP3   OH236539   1.735   2.953  10.026  0.8799  0.1984 -0.4183
 4115TIP3    H136540   1.744   2.961   9.931  1.4736 -0.2095 -0.3967
 4115TIP3    H236541   1.760   3.040  10.059 -0.8666  0.8640 -0.7154
 4116TIP3   OH236542   1.366   0.957   9.535 -0.2460 -0.3621 -0.0723
 4116TIP3    H136543   1.289   0.982   9.484 -1.0604 -0.3589  1.1074
 4116TIP3    H236544   1.353   0.863   9.551  0.6361 -0.6379 -0.9037
 4117TIP3   OH236545   5.076   6.103  11.702 -0.1114 -0.1380 -0.1438
 4117TIP3    H136546   5.065   6.153  11.621 -1.4655  0.0612  0.1368
 4117TIP3    H236547   5.171   6.090  11.710  0.2488  1.9497 -0.4914
 4118TIP3   OH236548   5.416   2.786  11.992 -0.4038  0.4444  0.1732
 4118TIP3    H136549   5.414   2.874  12.030  1.1267 -0.4186  2.4802
 4118TIP3    H236550   5.504   2.754  12.012 -1.2242 -1.9513  0.2183
 4119TIP3   OH236551   5.796   5.236  12.210 -0.1065 -0.1922 -0.4778
 4119TIP3    H136552   5.794   5.286  12.128 -1.9047 -1.0405 -1.0103
 4119TIP3    H236553   5.704   5.215  12.227  0.4737 -2.3121  0.3123
 4120TIP3   OH236554   6.004   5.995  10.485  0.3820  0.6287  0.1112
 4120TIP3    H136555   5.999   5.940  10.406  1.3585 -0.0274  0.4844
 4120TIP3    H236556   6.082   6.049  10.472  0.4552  0.6323  0.5510
 4121TIP3   OH236557   4.403   4.812  10.571 -0.0245 -0.0972  0.5321
 4121TIP3    H136558   4.468   4.882  10.563 -0.3360  0.1565  0.1823
 4121TIP3    H236559   4.450   4.733  10.543 -0.2151  0.2892 -0.9904
 4122TIP3   OH236560   0.925   3.701  11.007  0.1221 -0.6416 -0.3442
 4122TIP3    H136561   0.965   3.709  10.921 -0.3035 -0.3002 -0.5098
 4122TIP3    H236562   0.831   3.693  10.990 -0.4475  3.1881  0.2085
 4123TIP3   OH236563   1.437   0.024   9.523  0.4767 -0.3472 -0.2945
 4123TIP3    H136564   1.481  -0.015   9.448  1.4285 -0.3772  0.2632
 4123TIP3    H236565   1.508   0.054   9.579 -0.1876 -1.1432  1.0262
 4124TIP3   OH236566   4.755   5.703  11.969  0.1016 -0.1905  0.0028
 4124TIP3    H136567   4.721   5.633  12.024 -1.1433  0.5463  0.1889
 4124TIP3    H236568   4.702   5.779  11.990  1.3295  0.7898 -0.3144
 4125TIP3   OH236569   3.326   0.575  11.839 -0.3110 -0.3576  0.0209
 4125TIP3    H136570   3.301   0.483  11.830  0.6437 -0.7428  1.1389
 4125TIP3    H236571   3.386   0.591  11.766  0.3844 -0.9320  0.4630
 4126TIP3   OH236572   6.350   5.036  10.928  0.3251 -0.4547  0.1280
 4126TIP3    H136573   6.388   5.084  10.854  1.0146 -1.4582 -0.1934
 4126TIP3    H236574   6.288   4.975  10.888 -0.4976  0.1079  0.5266
 4127TIP3   OH236575   6.057   0.794  11.924 -0.5820 -0.2482 -0.3023
 4127TIP3    H136576   5.962   0.786  11.927 -0.5347 -0.5481  1.8449
 4127TIP3    H236577   6.078   0.853  11.997  1.0938 -3.0502  1.6593
 4128TIP3   OH236578   1.278   2.776  10.156  0.1713 -0.4337 -0.3903
 4128TIP3    H136579   1.345   2.807  10.095  1.2306  0.1182  0.9908
 4128TIP3    H236580   1.267   2.683  10.136  0.6078 -0.2932 -1.3072
 4129TIP3   OH236581   2.124   4.215  12.073  0.3088  0.1871  0.2545
 4129TIP3    H136582   2.218   4.222  12.089  1.1510 -1.8189 -3.0316
 4129TIP3    H236583   2.114   4.237  11.981 -2.4424 -0.0338  0.4247
 4130TIP3   OH236584   2.649   0.578  11.558  0.1685  0.0884  0.2323
 4130TIP3    H136585   2.634   0.549  11.648  2.7416  0.2689  0.7838
 4130TIP3    H236586   2.744   0.588  11.551  0.0741 -0.1701 -2.5917
 4131TIP3   OH236587   5.519   3.073  10.866  0.4158 -0.3520 -0.6825
 4131TIP3    H136588   5.536   3.099  10.957  1.9718  1.1449 -1.3336
 4131TIP3    H236589   5.606   3.060  10.828 -0.1968 -0.6815 -2.0324
 4132TIP3   OH236590   3.876   0.606   9.929  0.1965 -0.1540 -0.3427
 4132TIP3    H136591   3.851   0.663  10.002  0.7453 -0.7035  0.2775
 4132TIP3    H236592   3.943   0.656   9.881  0.1403  0.0264 -0.2348
 4133TIP3   OH236593   3.198   2.121   8.507  0.0075 -0.0747  0.0739
 4133TIP3    H136594   3.286   2.093   8.483  0.1465  1.6668 -1.6603
 4133TIP3    H236595   3.169   2.055   8.570  2.8862 -0.1951  1.4581
 4134TIP3   OH236596   6.088   6.412  10.676 -0.4799 -0.4641  0.4123
 4134TIP3    H136597   6.150   6.348  10.710  1.2318  0.6902 -0.3343
 4134TIP3    H236598   6.034   6.363  10.614 -0.5048 -1.5756  1.2926
 4135TIP3   OH236599   3.064   1.606  11.226 -0.6889 -0.2126 -0.5336
 4135TIP3    H136600   3.016   1.681  11.259  0.1431  1.0673 -2.1232
 4135TIP3    H236601   3.029   1.532  11.276 -2.4945  1.0076  0.1184
 4136TIP3   OH236602   5.184   3.961  11.655  0.0324  0.1070  0.4813
 4136TIP3    H136603   5.241   3.890  11.682  0.1349 -0.7865 -1.8561
 4136TIP3    H236604   5.159   3.939  11.565 -1.3682  2.1316  0.3044
 4137TIP3   OH236605   0.062   3.611  11.511  0.5238  0.6601  0.2800
 4137TIP3    H136606   0.046   3.649  11.425 -2.1442 -3.3025 -1.3019
 4137TIP3    H236607  -0.009   3.645  11.566 -0.2535  0.0749 -0.3411
 4138TIP3   OH236608   6.111   5.297  10.646 -0.0843 -0.3929 -0.0521
 4138TIP3    H136609   6.106   5.211  10.605  0.1782  0.2213 -1.4455
 4138TIP3    H236610   6.037   5.300  10.706 -1.9766 -0.4969 -2.2233
 4139TIP3   OH236611   2.363   6.311   9.901  1.1416  0.2146  0.2421
 4139TIP3    H136612   2.443   6.346   9.862  0.3600  0.0196 -1.6337
 4139TIP3    H236613   2.378   6.217   9.905  0.8232  0.1162 -0.6233
 4140TIP3   OH236614   5.027   0.219  11.661 -0.0951  0.9233  0.1178
 4140TIP3    H136615   4.934   0.204  11.645 -0.0316 -0.1263  0.6294
 4140TIP3    H236616   5.031   0.304  11.705 -0.4643  2.7598 -3.1334
 4141TIP3   OH236617   3.906   4.305   9.527  0.6579  0.4059  0.0088
 4141TIP3    H136618   3.899   4.337   9.437  0.4387  0.5848  0.0896
 4141TIP3    H236619   3.911   4.385   9.580 -0.4055  0.3125  0.2558
 4142TIP3   OH236620   4.590   1.442  10.709 -0.1726  0.4338  0.2478
 4142TIP3    H136621   4.624   1.529  10.732 -1.3958  0.8132  0.6848
 4142TIP3    H236622   4.511   1.459  10.658  0.3310 -0.4372 -0.8776
 4143TIP3   OH236623   4.621   0.584  12.525 -0.2031  0.5087  0.2337
 4143TIP3    H136624   4.638   0.519  12.456 -0.2411  1.6950 -0.9490
 4143TIP3    H236625   4.706   0.596  12.567  0.1572  0.7690 -0.5361
 4144TIP3   OH236626   4.434   6.151   9.705 -0.0634  0.2081  0.2730
 4144TIP3    H136627   4.519   6.193   9.693 -0.1495 -0.1224 -2.0667
 4144TIP3    H236628   4.425   6.094   9.629 -2.3659  0.2214  0.4712
 4145TIP3   OH236629   4.044   1.811  11.211 -0.2440 -0.1326 -0.0427
 4145TIP3    H136630   4.116   1.850  11.260 -0.5012  0.6586 -0.2788
 4145TIP3    H236631   4.029   1.871  11.138 -0.9261 -0.4506 -0.1726
 4146TIP3   OH236632   6.101   4.050  10.428  0.1949 -0.4995 -0.2882
 4146TIP3    H136633   6.186   4.084  10.453  0.9366 -1.1502 -1.8014
 4146TIP3    H236634   6.039   4.091  10.489  1.3498  1.4670 -0.3885
 4147TIP3   OH236635   3.190   2.446   8.994  0.3845  0.2164  0.7632
 4147TIP3    H136636   3.281   2.417   8.988  0.2323 -0.6533  2.2181
 4147TIP3    H236637   3.142   2.386   8.936  0.9310  1.8781 -1.5544
 4148TIP3   OH236638   2.292   1.301   8.859 -0.2579 -0.3943  0.2770
 4148TIP3    H136639   2.235   1.302   8.935 -0.1820  0.2561  0.3317
 4148TIP3    H236640   2.280   1.214   8.821 -0.8669 -0.4555  0.6003
 4149TIP3   OH236641   5.983   0.762  10.693  0.2831  0.4474 -0.0254
 4149TIP3    H136642   6.000   0.801  10.607  2.6397  0.8760  0.5895
 4149TIP3    H236643   6.034   0.681  10.694 -2.5244 -1.4836 -0.2920
 4150TIP3   OH236644   4.669   0.213  10.640  0.3272  0.3755 -0.3353
 4150TIP3    H136645   4.691   0.305  10.622  0.4784  0.0992 -1.6768
 4150TIP3    H236646   4.578   0.216  10.669  0.6859  1.0575  0.8007
 4151TIP3   OH236647   3.899   0.868  12.485  0.0912  0.4379 -0.2517
 4151TIP3    H136648   3.896   0.834  12.574 -0.5478  0.3735 -0.2918
 4151TIP3    H236649   3.992   0.874  12.464  0.2301 -0.0404  0.2270
 4152TIP3   OH236650   6.384   2.807  11.865  0.5255  0.3065 -0.4992
 4152TIP3    H136651   6.435   2.869  11.919 -0.5406  0.6084  0.2001
 4152TIP3    H236652   6.403   2.722  11.903  1.1851  0.3194 -0.7953
 4153TIP3   OH236653   4.629   6.118   9.388 -0.2871 -0.0355  0.4908
 4153TIP3    H136654   4.653   6.149   9.475  1.2001  0.3940 -0.0243
 4153TIP3    H236655   4.598   6.196   9.342 -2.9530 -0.6016  1.1690
 4154TIP3   OH236656   4.057   0.142  11.578  0.0699 -0.2527  0.1947
 4154TIP3    H136657   4.087   0.166  11.490 -0.6539 -0.5637 -0.1392
 4154TIP3    H236658   3.986   0.203  11.597  1.8393  1.5387  1.6282
 4155TIP3   OH236659   6.512   1.280  10.061  0.2917 -0.0531  0.0270
 4155TIP3    H136660   6.499   1.373  10.045 -0.4142 -0.0741  0.4440
 4155TIP3    H236661   6.482   1.266  10.150 -4.0273 -1.4657 -1.3826
 4156TIP3   OH236662   5.419   3.307  12.215 -0.0580  0.4105  0.1377
 4156TIP3    H136663   5.456   3.340  12.133 -0.2930  0.9806  0.2582
 4156TIP3    H236664   5.460   3.360  12.283  0.2920 -0.1988  0.4138
 4157TIP3   OH236665   1.137   6.580  12.307 -0.3627  0.1011 -0.2146
 4157TIP3    H136666   1.119   6.486  12.310 -0.4155  0.1389  1.2663
 4157TIP3    H236667   1.223   6.586  12.266 -0.9509 -0.4843 -1.5998
 4158TIP3   OH236668   0.355   0.246  12.301 -0.4247  0.8566 -0.4700
 4158TIP3    H136669   0.357   0.300  12.222  1.5615 -0.6911 -1.5726
 4158TIP3    H236670   0.283   0.185  12.287 -0.1581  0.6701 -1.0297
 4159TIP3   OH236671   3.215   1.710  10.096 -0.4441 -0.1969  0.2723
 4159TIP3    H136672   3.153   1.727  10.024 -0.0663  0.4043  0.0841
 4159TIP3    H236673   3.238   1.617  10.087 -0.5006 -0.1579 -0.3031
 4160TIP3   OH236674   0.623   1.390  11.311  0.0275  0.6801  0.7320
 4160TIP3    H136675   0.562   1.447  11.264 -1.6155 -1.2190  0.4239
 4160TIP3    H236676   0.667   1.339  11.243 -0.0512  0.1281  1.0834
 4161TIP3   OH236677   4.865   1.350  10.989  0.2098  0.1494  0.0138
 4161TIP3    H136678   4.793   1.336  11.050  0.1139 -0.2036 -0.1780
 4161TIP3    H236679   4.869   1.270  10.938 -1.1298  1.2320 -1.9328
 4162TIP3   OH236680   2.928   1.768  11.824  0.3304 -0.2723  0.0314
 4162TIP3    H136681   2.866   1.832  11.790 -0.8130 -0.2566  1.9706
 4162TIP3    H236682   2.883   1.730  11.900  2.0076 -1.5335  0.4424
 4163TIP3   OH236683   3.182   2.150   9.217 -0.3426  0.2006 -0.0097
 4163TIP3    H136684   3.123   2.134   9.291 -0.8459 -2.0119 -0.7866
 4163TIP3    H236685   3.124   2.166   9.143  0.1497  1.8284 -0.0865
 4164TIP3   OH236686   4.275   0.502  11.911  0.0162 -0.9305  0.3865
 4164TIP3    H136687   4.220   0.425  11.898 -0.9919 -0.3030  0.8060
 4164TIP3    H236688   4.365   0.468  11.911 -0.4074 -2.0946  0.5399
 4165TIP3   OH236689   0.911   5.853  10.426  0.1634  0.1694  0.2687
 4165TIP3    H136690   0.987   5.904  10.455  0.9405 -1.5623  1.4628
 4165TIP3    H236691   0.850   5.918  10.392  1.3889  1.8152  1.0754
 4166TIP3   OH236692   4.535   4.834  10.053 -0.0833  0.2034  0.1585
 4166TIP3    H136693   4.554   4.827  10.147  1.5102  1.1371 -0.0442
 4166TIP3    H236694   4.517   4.927  10.040 -1.1551 -0.0601 -0.3443
 4167TIP3   OH236695   1.303   6.432  11.180 -0.0992  0.2581  0.1133
 4167TIP3    H136696   1.212   6.402  11.178 -0.0703  0.1753 -0.0539
 4167TIP3    H236697   1.340   6.393  11.259  0.3659 -1.4317 -0.8854
 4168TIP3   OH236698   0.812   3.399  10.575 -0.3304 -0.2192  0.1093
 4168TIP3    H136699   0.885   3.450  10.540 -0.7932 -0.7644 -1.8208
 4168TIP3    H236700   0.817   3.410  10.669  2.2633 -0.2735  0.0509
 4169TIP3   OH236701   0.698   1.751  10.754  0.1276  0.1516 -0.2707
 4169TIP3    H136702   0.607   1.738  10.778 -0.2997  0.6552 -1.5603
 4169TIP3    H236703   0.747   1.698  10.817 -1.0797 -0.6609  0.0197
 4170TIP3   OH236704   2.758   0.566   9.404 -0.3839  0.3711 -0.2972
 4170TIP3    H136705   2.697   0.635   9.378  0.6864  1.6123  0.3251
 4170TIP3    H236706   2.733   0.545   9.494 -0.0131  0.7624 -0.0991
 4171TIP3   OH236707   4.360   0.815   9.835  0.2543 -0.5507 -0.6338
 4171TIP3    H136708   4.415   0.812   9.913 -1.1426  0.7191  0.4588
 4171TIP3    H236709   4.421   0.813   9.762  1.6175 -1.2802  0.4898
 4172TIP3   OH236710   1.077   1.495  11.619 -0.2125  0.3309 -0.1174
 4172TIP3    H136711   1.092   1.552  11.544 -1.3724 -0.4921 -1.0102
 4172TIP3    H236712   1.046   1.554  11.688  2.0610  1.2887  0.1718
 4173TIP3   OH236713   3.550   3.516  11.501 -0.2720 -0.5841  0.1036
 4173TIP3    H136714   3.624   3.482  11.552 -0.3731 -0.4938  0.3113
 4173TIP3    H236715   3.590   3.576  11.439 -0.4022  1.5784  1.9795
 4174TIP3   OH236716   5.672   2.573  12.365 -0.2102 -0.3328  0.2866
 4174TIP3    H136717   5.714   2.504  12.416 -0.0110 -1.5665 -1.4249
 4174TIP3    H236718   5.599   2.528  12.321  0.2766  0.3950 -1.3260
 4175TIP3   OH236719   0.812   2.504   9.174  0.0635 -0.4716  0.0823
 4175TIP3    H136720   0.878   2.444   9.139 -1.8740 -3.3414  1.0345
 4175TIP3    H236721   0.833   2.511   9.267 -0.1196 -0.1603  0.1027
 4176TIP3   OH236722   0.993   5.199  11.528 -0.0311  0.4933 -0.2937
 4176TIP3    H136723   1.009   5.282  11.483 -0.2821  1.0045  0.5449
 4176TIP3    H236724   0.897   5.195  11.536  0.0415  1.0602  1.3437
 4177TIP3   OH236725   6.471   6.357   9.350 -0.1134  0.0481 -0.0737
 4177TIP3    H136726   6.508   6.382   9.265 -0.8472 -0.0058 -0.4135
 4177TIP3    H236727   6.467   6.261   9.347 -1.7067  0.1036 -0.6696
 4178TIP3   OH236728   1.533   0.674  11.984  0.3718 -0.3317 -0.5037
 4178TIP3    H136729   1.572   0.704  12.066  0.3705  1.3032 -1.0594
 4178TIP3    H236730   1.454   0.627  12.010 -1.0387  2.3470  0.4134
 4179TIP3   OH236731   0.251   5.675  11.520 -0.5827 -0.1363 -0.1453
 4179TIP3    H136732   0.179   5.613  11.508  0.8849 -2.0089  0.2076
 4179TIP3    H236733   0.315   5.649  11.454 -0.5707  2.1064 -1.0905
 4180TIP3   OH236734   4.940   1.281  11.286  0.0181  0.0130  0.3712
 4180TIP3    H136735   4.902   1.368  11.288 -0.2820 -0.0323 -1.3203
 4180TIP3    H236736   4.866   1.221  11.299 -0.1912 -0.0248 -0.8759
 4181TIP3   OH236737   3.558   2.471  10.633  0.4716 -0.1804 -0.0084
 4181TIP3    H136738   3.576   2.475  10.727  1.2778  1.4650 -0.2019
 4181TIP3    H236739   3.544   2.378  10.615  2.2051 -0.7677  1.4081
 4182TIP3   OH236740   5.014   4.143  11.922  0.8582  0.2973  0.2086
 4182TIP3    H136741   5.050   4.096  11.998  1.6683  1.1989  0.4046
 4182TIP3    H236742   5.040   4.091  11.847  1.8195  0.4590  0.4167
 4183TIP3   OH236743   1.010   6.433   8.721 -0.1301  0.0446 -0.2535
 4183TIP3    H136744   0.918   6.449   8.741  0.1694  0.1782  1.1281
 4183TIP3    H236745   1.052   6.518   8.734  0.1279  0.1099 -1.3940
 4184TIP3   OH236746   1.304   2.304  12.167 -0.6518 -0.1096 -0.6849
 4184TIP3    H136747   1.301   2.244  12.092 -0.7764  0.2980 -1.0060
 4184TIP3    H236748   1.214   2.336  12.176 -0.4611  0.4786 -0.8747
 4185TIP3   OH236749   1.130   6.163  12.141  0.4350  0.9585 -0.1572
 4185TIP3    H136750   1.051   6.133  12.096  1.1806  0.2101 -1.0219
 4185TIP3    H236751   1.183   6.083  12.150 -0.6868  0.4698  4.3356
 4186TIP3   OH236752   2.806   3.253  10.817 -0.3478 -0.1888  0.0139
 4186TIP3    H136753   2.715   3.237  10.844 -0.9605  0.9525 -1.2490
 4186TIP3    H236754   2.814   3.349  10.816  0.7171 -0.2702 -0.3894
 4187TIP3   OH236755   3.807   5.281  11.189 -0.4785 -0.1392 -0.3259
 4187TIP3    H136756   3.733   5.342  11.183 -1.2787 -1.1834 -1.5051
 4187TIP3    H236757   3.792   5.233  11.271  0.2990  1.3583  0.7581
 4188TIP3   OH236758   4.235   3.858  11.721  0.0645  0.1965  0.3647
 4188TIP3    H136759   4.189   3.942  11.724 -1.0717 -0.3738 -0.2216
 4188TIP3    H236760   4.289   3.863  11.642 -0.1536  0.3032  0.2215
 4189TIP3   OH236761   2.033   0.471  11.000  0.2682 -0.0679  0.7878
 4189TIP3    H136762   2.072   0.552  10.965  1.4449 -1.0991 -0.3952
 4189TIP3    H236763   2.052   0.474  11.094  1.8040  0.2352  0.4885
 4190TIP3   OH236764   3.543   2.175  11.216  0.4187 -0.0346 -0.8353
 4190TIP3    H136765   3.453   2.183  11.183  0.3208 -1.4638 -0.9643
 4190TIP3    H236766   3.570   2.086  11.193  1.7794  0.2797 -0.5597
 4191TIP3   OH236767   4.040   2.051  10.344  0.2457  0.8733  0.4476
 4191TIP3    H136768   4.071   2.130  10.299  0.3356  0.9347  0.6176
 4191TIP3    H236769   3.991   2.004  10.277  0.0100  1.1784  0.4025
 4192TIP3   OH236770   4.742   2.590   9.366 -0.0688  0.0895 -0.6075
 4192TIP3    H136771   4.748   2.524   9.297  0.0546 -0.8336  0.2638
 4192TIP3    H236772   4.796   2.663   9.334  0.8536 -0.7462 -1.0164
 4193TIP3   OH236773   3.413   2.579  10.919  0.2547 -0.2305 -0.2124
 4193TIP3    H136774   3.492   2.531  10.893  1.3841  1.4479 -0.0636
 4193TIP3    H236775   3.362   2.586  10.839  0.9327 -0.1364 -0.6452
 4194TIP3   OH236776   4.624   3.834   9.545 -0.0808 -0.4472 -0.1980
 4194TIP3    H136777   4.711   3.869   9.562 -0.0882  0.1226 -1.2860
 4194TIP3    H236778   4.584   3.896   9.484 -0.9637 -1.1101 -0.3176
 4195TIP3   OH236779   0.889   1.434  11.879  0.4036 -0.2074 -0.6247
 4195TIP3    H136780   0.910   1.513  11.829 -0.6161  0.4508 -0.0518
 4195TIP3    H236781   0.798   1.415  11.855  0.0532 -0.1404  0.6084
 4196TIP3   OH236782   3.007   1.965  12.048  0.5106 -0.4758 -0.1203
 4196TIP3    H136783   2.921   1.945  12.010  0.4220  1.1609 -0.8684
 4196TIP3    H236784   3.006   1.922  12.134 -0.3642 -1.9282 -0.8222
 4197TIP3   OH236785   2.890   5.933  11.170 -0.0143 -0.2088 -0.2226
 4197TIP3    H136786   2.802   5.945  11.133 -0.1215 -1.2041 -0.3227
 4197TIP3    H236787   2.948   5.980  11.110 -0.3199 -0.8064 -1.0100
 4198TIP3   OH236788   3.269   5.605   9.666  0.0414  0.1079  0.0492
 4198TIP3    H136789   3.226   5.558   9.736 -0.4673  1.6597  0.8211
 4198TIP3    H236790   3.344   5.648   9.708  1.5581 -1.3859 -0.9873
 4199TIP3   OH236791   2.173   1.863  11.791  0.2463  0.3675  0.5669
 4199TIP3    H136792   2.088   1.827  11.766  0.1077  1.7065 -1.0072
 4199TIP3    H236793   2.216   1.884  11.709  2.0827 -0.1610  1.3393
 4200TIP3   OH236794   0.721   3.060  12.107 -0.5591 -0.0134  0.7830
 4200TIP3    H136795   0.762   3.034  12.190 -0.2059 -1.5563  0.1574
 4200TIP3    H236796   0.773   3.134  12.076  0.6674 -0.8106  0.8885
 4201TIP3   OH236797   0.144   4.131   9.483 -0.3485 -0.1369 -0.1471
 4201TIP3    H136798   0.142   4.119   9.388  1.7406 -1.4912 -0.0973
 4201TIP3    H236799   0.230   4.097   9.509 -0.2607  1.5833  2.0620
 4202TIP3   OH236800   0.572   3.717  10.529  0.0866 -0.5113  0.2149
 4202TIP3    H136801   0.635   3.721  10.601 -1.1165 -0.4705  1.3104
 4202TIP3    H236802   0.626   3.720  10.450  1.4270 -0.0028  1.0991
 4203TIP3   OH236803   1.440   6.032  11.255 -0.4372 -0.3896 -0.5418
 4203TIP3    H136804   1.359   6.055  11.299  0.1950 -1.4041  1.2765
 4203TIP3    H236805   1.444   5.936  11.261  0.8057 -0.3684 -0.7019
 4204TIP3   OH236806   4.652   5.953  12.118 -0.0222  0.4263 -0.2808
 4204TIP3    H136807   4.624   5.887  12.182 -0.5108 -0.1488 -1.0640
 4204TIP3    H236808   4.641   6.036  12.163 -0.5737  0.0455  0.3118
 4205TIP3   OH236809   6.499   3.132   9.673 -0.8292  0.4852 -0.1293
 4205TIP3    H136810   6.444   3.067   9.716  1.2737 -0.3456  1.4343
 4205TIP3    H236811   6.556   3.165   9.742 -0.8564  3.0031 -1.1898
 4206TIP3   OH236812   2.566   2.016   9.549 -0.3108  0.6997  0.3067
 4206TIP3    H136813   2.599   2.050   9.466  0.7620 -1.2193 -0.0999
 4206TIP3    H236814   2.519   1.936   9.526  2.0215 -1.2038  1.6834
 4207TIP3   OH236815   1.698   4.880  11.524 -0.1633  0.5692  0.0024
 4207TIP3    H136816   1.652   4.928  11.455  4.3964  1.2110 -3.0331
 4207TIP3    H236817   1.710   4.792  11.489 -0.9725 -0.2571  1.7098
 4208TIP3   OH236818   0.382   5.491  11.077 -0.0829  0.4017 -0.2839
 4208TIP3    H136819   0.286   5.495  11.077 -0.2717 -2.0401  2.1976
 4208TIP3    H236820   0.409   5.559  11.138 -0.0997  1.7275 -1.6788
 4209TIP3   OH236821   1.818   6.081  11.819 -0.1074 -0.3710  0.3649
 4209TIP3    H136822   1.775   6.153  11.863 -0.8563 -1.3348  1.2599
 4209TIP3    H236823   1.746   6.025  11.788  0.4602 -1.2743  0.6253
 4210TIP3   OH236824   4.267   2.968  10.600 -0.3854  0.1548 -0.2677
 4210TIP3    H136825   4.204   3.029  10.562 -0.5231  0.4343  0.3885
 4210TIP3    H236826   4.351   3.013  10.593 -0.3171 -0.0537 -0.7917
 4211TIP3   OH236827   2.811   3.932  12.158  0.9495 -0.4108 -0.1090
 4211TIP3    H136828   2.756   4.002  12.191 -0.2399 -1.2109 -0.3337
 4211TIP3    H236829   2.848   3.966  12.076 -0.2757 -0.3178 -0.6521
 4212TIP3   OH236830   2.909   0.706  11.968  0.0048  0.2465  0.4084
 4212TIP3    H136831   2.982   0.706  11.905  0.7342  0.9643  1.2310
 4212TIP3    H236832   2.890   0.799  11.983  0.0670  0.0915  1.4972
 4213TIP3   OH236833   1.199   1.260  11.567 -0.0391 -0.2889  0.0954
 4213TIP3    H136834   1.151   1.199  11.623 -0.8905 -0.2816 -0.6093
 4213TIP3    H236835   1.171   1.347  11.594  0.7453 -0.2171  0.7140
 4214TIP3   OH236836   3.682   3.935   9.870  0.3879  0.6386  0.0770
 4214TIP3    H136837   3.700   3.844   9.850  0.5747  0.6836  0.0418
 4214TIP3    H236838   3.723   3.949   9.956  1.4117  1.0157 -0.4538
 4215TIP3   OH236839   3.078   6.575   9.308 -0.1769 -0.6979  0.0570
 4215TIP3    H136840   3.105   6.526   9.386 -2.0980 -1.7455  0.1169
 4215TIP3    H236841   3.108   6.665   9.326  0.8086 -1.2228  1.2676
 4216TIP3   OH236842   3.369   4.074  12.075  0.2365 -0.1318  0.4176
 4216TIP3    H136843   3.382   3.981  12.056 -0.9261 -0.1405 -0.4304
 4216TIP3    H236844   3.329   4.075  12.162  1.9921 -0.3045  1.2588
 4217TIP3   OH236845   1.851   3.816  12.362 -0.5909 -0.0866 -0.0943
 4217TIP3    H136846   1.785   3.855  12.420  0.0414 -0.8256  1.1748
 4217TIP3    H236847   1.830   3.723  12.361  0.0232 -0.2272 -0.2162
 4218TIP3   OH236848   2.914   2.412  12.015  0.2367 -0.1708  0.1962
 4218TIP3    H136849   2.868   2.493  12.036  0.9575  0.0864  0.8493
 4218TIP3    H236850   2.858   2.368  11.951 -0.3859  0.6238  0.1792
 4219TIP3   OH236851   3.675   0.864  10.796  0.1960 -0.5165  0.0737
 4219TIP3    H136852   3.743   0.804  10.826  0.7976  0.9868  1.9543
 4219TIP3    H236853   3.601   0.808  10.774  0.8793 -1.9918  1.3150
 4220TIP3   OH236854   3.614   4.501  12.301 -0.0768 -0.0408 -0.4410
 4220TIP3    H136855   3.632   4.408  12.316 -0.7541 -0.3841 -1.6154
 4220TIP3    H236856   3.700   4.542  12.305  0.3245 -0.8365 -0.5991
 4221TIP3   OH236857   5.564   5.589  12.401  0.6356  1.2187  0.2317
 4221TIP3    H136858   5.490   5.549  12.356 -0.0394  2.1065  0.5271
 4221TIP3    H236859   5.639   5.534  12.378 -0.2483 -0.1955  0.6169
 4222TIP3   OH236860   1.406   3.086  11.009 -0.1595 -0.0785  0.3092
 4222TIP3    H136861   1.397   3.065  10.916 -0.6418 -0.7238  0.4936
 4222TIP3    H236862   1.501   3.090  11.023 -0.0861  0.5384 -0.3169
 4223TIP3   OH236863   1.133   6.253  12.398 -0.3481 -0.0049  0.4600
 4223TIP3    H136864   1.051   6.262  12.446 -0.1691 -0.0676  0.7787
 4223TIP3    H236865   1.106   6.223  12.311 -0.5928 -1.1087  0.8973
 4224TIP3   OH236866   0.903   3.947  11.144  0.1220  0.1715  0.2217
 4224TIP3    H136867   0.922   3.930  11.236  0.8340 -1.3784 -0.1810
 4224TIP3    H236868   0.931   3.868  11.098 -0.0276  0.9838 -1.3605
 4225TIP3   OH236869   5.860   5.506  12.340 -0.3343  0.4646  0.1632
 4225TIP3    H136870   5.814   5.423  12.329 -0.9828  0.7596  0.5833
 4225TIP3    H236871   5.912   5.516  12.260  0.7465 -0.9540  0.6598
 4226TIP3   OH236872   0.798   2.198  11.403 -0.0909 -0.0628  0.4247
 4226TIP3    H136873   0.707   2.216  11.426 -0.5219 -1.6513  0.0999
 4226TIP3    H236874   0.820   2.268  11.341 -0.2646  1.7553  2.2849
 4227TIP3   OH236875   6.507   3.306  11.725  0.2770 -0.2745 -0.2442
 4227TIP3    H136876   6.568   3.280  11.656  1.8853  0.4757  0.8237
 4227TIP3    H236877   6.552   3.284  11.806 -1.2145 -0.3639  0.5953
 4228TIP3   OH236878   3.651   0.654   9.095 -0.6318  0.8925  0.6908
 4228TIP3    H136879   3.615   0.674   9.008  2.5582 -0.0739 -1.0098
 4228TIP3    H236880   3.729   0.709   9.101  1.6378 -2.1297  1.0011
 4229TIP3   OH236881   6.457   2.090  11.113 -0.4499 -0.5536  0.6821
 4229TIP3    H136882   6.380   2.144  11.097  0.0581  0.2291  0.8207
 4229TIP3    H236883   6.422   2.007  11.146 -1.3442 -0.9948 -1.2546
 4230TIP3   OH236884   0.632   3.706  10.980 -0.2934 -0.6136  0.0488
 4230TIP3    H136885   0.612   3.613  10.971  0.0461 -0.7239  0.3989
 4230TIP3    H236886   0.583   3.733  11.057 -2.2910  0.0622 -1.3862
 4231TIP3   OH236887   4.846   5.498  10.030 -0.0637  0.4728 -1.0638
 4231TIP3    H136888   4.868   5.423   9.975 -0.1800 -0.2480 -0.1347
 4231TIP3    H236889   4.751   5.492  10.042 -0.0279  0.5846 -0.7200
 4232TIP3   OH236890   4.388   4.889   9.517 -0.0614  0.0197 -0.1654
 4232TIP3    H136891   4.314   4.923   9.468 -0.1785 -0.4946 -0.3511
 4232TIP3    H236892   4.395   4.947   9.593 -0.0745  0.6270 -0.6172
 4233TIP3   OH236893   1.626   4.074  11.640 -0.1504 -0.8752 -0.0223
 4233TIP3    H136894   1.620   4.116  11.554 -0.8828  0.8345  0.8087
 4233TIP3    H236895   1.676   4.136  11.693 -3.4184  0.3026  1.9717
 4234TIP3   OH236896   5.372   3.184  10.417  0.0189 -1.0120  0.2081
 4234TIP3    H136897   5.411   3.142  10.494  0.0981 -0.4240  0.5013
 4234TIP3    H236898   5.316   3.117  10.379 -0.8248 -1.0166  1.3768
 4235TIP3   OH236899   3.192   1.013  10.865  0.2968  0.0916  0.4993
 4235TIP3    H136900   3.270   1.059  10.897  0.6142 -1.0067  1.3485
 4235TIP3    H236901   3.120   1.071  10.889  0.6294 -0.1394  2.2076
 4236TIP3   OH236902   3.384   3.569  11.802  0.2395 -0.0312  0.0404
 4236TIP3    H136903   3.435   3.642  11.767 -0.6565  0.3993 -0.4088
 4236TIP3    H236904   3.417   3.492  11.755  0.0911  0.3244 -0.6648
 4237TIP3   OH236905   3.826   2.526   8.399  0.3260  0.3986  0.1800
 4237TIP3    H136906   3.792   2.459   8.458 -1.4486  0.8237 -0.2794
 4237TIP3    H236907   3.806   2.609   8.443  0.8664  0.6714 -0.0742
 4238TIP3   OH236908   4.255   2.731  10.315  0.3882  0.2069  0.5094
 4238TIP3    H136909   4.216   2.684  10.241 -2.1764  0.9614  1.2816
 4238TIP3    H236910   4.183   2.742  10.377  2.0938  0.9174  2.4827
 4239TIP3   OH236911   4.154   2.343  11.559  0.4016  0.1690  0.6273
 4239TIP3    H136912   4.064   2.313  11.549  0.0562  0.7964  1.6908
 4239TIP3    H236913   4.148   2.416  11.621  1.1259  2.7163 -2.0694
 4240TIP3   OH236914   5.956   1.370  10.883 -0.0437  0.1077 -0.0383
 4240TIP3    H136915   5.934   1.421  10.806  0.4688 -0.7374 -0.7629
 4240TIP3    H236916   5.875   1.325  10.906 -0.2663  0.5643  0.0814
 4241TIP3   OH236917   1.109   2.178  11.268 -0.1841 -0.2174 -0.0219
 4241TIP3    H136918   1.085   2.269  11.288 -0.6343 -0.1784 -0.7068
 4241TIP3    H236919   1.147   2.145  11.349 -0.7743  0.3301  0.4890
 4242TIP3   OH236920   3.690   4.840  11.455 -0.1381 -0.5409  0.2255
 4242TIP3    H136921   3.604   4.829  11.414 -0.6977 -0.5345  1.3587
 4242TIP3    H236922   3.693   4.774  11.524 -0.0414  0.6939  1.4622
 4243TIP3   OH236923   4.357   5.476  10.125  0.2334 -0.4485 -0.0458
 4243TIP3    H136924   4.392   5.420  10.193  1.2705  0.2874  0.0488
 4243TIP3    H236925   4.297   5.535  10.171 -1.9456 -2.3100 -0.3463
 4244TIP3   OH236926   6.134   5.438  11.213 -0.0061 -0.1246  0.0322
 4244TIP3    H136927   6.193   5.478  11.149  2.3101 -2.2196  0.7068
 4244TIP3    H236928   6.123   5.348  11.182  0.2296 -0.8457  1.9247
 4245TIP3   OH236929   0.196   3.867   9.130  0.1934 -0.0311 -0.1891
 4245TIP3    H136930   0.188   3.956   9.164 -0.1321 -0.4474  0.8712
 4245TIP3    H236931   0.106   3.835   9.123  0.3391 -1.4048  2.6557
 4246TIP3   OH236932   4.902   2.140  11.487  0.5691  0.1146  0.1987
 4246TIP3    H136933   4.979   2.191  11.462  0.0828 -0.3678 -2.5306
 4246TIP3    H236934   4.836   2.163  11.422 -1.4437  0.0608  2.1173
 4247TIP3   OH236935   3.574   1.123  10.472  0.6565  0.7140 -0.0211
 4247TIP3    H136936   3.540   1.140  10.384 -1.0666  0.1778  0.4874
 4247TIP3    H236937   3.545   1.198  10.523 -2.4424 -0.9981  1.0573
 4248TIP3   OH236938   4.751   6.097  12.370 -0.2397 -0.3548  0.1620
 4248TIP3    H136939   4.825   6.155  12.350 -0.2098 -0.6426 -0.6051
 4248TIP3    H236940   4.678   6.134  12.320  0.0200 -1.5285 -1.1553
 4249TIP3   OH236941   0.682   3.491  10.179 -0.3055  0.2536  0.2572
 4249TIP3    H136942   0.740   3.418  10.202  0.6975  0.3759 -1.6661
 4249TIP3    H236943   0.600   3.449  10.153 -0.2085 -0.0854  0.4883
 4250TIP3   OH236944   0.970   4.006  11.603 -0.1245 -0.2432 -0.0703
 4250TIP3    H136945   1.046   3.966  11.646 -0.3194 -0.7076 -0.1471
 4250TIP3    H236946   0.959   3.955  11.523 -1.5969 -1.3513  0.7844
 4251TIP3   OH236947   3.400   0.105  11.815 -0.3713  0.2179 -0.3505
 4251TIP3    H136948   3.459   0.032  11.795  0.3907  0.4221  0.9941
 4251TIP3    H236949   3.455   0.169  11.860 -1.6781  0.1821  1.4437
 4252TIP3   OH236950   0.707   4.098   9.789  0.1887 -0.7269  0.6503
 4252TIP3    H136951   0.775   4.033   9.801  3.3301  2.2210  0.3717
 4252TIP3    H236952   0.707   4.117   9.695  0.2937  0.5772  0.8978
 4253TIP3   OH236953   5.475   6.276   9.248  1.0416  0.3215 -0.2322
 4253TIP3    H136954   5.468   6.339   9.319  2.2596  0.8601 -0.5658
 4253TIP3    H236955   5.406   6.301   9.186  0.8491  0.6797  0.1246
 4254TIP3   OH236956   6.299   0.648  10.317 -0.0034 -0.3639 -0.5318
 4254TIP3    H136957   6.364   0.656  10.248 -0.8909  0.3744 -1.2948
 4254TIP3    H236958   6.320   0.717  10.379 -0.5631  0.4260 -1.2093
 4255TIP3   OH236959   3.405   2.090  12.349 -0.2936 -0.2562 -0.1747
 4255TIP3    H136960   3.413   2.143  12.270 -1.3302 -1.2343 -0.9791
 4255TIP3    H236961   3.337   2.133  12.400 -0.0400  0.0494 -0.0943
 4256TIP3   OH236962   1.040   2.257  10.475  0.1417  0.5406  0.0977
 4256TIP3    H136963   1.121   2.279  10.520  0.9081 -0.3865 -0.7805
 4256TIP3    H236964   0.971   2.298  10.528  1.2833  2.8448 -0.0893
 4257TIP3   OH236965   5.434   3.683  11.314  0.4097 -0.3220  0.1256
 4257TIP3    H136966   5.398   3.606  11.271  1.9346 -0.5525 -0.8485
 4257TIP3    H236967   5.484   3.727  11.245  0.3876  0.9857  0.9206
 4258TIP3   OH236968   0.120   0.846   9.656  0.3475 -0.1455  0.5982
 4258TIP3    H136969   0.071   0.768   9.680 -0.1724 -0.3909 -1.0788
 4258TIP3    H236970   0.171   0.819   9.579  1.4010  0.7319  0.9577
 4259TIP3   OH236971   6.510   1.342  10.853  0.0228 -0.2687  0.0333
 4259TIP3    H136972   6.437   1.383  10.807  0.8046  0.4394 -0.6251
 4259TIP3    H236973   6.581   1.341  10.789  0.8691 -0.1001  0.9381
 4260TIP3   OH236974   0.811   1.776   8.920 -0.5999  0.1222  0.0869
 4260TIP3    H136975   0.717   1.771   8.938 -0.7922 -0.3497 -1.0145
 4260TIP3    H236976   0.831   1.698   8.870  0.0980  0.9516 -0.9738
 4261TIP3   OH236977   5.464   2.443  10.468 -0.0509 -0.0267  0.4020
 4261TIP3    H136978   5.531   2.483  10.523  0.1659  0.6887 -0.3556
 4261TIP3    H236979   5.472   2.349  10.484  0.2523  0.1456  1.3000
 4262TIP3   OH236980   1.368   4.443  12.606  0.3340 -0.1728  0.5740
 4262TIP3    H136981   1.387   4.535  12.588 -0.7452 -0.4004 -2.1199
 4262TIP3    H236982   1.299   4.446  12.672  0.7348  0.8963  0.9763
 4263TIP3   OH236983   4.261   5.915  12.107 -0.7731  0.0206 -0.2576
 4263TIP3    H136984   4.269   5.908  12.202 -3.4698 -0.9335 -0.0275
 4263TIP3    H236985   4.218   5.999  12.093  0.0366  0.3756 -0.7041
 4264TIP3   OH236986   3.209   3.623   9.791  0.0179  0.8774  0.1252
 4264TIP3    H136987   3.139   3.663   9.741 -0.1800 -0.5167 -0.7590
 4264TIP3    H236988   3.267   3.696   9.814 -1.7103  2.0594  0.9126
 4265TIP3   OH236989   3.584   4.182  11.246 -0.1422 -0.1272  0.0789
 4265TIP3    H136990   3.637   4.222  11.178 -1.6828 -0.0415 -1.1530
 4265TIP3    H236991   3.607   4.089  11.242 -0.0075 -0.0780 -0.3690
 4266TIP3   OH236992   0.799   4.970  12.151  0.5245  0.0240  0.2135
 4266TIP3    H136993   0.787   5.064  12.170 -0.6411 -0.2032  0.6776
 4266TIP3    H236994   0.710   4.935  12.149  0.9945 -1.3787  1.7179
 4267TIP3   OH236995   0.816   2.514  10.457 -0.1618  0.0422 -0.0716
 4267TIP3    H136996   0.775   2.428  10.466 -0.3680  0.1308 -0.1642
 4267TIP3    H236997   0.875   2.504  10.382 -1.4210  0.4518 -1.1624
 4268TIP3   OH236998   0.253   4.051  11.727  0.4368 -0.2190 -0.0737
 4268TIP3    H136999   0.345   4.050  11.698  0.3895  0.3857 -0.2636
 4268TIP3    H237000   0.252   4.113  11.799  0.5457 -1.6862  1.2368
 4269TIP3   OH237001   1.356   0.462  10.873  0.0483  0.4694  0.0057
 4269TIP3    H137002   1.321   0.551  10.874  0.5014  0.6425  0.6679
 4269TIP3    H237003   1.449   0.472  10.890  0.2810 -0.0611 -0.8978
 4270TIP3   OH237004   3.680   2.021  12.157  0.2724  0.0700  0.0525
 4270TIP3    H137005   3.655   1.974  12.078  2.5841 -0.6886 -0.3159
 4270TIP3    H237006   3.612   2.087  12.169 -1.3671 -1.3105 -1.2184
 4271TIP3   OH237007   3.004   1.536  10.952  0.1670  0.3832  0.3479
 4271TIP3    H137008   3.008   1.630  10.939 -0.5203  0.2221 -1.2667
 4271TIP3    H237009   3.005   1.525  11.048 -1.2362  2.0947  0.6109
 4272TIP3   OH237010   3.121   3.018  11.856  0.4043 -0.7591 -0.0464
 4272TIP3    H137011   3.087   3.022  11.767  0.4387 -0.7013 -0.0577
 4272TIP3    H237012   3.142   3.110  11.877  0.7716 -0.8222 -0.1247
 4273TIP3   OH237013   2.202   5.810  10.947 -0.7981 -0.6681  0.2997
 4273TIP3    H137014   2.244   5.831  11.030  1.1696  1.7011 -1.1683
 4273TIP3    H237015   2.109   5.825  10.963 -0.3551  0.8461  1.7968
 4274TIP3   OH237016   2.192   2.944   9.344  0.4329 -0.1943 -0.2734
 4274TIP3    H137017   2.158   2.931   9.432 -0.1503  0.9594 -0.3199
 4274TIP3    H237018   2.283   2.915   9.349  0.1742 -0.8886  0.4945
 4275TIP3   OH237019   0.666   6.230  11.936  0.1007  0.4471  0.0521
 4275TIP3    H137020   0.701   6.309  11.978  1.0997 -1.0153  2.1434
 4275TIP3    H237021   0.742   6.189  11.895 -0.5747  0.9867 -1.8172
 4276TIP3   OH237022   5.046   5.028   8.665 -0.4799 -0.4523 -0.0347
 4276TIP3    H137023   5.070   5.105   8.717 -1.3528  1.1005 -1.8201
 4276TIP3    H237024   5.126   4.975   8.661  1.1844  2.0026 -1.4885
 4277TIP3   OH237025   5.346   0.315  10.198  0.2326 -0.0252 -0.0535
 4277TIP3    H137026   5.256   0.330  10.169  0.5303  0.1415 -0.9232
 4277TIP3    H237027   5.338   0.251  10.268 -0.9552  3.0313  2.8577
 4278TIP3   OH237028   4.104   1.747  12.442 -0.3073  0.3083  0.1250
 4278TIP3    H137029   4.009   1.753  12.451 -0.5329 -0.1860 -1.5210
 4278TIP3    H237030   4.129   1.826  12.395 -0.0428  0.0199 -0.2326
 4279TIP3   OH237031   2.483   2.912   9.707 -0.0090  0.3819  0.5512
 4279TIP3    H137032   2.454   2.831   9.664  0.1663  0.7810 -0.3605
 4279TIP3    H237033   2.545   2.884   9.774 -0.6357 -0.2977  0.8522
 4280TIP3   OH237034   6.285   5.655  11.411  0.1678 -0.6648 -0.1329
 4280TIP3    H137035   6.309   5.572  11.371 -0.2625 -1.0301  0.3626
 4280TIP3    H237036   6.248   5.707  11.340 -0.1546 -1.1325 -0.3063
 4281TIP3   OH237037   3.149   4.108   9.546 -0.0194  0.5351 -0.5961
 4281TIP3    H137038   3.125   4.195   9.514  0.4520  0.3197 -1.5535
 4281TIP3    H237039   3.245   4.104   9.537 -0.2085 -0.9066 -2.7785
 4282TIP3   OH237040   4.706   0.475  11.154  0.3651 -0.4974 -0.8557
 4282TIP3    H137041   4.676   0.566  11.164  2.9502  0.2276  1.3015
 4282TIP3    H237042   4.650   0.425  11.214  1.1918  0.2828  0.6113
 4283TIP3   OH237043   5.039   0.847  12.802 -0.3513  0.2431 -0.3973
 4283TIP3    H137044   5.107   0.822  12.864 -0.4854  1.3443  0.2230
 4283TIP3    H237045   5.086   0.890  12.730 -0.4858  3.5042  1.2802
 4284TIP3   OH237046   0.697   1.868  11.114  0.0748  0.4470  0.3369
 4284TIP3    H137047   0.620   1.815  11.133 -0.8909  2.0158  0.9768
 4284TIP3    H237048   0.666   1.936  11.054  1.4945 -0.2119 -1.2553
 4285TIP3   OH237049   5.590   6.466   9.900 -0.1783 -0.2869 -0.1229
 4285TIP3    H137050   5.613   6.459   9.807  1.3966  1.3438  0.0744
 4285TIP3    H237051   5.617   6.383   9.938  2.0674  0.1299 -0.6354
 4286TIP3   OH237052   4.188   2.188  10.144  0.0163 -0.1527 -0.1422
 4286TIP3    H137053   4.118   2.185  10.078  0.9487 -2.0283 -1.1117
 4286TIP3    H237054   4.267   2.164  10.096  0.8266 -1.0269  1.5468
 4287TIP3   OH237055   3.103   0.092   9.776 -0.3241  0.0960  0.7751
 4287TIP3    H137056   3.032   0.119   9.834 -0.4811  2.0979 -0.2816
 4287TIP3    H237057   3.073   0.114   9.688  2.2606  2.7647  0.4043
 4288TIP3   OH237058   5.805   0.432  11.999  0.0289  0.0272  0.5029
 4288TIP3    H137059   5.864   0.467  12.066  0.8943 -0.7235  0.1491
 4288TIP3    H237060   5.857   0.366  11.953 -1.6205 -1.9784  1.3410
 4289TIP3   OH237061   1.278   5.083   9.996  0.4843  0.1191 -0.0817
 4289TIP3    H137062   1.339   5.009   9.998  0.3848  0.0444  1.1132
 4289TIP3    H237063   1.217   5.062   9.925  0.2167 -1.1607  0.4768
 4290TIP3   OH237064   2.689   4.701  10.090  0.1072  0.0598  0.2184
 4290TIP3    H137065   2.641   4.782  10.104 -2.8098 -1.6715  1.1570
 4290TIP3    H237066   2.666   4.647  10.165  2.0123 -1.6389 -0.3362
 4291TIP3   OH237067   3.565   1.380  10.581  0.0802  0.4724  0.1149
 4291TIP3    H137068   3.580   1.397  10.674 -0.6585 -1.2955  0.6008
 4291TIP3    H237069   3.525   1.460  10.548  1.2272  1.4751  1.0806
 4292TIP3   OH237070   1.012   2.072  11.836  0.4339  0.2415 -0.0106
 4292TIP3    H137071   1.009   2.153  11.784  0.8175  0.7309  0.7094
 4292TIP3    H237072   0.922   2.042  11.839  0.6303 -0.9870 -2.7536
 4293TIP3   OH237073   1.277   2.156  11.938 -0.4319 -0.2231 -1.1463
 4293TIP3    H137074   1.203   2.110  11.899 -0.6453 -0.3623 -0.5849
 4293TIP3    H237075   1.322   2.197  11.863 -1.3630  0.2913 -1.4439
 4294TIP3   OH237076   5.257   5.634  12.098 -0.1695  0.3300 -0.0055
 4294TIP3    H137077   5.259   5.593  12.012  0.5242  0.0117  0.1561
 4294TIP3    H237078   5.239   5.726  12.080 -2.2059 -0.0727 -0.3464
 4295TIP3   OH237079   6.303   6.412  10.942 -0.2103 -0.9769  0.1196
 4295TIP3    H137080   6.235   6.443  11.002 -0.4095  1.0318 -1.0732
 4295TIP3    H237081   6.384   6.421  10.992 -0.4757 -0.2642  0.4314
 4296TIP3   OH237082   4.876   5.202   9.624  0.9552  0.3916  0.3775
 4296TIP3    H137083   4.897   5.187   9.532 -0.3569 -2.3289  0.4137
 4296TIP3    H237084   4.780   5.201   9.627  0.9699 -0.8599  1.8984
 4297TIP3   OH237085   2.600   1.025  11.939  0.6867  0.2914  0.1799
 4297TIP3    H137086   2.593   1.099  11.999 -2.1943  0.5877 -0.3449
 4297TIP3    H237087   2.563   1.057  11.857  1.5007 -1.0671 -0.7576
 4298TIP3   OH237088   0.526   4.988  10.811  0.1601 -0.2794 -0.0857
 4298TIP3    H137089   0.541   4.992  10.905  0.4910 -3.7137  0.1331
 4298TIP3    H237090   0.613   4.994  10.772  0.2934 -1.3357  0.0201
 4299TIP3   OH237091   5.424   0.683  10.846 -0.0290  0.2544  0.1584
 4299TIP3    H137092   5.509   0.649  10.818 -0.6576 -1.1098 -0.2134
 4299TIP3    H237093   5.375   0.694  10.764 -0.6452 -0.2304  0.4547
 4300TIP3   OH237094   6.452   6.617  11.322  0.2738  0.1867  0.8658
 4300TIP3    H137095   6.429   6.662  11.240  3.0500  0.2716  0.0448
 4300TIP3    H237096   6.515   6.675  11.364  2.4362 -1.9428  0.7405
 4301TIP3   OH237097   2.747   0.348  11.783 -0.0295  0.2476 -0.3750
 4301TIP3    H137098   2.698   0.266  11.791  0.3969 -0.0998 -1.2433
 4301TIP3    H237099   2.791   0.357  11.868  1.6348 -1.5524 -0.9674
 4302TIP3   OH237100   4.768   6.340  10.462  0.0619  0.0184  0.0487
 4302TIP3    H137101   4.753   6.388  10.543 -1.4303  1.2549 -0.8918
 4302TIP3    H237102   4.719   6.258  10.472 -0.7740  0.5175  0.1135
 4303TIP3   OH237103   2.039   2.913  10.125  0.5227 -0.5081  0.2320
 4303TIP3    H137104   2.048   2.960  10.208 -0.9099  1.2781 -0.5477
 4303TIP3    H237105   1.977   2.843  10.145  0.8229 -0.6103  0.8529
 4304TIP3   OH237106   5.837   2.788  12.327  0.2546 -0.1131 -0.1338
 4304TIP3    H137107   5.928   2.790  12.357  0.0886 -0.1710  0.3817
 4304TIP3    H237108   5.800   2.709  12.367  0.2672 -0.6986 -1.2146
 4305TIP3   OH237109   1.887   6.060  12.104 -0.2636 -0.2415 -0.3763
 4305TIP3    H137110   1.952   5.999  12.069  1.5757 -0.4297  2.9250
 4305TIP3    H237111   1.809   6.007  12.115  0.2649 -1.1128 -0.6501
 4306TIP3   OH237112   4.200   5.581  11.818 -0.5336  0.1216 -0.3888
 4306TIP3    H137113   4.291   5.559  11.838 -0.5772 -0.7893 -1.1056
 4306TIP3    H237114   4.206   5.651  11.753 -0.2218 -2.0561 -2.8889
 4307TIP3   OH237115   1.139   6.080   9.737 -0.2292 -0.3388 -0.1337
 4307TIP3    H137116   1.170   6.128   9.660 -0.2434 -3.4168 -2.2467
 4307TIP3    H237117   1.095   6.146   9.790  0.9300  2.2023 -2.1073
 4308TIP3   OH237118   1.697   2.371  10.615  0.2295 -0.8502 -0.7205
 4308TIP3    H137119   1.717   2.311  10.687 -1.7121 -0.1868  0.4560
 4308TIP3    H237120   1.603   2.360  10.600  0.5119 -0.6487 -2.9043
 4309TIP3   OH237121   2.636   4.864   8.915 -0.1419  0.2251 -0.0117
 4309TIP3    H137122   2.666   4.927   8.851 -0.0291  0.0298 -0.1509
 4309TIP3    H237123   2.686   4.785   8.897 -1.4408 -0.4402 -0.9068
 4310TIP3   OH237124   4.019   2.353  10.413  0.5909  0.2075 -0.0689
 4310TIP3    H137125   3.988   2.371  10.324  3.5465  0.8951 -1.0893
 4310TIP3    H237126   4.105   2.397  10.417  1.3177 -1.2677  2.5478
 4311TIP3   OH237127   3.619   5.191  12.050  0.0320 -0.1090 -0.5856
 4311TIP3    H137128   3.667   5.140  12.115  0.6708  0.4615 -0.5931
 4311TIP3    H237129   3.537   5.144  12.038  0.6222 -1.1645 -0.6351
 4312TIP3   OH237130   1.941   4.995  11.981  0.4461 -0.3689  0.1009
 4312TIP3    H137131   1.967   4.945  11.904  0.7564 -0.1696  0.0783
 4312TIP3    H237132   1.917   4.928  12.045 -2.4705 -0.5786 -1.0381
 4313TIP3   OH237133   0.855   3.237   9.230 -1.0307 -0.1441  0.0615
 4313TIP3    H137134   0.819   3.228   9.318  1.4109  0.6262  1.2255
 4313TIP3    H237135   0.821   3.321   9.198 -0.6924  0.3249  0.9157
 4314TIP3   OH237136   1.380   4.252  11.942 -0.1316  0.1027  0.0591
 4314TIP3    H137137   1.290   4.281  11.935 -0.1288 -0.2546 -1.8248
 4314TIP3    H237138   1.426   4.296  11.870  1.2862  0.5512  1.1853
 4315TIP3   OH237139   5.249   4.017   9.229  0.0965 -0.8571 -0.5551
 4315TIP3    H137140   5.246   4.070   9.309 -1.0143 -0.6337 -0.7351
 4315TIP3    H237141   5.165   4.031   9.187  1.3441  0.5735 -2.7892
 4316TIP3   OH237142   3.310   5.489  12.428  0.0257  0.4346  0.0771
 4316TIP3    H137143   3.316   5.409  12.376 -0.9383  0.5283 -0.2063
 4316TIP3    H237144   3.256   5.465  12.503 -0.7869  0.9668 -0.3242
 4317TIP3   OH237145   0.895   1.272  10.272  0.1348 -0.1589 -0.3334
 4317TIP3    H137146   0.845   1.286  10.192  0.1670  4.0592  0.1584
 4317TIP3    H237147   0.885   1.179  10.291 -2.2476 -0.7360 -3.6440
 4318TIP3   OH237148   1.819   3.250  11.230  0.3292  0.1790  0.3380
 4318TIP3    H137149   1.780   3.298  11.303  2.7931  0.7343  1.3902
 4318TIP3    H237150   1.889   3.307  11.199  0.7454 -1.0222 -1.0297
 4319TIP3   OH237151   4.521   2.398  12.086  0.1792 -0.2186  0.1604
 4319TIP3    H137152   4.556   2.420  12.172  2.2466 -1.9474 -0.1518
 4319TIP3    H237153   4.572   2.452  12.025 -0.3836  0.0425 -0.0898
 4320TIP3   OH237154   3.368   4.917   9.681  0.0933  0.1726  0.0352
 4320TIP3    H137155   3.374   4.998   9.732 -1.7298  0.5566 -0.2965
 4320TIP3    H237156   3.403   4.850   9.739 -1.1778  0.7206  1.5216
 4321TIP3   OH237157   5.878   0.698  12.603 -0.0733 -0.4356  0.1453
 4321TIP3    H137158   5.827   0.691  12.522  1.0533 -0.7123 -0.5755
 4321TIP3    H237159   5.884   0.792  12.620 -3.4382 -0.4288  2.0224
 4322TIP3   OH237160   3.971   3.412   9.612  0.5874  0.7217  0.1698
 4322TIP3    H137161   4.008   3.329   9.642 -0.0112  0.3257 -0.1507
 4322TIP3    H237162   3.887   3.419   9.658  0.2891  0.7737 -0.3673
 4323TIP3   OH237163   6.305   1.533  11.988 -0.5749 -0.1415 -0.0456
 4323TIP3    H137164   6.350   1.556  12.069  0.3556  4.0381 -1.4981
 4323TIP3    H237165   6.219   1.574  11.996 -0.7715 -0.3795 -0.8281
 4324TIP3   OH237166   6.116   0.532  10.748  0.1936 -0.1694  0.3502
 4324TIP3    H137167   6.135   0.498  10.661 -1.3748  0.1913 -0.1716
 4324TIP3    H237168   6.180   0.491  10.805  1.8500  0.2934 -1.1039
 4325TIP3   OH237169   3.135   1.989  11.653 -0.4218  0.3869  0.1909
 4325TIP3    H137170   3.145   1.896  11.675 -0.2075  0.1599 -0.8388
 4325TIP3    H237171   3.206   2.033  11.701  0.4738 -0.1886 -0.5711
 4326TIP3   OH237172   6.543   6.563  10.150 -0.0669  0.0637 -0.2068
 4326TIP3    H137173   6.573   6.476  10.123  2.2426  0.6826  0.1014
 4326TIP3    H237174   6.449   6.553  10.165 -0.1666 -1.9621 -1.7361
 4327TIP3   OH237175   6.112   5.145   8.966 -0.5504  0.1925  0.3551
 4327TIP3    H137176   6.203   5.151   8.935 -0.4374  0.0025  0.6506
 4327TIP3    H237177   6.092   5.052   8.962 -0.5130  0.1601  0.9257
 4328TIP3   OH237178   3.578   5.706  12.149  0.1492 -0.2759  0.4328
 4328TIP3    H137179   3.575   5.802  12.145 -0.5339 -0.2759  0.7161
 4328TIP3    H237180   3.549   5.685  12.238 -2.0034 -0.8027 -0.3187
 4329TIP3   OH237181   3.432   4.071   9.874  0.2650 -0.1290 -0.1377
 4329TIP3    H137182   3.425   4.140   9.809 -0.4247  0.4827  0.5623
 4329TIP3    H237183   3.520   4.033   9.861  1.2536  1.8394  0.3971
 4330TIP3   OH237184   6.446   1.024  12.128  0.2110  0.1091  0.0809
 4330TIP3    H137185   6.447   0.931  12.151  0.5591  0.4079  1.3417
 4330TIP3    H237186   6.447   1.025  12.032 -0.1970 -1.1843  0.0465
 4331TIP3   OH237187   4.139   2.017  12.634  0.5619 -0.1222  0.8302
 4331TIP3    H137188   4.126   1.932  12.676 -1.1569  1.1219  3.0705
 4331TIP3    H237189   4.092   2.010  12.551 -0.3577 -1.1183  1.3953
 4332TIP3   OH237190   5.690   0.379  11.334 -0.3009  0.1014  0.1230
 4332TIP3    H137191   5.687   0.460  11.283  0.4805  1.0009  1.4248
 4332TIP3    H237192   5.783   0.369  11.357 -0.6211 -0.2071  1.3944
 4333TIP3   OH237193   0.616   0.125  12.108 -0.4605 -0.0578 -0.2955
 4333TIP3    H137194   0.711   0.138  12.113 -0.3536 -0.0153 -1.8996
 4333TIP3    H237195   0.579   0.210  12.132 -0.0913 -0.0358  0.2110
 4334TIP3   OH237196   1.758   4.003   9.668  0.3148  0.0954 -0.1272
 4334TIP3    H137197   1.792   3.922   9.705  0.8307  0.0105 -0.7666
 4334TIP3    H237198   1.758   3.987   9.573 -3.5153 -0.7665 -0.1747
 4335TIP3   OH237199   4.082   2.501  11.776 -0.1407  1.0814  0.2505
 4335TIP3    H137200   4.000   2.480  11.820  0.3051 -0.9979  0.1862
 4335TIP3    H237201   4.150   2.469  11.835  0.5126  0.1106 -0.9780
 4336TIP3   OH237202   1.488   5.126   9.221 -0.2910 -0.1119  0.1836
 4336TIP3    H137203   1.432   5.150   9.295 -1.7349  0.9798 -1.1994
 4336TIP3    H237204   1.429   5.088   9.156  0.9325 -1.0081 -0.4579
 4337TIP3   OH237205   4.989   0.481  12.056 -0.2565  0.0991  0.1960
 4337TIP3    H137206   5.026   0.501  11.970 -0.1040  0.3555  0.3218
 4337TIP3    H237207   4.898   0.511  12.050 -0.5842 -0.9583 -0.2707
 4338TIP3   OH237208   4.301   1.160  11.034  0.0127  0.2265 -0.0153
 4338TIP3    H137209   4.273   1.223  11.101 -1.8249  0.8547 -1.3178
 4338TIP3    H237210   4.378   1.201  10.995  0.3915  0.4140  0.8806
 4339TIP3   OH237211   5.895   1.717   9.972 -0.4421 -0.4768 -0.1635
 4339TIP3    H137212   5.897   1.808   9.943  1.6393  0.3792  2.2884
 4339TIP3    H237213   5.828   1.714  10.040 -1.0533 -0.9923 -0.7755
 4340TIP3   OH237214   1.442   3.453  12.226 -0.5922 -0.6966 -0.3783
 4340TIP3    H137215   1.455   3.492  12.313 -0.6737 -2.6726  0.5835
 4340TIP3    H237216   1.508   3.495  12.171 -0.7816  0.8756  0.5165
 4341TIP3   OH237217   3.798   6.466  10.805 -0.6948 -0.0625  0.9612
 4341TIP3    H137218   3.855   6.509  10.869 -0.3959 -1.1261  1.4357
 4341TIP3    H237219   3.734   6.420  10.858 -0.8590 -0.4014  0.4735
 4342TIP3   OH237220   2.505   5.274   9.143  0.3058  0.4285  0.0128
 4342TIP3    H137221   2.586   5.231   9.172  0.0954  0.3739  0.5373
 4342TIP3    H237222   2.491   5.241   9.054 -1.2114 -2.6803  1.2393
 4343TIP3   OH237223   3.633   4.507  10.465 -0.4698 -0.3261 -0.2487
 4343TIP3    H137224   3.632   4.561  10.386  0.2417  0.1403  0.0515
 4343TIP3    H237225   3.540   4.493  10.486 -0.6967  1.5801  0.2013
 4344TIP3   OH237226   2.247   5.113   9.030  0.1537 -0.8824  0.3476
 4344TIP3    H137227   2.325   5.131   8.978  0.1272  0.4249  0.7319
 4344TIP3    H237228   2.195   5.053   8.976  1.4670 -1.8642  0.1484
 4345TIP3   OH237229   5.718   5.300  11.278 -0.1601 -0.2806 -0.1523
 4345TIP3    H137230   5.691   5.381  11.234 -0.1045  0.2181  0.7114
 4345TIP3    H237231   5.791   5.327  11.335  2.3726 -1.6022 -2.5356
 4346TIP3   OH237232   4.522   3.044   9.853 -0.0465  0.1797 -0.1761
 4346TIP3    H137233   4.588   2.996   9.803 -0.3314 -0.2577 -0.1340
 4346TIP3    H237234   4.571   3.113   9.898  0.7389 -1.4622  1.6129
 4347TIP3   OH237235   1.022   3.185   9.653 -0.7259 -0.5364 -0.6704
 4347TIP3    H137236   1.048   3.276   9.665 -0.4946 -0.8317  1.4014
 4347TIP3    H237237   1.047   3.165   9.563  0.0035  1.1855 -0.8971
 4348TIP3   OH237238   4.820   2.497  10.740  0.3472  0.3700  0.1392
 4348TIP3    H137239   4.820   2.586  10.706  0.5287  1.2542  2.3190
 4348TIP3    H237240   4.911   2.481  10.765  1.1013 -1.7614 -3.2801
 4349TIP3   OH237241   2.124   4.675  12.092  0.4007 -0.3511 -0.0092
 4349TIP3    H137242   2.186   4.606  12.116  0.7183  0.3991  1.4446
 4349TIP3    H237243   2.179   4.745  12.056  0.1093 -0.6950 -1.1785
 4350TIP3   OH237244   6.190   0.017  11.435 -0.5301 -0.0678  0.1495
 4350TIP3    H137245   6.277  -0.003  11.400 -0.2028  1.2844  0.1161
 4350TIP3    H237246   6.129  -0.025  11.374  0.0785  0.3301 -0.7541
 4351TIP3   OH237247   3.871   6.376  12.232  0.3123 -0.0691 -0.5794
 4351TIP3    H137248   3.895   6.288  12.262  0.5717  0.2457  0.1572
 4351TIP3    H237249   3.838   6.363  12.143 -1.6276 -1.1992  0.2455
 4352TIP3   OH237250   5.600   6.562  10.566 -0.4455 -0.6673  0.0477
 4352TIP3    H137251   5.551   6.608  10.497 -1.5891  0.1258  1.3336
 4352TIP3    H237252   5.648   6.632  10.611  0.9232 -1.2799 -0.3938
 4353TIP3   OH237253   4.222   3.753  12.166 -0.2075 -0.3860 -0.5553
 4353TIP3    H137254   4.189   3.814  12.231 -0.6854  0.2429 -1.3668
 4353TIP3    H237255   4.217   3.667  12.208 -1.8563 -0.1698 -0.2484
 4354TIP3   OH237256   5.812   2.333  11.570 -0.2981 -0.2505  0.0796
 4354TIP3    H137257   5.900   2.294  11.561 -0.8218 -1.2174 -1.2478
 4354TIP3    H237258   5.768   2.279  11.635 -0.8190 -1.5991 -1.3194
 4355TIP3   OH237259   0.555   3.074  10.117  0.5048  0.6903 -0.4270
 4355TIP3    H137260   0.621   3.076  10.187  0.2673  0.4451 -0.1912
 4355TIP3    H237261   0.541   3.166  10.094 -0.4559  0.8767  0.8372
 4356TIP3   OH237262   3.791   0.382   9.126 -0.3824 -0.2610 -0.0677
 4356TIP3    H137263   3.749   0.457   9.084 -0.8159 -1.1653 -1.3141
 4356TIP3    H237264   3.778   0.310   9.065  0.2764 -1.2966  0.9667
 4357TIP3   OH237265   0.076   5.209   9.344  0.5978 -0.5449  0.3007
 4357TIP3    H137266   0.035   5.296   9.340 -1.2109 -1.2072  2.5095
 4357TIP3    H237267   0.135   5.213   9.419  1.4236 -0.8937 -0.3119
 4358TIP3   OH237268   4.377   0.740  12.120 -0.3964  0.0620 -0.3028
 4358TIP3    H137269   4.417   0.672  12.175 -0.7451  0.3377  0.2990
 4358TIP3    H237270   4.286   0.713  12.110 -0.6503  0.6613  0.3119
 4359TIP3   OH237271   6.433   0.023   9.595  0.1957 -0.4936  0.1054
 4359TIP3    H137272   6.344   0.023   9.561 -0.7365  0.9229  2.3616
 4359TIP3    H237273   6.425  -0.003   9.686  1.8633  1.1478  0.8046
 4360TIP3   OH237274   4.504   2.837  10.354  0.2819  0.5920 -0.5170
 4360TIP3    H137275   4.452   2.917  10.343  0.0635  0.8274  1.8021
 4360TIP3    H237276   4.440   2.770  10.377  0.8037  0.4826  0.6468
 4361TIP3   OH237277   2.792   0.915   8.799 -0.2116 -0.1781 -0.6145
 4361TIP3    H137278   2.870   0.866   8.825  0.3314  1.0212  0.0790
 4361TIP3    H237279   2.768   0.966   8.877 -1.7195 -0.5596 -0.8065
 4362TIP3   OH237280   5.684   6.295  11.443 -0.4725  0.3943 -0.2451
 4362TIP3    H137281   5.623   6.257  11.379 -0.6685  1.7425 -0.9047
 4362TIP3    H237282   5.690   6.229  11.512 -1.7464 -0.2895 -0.7402
 4363TIP3   OH237283   3.163   1.544  12.193 -0.0564  0.2462 -0.6592
 4363TIP3    H137284   3.125   1.460  12.220 -1.8328  1.0939 -0.4089
 4363TIP3    H237285   3.206   1.577  12.271  0.0061 -0.0822 -0.5532
 4364TIP3   OH237286   0.371   3.560  11.571  0.5084  0.2811 -0.4120
 4364TIP3    H137287   0.388   3.534  11.661  2.3601  1.8512 -0.2525
 4364TIP3    H237288   0.277   3.579  11.569 -0.1088 -2.2386  0.4594
 4365TIP3   OH237289   4.916   2.725   9.685  0.8563 -0.7997 -0.2999
 4365TIP3    H137290   4.904   2.752   9.594  0.3616 -1.2081 -0.3616
 4365TIP3    H237291   4.966   2.795   9.725 -2.8729  1.7955  0.3249
 4366TIP3   OH237292   0.564   1.330  11.032 -0.2261  0.6578  0.4039
 4366TIP3    H137293   0.651   1.316  10.993 -0.0254 -0.1797  1.1240
 4366TIP3    H237294   0.564   1.423  11.055  0.6063  0.6111  0.6621
 4367TIP3   OH237295   1.618   0.723   9.318 -0.3279 -0.1467  0.0470
 4367TIP3    H137296   1.682   0.775   9.365  0.2944 -0.5977 -0.2896
 4367TIP3    H237297   1.662   0.699   9.236 -0.8153 -0.7137 -0.0521
 4368TIP3   OH237298   0.321   1.897  11.041  0.1045  0.0705 -0.6159
 4368TIP3    H137299   0.237   1.850  11.041  0.2731 -0.2788  0.8315
 4368TIP3    H237300   0.303   1.978  11.089  0.3725  0.4406 -1.1347
 4369TIP3   OH237301   1.234   3.635  12.079 -0.6279 -0.1389 -0.3344
 4369TIP3    H137302   1.313   3.690  12.078 -1.6818  1.4314 -0.3200
 4369TIP3    H237303   1.267   3.547  12.061  1.3311  0.1842  1.2957
 4370TIP3   OH237304   4.169   4.237  10.434 -0.3295 -0.1376  0.2166
 4370TIP3    H137305   4.165   4.235  10.530  0.4570  0.6807  0.2761
 4370TIP3    H237306   4.163   4.145  10.408  3.8079 -0.9308  1.2845
 4371TIP3   OH237307   1.734   0.977   8.983  0.1730 -0.6075  0.2647
 4371TIP3    H137308   1.797   1.049   8.977  0.6307 -0.8655  1.7351
 4371TIP3    H237309   1.783   0.901   8.950  0.8276 -0.9102  1.8770
 4372TIP3   OH237310   4.231   0.427   9.221  0.8770  0.9311 -0.3090
 4372TIP3    H137311   4.177   0.481   9.164  1.0597  1.0491 -0.3726
 4372TIP3    H237312   4.204   0.451   9.310  0.6612  0.8177 -0.3439
 4373TIP3   OH237313   1.186   1.365  10.070  0.1351 -0.1098 -0.1444
 4373TIP3    H137314   1.174   1.274  10.097 -2.3002  0.2868  0.4076
 4373TIP3    H237315   1.255   1.398  10.126  0.3906 -1.3579  0.3126
 4374TIP3   OH237316   5.431   0.471  11.902 -0.4216  0.3462 -0.5070
 4374TIP3    H137317   5.472   0.525  11.835  0.5873 -0.7447 -0.8114
 4374TIP3    H237318   5.461   0.508  11.985  0.4000  0.1755 -0.7141
 4375TIP3   OH237319   3.957   2.138  11.740  0.6640  0.6675 -0.1150
 4375TIP3    H137320   3.862   2.133  11.755  0.8846 -0.7869  0.9583
 4375TIP3    H237321   3.985   2.216  11.787 -0.0111  1.2225 -0.6053
 4376TIP3   OH237322   4.010   5.038  11.782 -0.1358 -0.1666 -0.7220
 4376TIP3    H137323   4.050   5.101  11.723  0.6286 -0.3250 -0.3863
 4376TIP3    H237324   3.918   5.035  11.756 -0.3773  1.6905 -0.1992
 4377TIP3   OH237325   3.107   1.279  11.907 -0.1036  0.5353  0.1462
 4377TIP3    H137326   3.057   1.343  11.857 -0.5332 -0.5343 -0.8357
 4377TIP3    H237327   3.140   1.218  11.842 -1.3817 -1.3933  1.2000
 4378TIP3   OH237328   1.368   3.124  10.737  0.2846  0.1961 -0.2761
 4378TIP3    H137329   1.304   3.194  10.744 -0.6774 -0.6897  0.1194
 4378TIP3    H237330   1.419   3.145  10.658  0.1280  1.4006 -0.0735
 4379TIP3   OH237331   6.258   1.541  10.220 -0.3952 -0.1658 -0.6460
 4379TIP3    H137332   6.173   1.522  10.181 -0.6956  1.0855 -0.6663
 4379TIP3    H237333   6.319   1.541  10.147 -0.7089  0.7226 -0.9310
 4380TIP3   OH237334   1.088   0.187   9.800  0.5356 -0.0773 -0.5227
 4380TIP3    H137335   1.098   0.120   9.867 -1.0879  0.6690  0.5145
 4380TIP3    H237336   1.104   0.140   9.717  1.2646 -1.3023  0.2761
 4381TIP3   OH237337   5.059   4.332  11.287  0.3959  0.2063  0.7367
 4381TIP3    H137338   5.085   4.241  11.273 -0.5717  0.0922 -0.4412
 4381TIP3    H237339   5.122   4.365  11.351  1.5722 -0.9034  0.1887
 4382TIP3   OH237340   0.533   0.992   8.808  1.1697 -0.2438 -0.5096
 4382TIP3    H137341   0.586   1.066   8.778  1.3534 -0.5293 -0.8939
 4382TIP3    H237342   0.571   0.968   8.893  0.3093  0.9106  0.2314
 4383TIP3   OH237343   2.550   0.285  10.468 -0.2002  0.2660  0.1147
 4383TIP3    H137344   2.644   0.282  10.485 -0.1671  0.3790 -0.0544
 4383TIP3    H237345   2.532   0.377  10.447 -0.3535  0.2507  0.1760
 4384TIP3   OH237346   0.817   4.175  12.295 -0.6898 -0.5323  0.2810
 4384TIP3    H137347   0.855   4.261  12.310 -0.4511 -0.8343  1.5111
 4384TIP3    H237348   0.850   4.149  12.208 -0.3299  0.3741  0.1359
 4385TIP3   OH237349   4.396   3.319  11.620  0.3711 -0.2446 -0.2684
 4385TIP3    H137350   4.377   3.411  11.605  0.7700 -0.1683 -0.3245
 4385TIP3    H237351   4.405   3.311  11.715  0.7637 -0.1371 -0.2938
 4386TIP3   OH237352   3.286   3.622   9.317 -0.0080  0.3004  0.0237
 4386TIP3    H137353   3.245   3.577   9.243 -1.1023  0.1657  0.6809
 4386TIP3    H237354   3.255   3.575   9.394 -0.0049  1.2724  0.6391
 4387TIP3   OH237355   5.700   5.764  11.772 -0.1409 -0.6423  0.3003
 4387TIP3    H137356   5.769   5.830  11.762 -0.0269 -0.6453  1.0207
 4387TIP3    H237357   5.701   5.742  11.865 -2.2486  0.5676  0.6760
 4388TIP3   OH237358   1.434   0.685  10.375  0.9470 -0.5107 -0.2122
 4388TIP3    H137359   1.455   0.639  10.457 -1.8142  0.1886  1.0409
 4388TIP3    H237360   1.366   0.630  10.335 -0.8113  1.2329  0.2125
 4389TIP3   OH237361   5.307   0.366  10.692 -0.7259  0.5991 -0.0451
 4389TIP3    H137362   5.364   0.289  10.695 -3.8464 -2.1164 -2.4720
 4389TIP3    H237363   5.243   0.351  10.761 -1.2290  1.1678 -0.3795
 4390TIP3   OH237364   5.597   4.792  10.476  0.1584 -0.2062 -0.0477
 4390TIP3    H137365   5.598   4.865  10.537 -0.0425 -1.3618  1.4210
 4390TIP3    H237366   5.588   4.714  10.532 -2.8697 -1.1973 -1.6151
 4391TIP3   OH237367   2.854   3.611  12.513  0.1027 -0.3032  0.0665
 4391TIP3    H137368   2.800   3.688  12.494  0.1938 -0.2745 -0.0750
 4391TIP3    H237369   2.943   3.646  12.519 -0.1447  0.1148  2.8519
 4392TIP3   OH237370   3.999   3.368  11.731  0.4992  0.3585 -0.1853
 4392TIP3    H137371   3.908   3.398  11.724  0.3239 -0.1123  0.0332
 4392TIP3    H237372   4.009   3.346  11.824  0.5922 -0.3595 -0.3640
 4393TIP3   OH237373   5.522   1.956  11.893 -0.5577 -0.4265  0.0486
 4393TIP3    H137374   5.433   1.930  11.869 -0.5608 -0.7063  0.3545
 4393TIP3    H237375   5.518   2.051  11.904 -1.1330 -0.5832  1.3507
 4394TIP3   OH237376   5.902   1.733  10.852  0.2164  0.0334 -0.2852
 4394TIP3    H137377   5.943   1.675  10.788 -0.4915 -0.0569 -0.6694
 4394TIP3    H237378   5.975   1.770  10.902  0.7727  0.0971 -1.1336
 4395TIP3   OH237379   4.120   0.626  11.127 -0.4720  0.7641  0.4120
 4395TIP3    H137380   4.098   0.584  11.210  0.4658 -0.3834  0.1065
 4395TIP3    H237381   4.090   0.564  11.060 -0.8594  1.4925 -0.1011
 4396TIP3   OH237382   2.582   2.530   9.924 -0.2196 -0.0481  0.5581
 4396TIP3    H137383   2.492   2.562   9.914 -0.7690 -1.2301  1.5853
 4396TIP3    H237384   2.610   2.509   9.835 -0.8568  0.5781  0.2023
 4397TIP3   OH237385   1.324   4.098  10.179  0.0214 -0.1999  0.2576
 4397TIP3    H137386   1.405   4.148  10.174 -0.7221  0.9941 -0.0908
 4397TIP3    H237387   1.335   4.043  10.257  0.7391  0.6965  0.8082
 4398TIP3   OH237388   0.031   3.826   8.864  0.2081  0.7730  0.1952
 4398TIP3    H137389  -0.031   3.840   8.793 -0.1999 -1.2364  0.0823
 4398TIP3    H237390  -0.022   3.828   8.943  0.1286  0.0274  0.1729
 4399TIP3   OH237391   3.009   3.544  11.876 -0.1243 -0.2671 -0.0705
 4399TIP3    H137392   3.045   3.631  11.858  0.0907 -0.2145  0.5979
 4399TIP3    H237393   2.962   3.521  11.796 -3.1251  1.8956  0.8728
 4400TIP3   OH237394   2.934   1.604   9.223  0.7502  0.3289 -0.5034
 4400TIP3    H137395   2.941   1.558   9.139 -0.6577  0.0229 -0.4754
 4400TIP3    H237396   2.971   1.691   9.205  3.0336 -0.6006 -0.6673
 4401TIP3   OH237397   1.301   0.657  11.192 -0.6113 -0.2191 -0.0687
 4401TIP3    H137398   1.251   0.711  11.253  0.2508  1.0851 -0.4892
 4401TIP3    H237399   1.258   0.571  11.196 -2.0182  0.4771  0.6130
 4402TIP3   OH237400   0.895   2.502   9.435  0.1793  0.1792 -0.0077
 4402TIP3    H137401   0.820   2.451   9.465  0.7888  0.3472  1.9017
 4402TIP3    H237402   0.909   2.567   9.504  2.5854 -0.3739  0.1097
 4403TIP3   OH237403   3.357   2.579   8.252  0.3708 -0.5744  0.3359
 4403TIP3    H137404   3.452   2.565   8.249  0.3695 -1.2571  1.9529
 4403TIP3    H237405   3.324   2.544   8.170  1.4952 -0.5850 -0.1226
 4404TIP3   OH237406   5.856   3.940  11.568 -0.3099  0.4555 -0.4000
 4404TIP3    H137407   5.851   3.885  11.490 -0.5602  0.2593 -0.2498
 4404TIP3    H237408   5.926   4.003  11.550  0.9215 -0.7629 -0.0360
 4405TIP3   OH237409   0.143   1.202   9.199 -0.6730 -0.1304  0.1759
 4405TIP3    H137410   0.159   1.108   9.190 -0.6750 -0.3220  1.9338
 4405TIP3    H237411   0.152   1.236   9.110  1.6976 -1.4421 -0.1657
 4406TIP3   OH237412   2.947   0.168  12.386 -0.6827  0.4023  0.1170
 4406TIP3    H137413   2.870   0.172  12.329  0.1773 -1.4417 -1.3144
 4406TIP3    H237414   2.940   0.083  12.429  1.1312 -0.4073 -1.0349
 4407TIP3   OH237415   1.102   0.387   8.749 -0.2981 -0.0569  0.7585
 4407TIP3    H137416   1.122   0.379   8.656 -0.7706  0.6449  0.5860
 4407TIP3    H237417   1.088   0.297   8.778  1.6765 -0.4654  0.5881
 4408TIP3   OH237418   2.375   0.044  12.201  0.5118 -0.1404 -0.2097
 4408TIP3    H137419   2.365   0.079  12.290 -0.6930  1.8015 -1.0517
 4408TIP3    H237420   2.292  -0.001  12.183  0.0801  0.9266 -0.9443
 4409TIP3   OH237421   0.722   1.961  10.561  0.1217 -1.0848 -0.2412
 4409TIP3    H137422   0.789   1.910  10.517  0.6730 -0.7431  0.1978
 4409TIP3    H237423   0.689   1.903  10.630  0.0622 -1.1998 -0.3651
 4410TIP3   OH237424   6.373   2.020  11.668 -0.2171 -0.5345 -0.3572
 4410TIP3    H137425   6.456   2.020  11.716 -1.1023 -0.8750  1.2170
 4410TIP3    H237426   6.312   2.068  11.724 -0.6937  1.2189 -2.2579
 4411TIP3   OH237427   2.000   1.052  10.790  0.1975 -0.0330  0.2783
 4411TIP3    H137428   2.013   1.130  10.735  1.9491 -1.0449 -0.8605
 4411TIP3    H237429   2.062   1.064  10.862  0.5939 -0.4290  0.0093
 4412TIP3   OH237430   5.883   0.371   9.340  0.6009 -0.0268 -0.3385
 4412TIP3    H137431   5.860   0.462   9.358  2.0231  0.5555 -1.3596
 4412TIP3    H237432   5.804   0.334   9.299  0.1843  0.8701 -0.3677
 4413TIP3   OH237433   0.475   2.514  11.283 -0.4074 -0.4287  0.0878
 4413TIP3    H137434   0.450   2.518  11.375 -1.2754 -0.7524 -0.1278
 4413TIP3    H237435   0.406   2.561  11.237  1.0770  1.5695 -0.2282
 4414TIP3   OH237436   2.007   0.098  11.698 -0.6324 -0.3594  0.3132
 4414TIP3    H137437   1.956   0.172  11.732 -0.0316 -0.2048  0.9114
 4414TIP3    H237438   2.098   0.129  11.700 -0.4458 -0.8632 -0.1096
 4415TIP3   OH237439   0.759   1.397  10.807  0.4937 -0.2388  0.0054
 4415TIP3    H137440   0.810   1.474  10.832  0.1110  0.2222 -0.6284
 4415TIP3    H237441   0.825   1.330  10.787  0.8565  0.4188 -1.0203
 4416TIP3   OH237442   2.579   3.316  12.073  0.3557 -0.1589  0.1386
 4416TIP3    H137443   2.570   3.275  12.159  1.1316  0.7619  0.6744
 4416TIP3    H237444   2.668   3.298  12.046  0.2397 -0.0989 -0.2918
 4417TIP3   OH237445   4.487   4.996  10.842  0.0490 -0.0512 -0.0291
 4417TIP3    H137446   4.485   5.026  10.751 -0.2213  0.5893  0.1785
 4417TIP3    H237447   4.467   5.075  10.893  4.0432  0.6289  0.8272
 4418TIP3   OH237448   2.399   5.472  11.547  0.5876  1.3003 -0.4604
 4418TIP3    H137449   2.327   5.513  11.498  0.8389  0.4492 -1.5870
 4418TIP3    H237450   2.472   5.534  11.537  1.0884  0.4553 -2.5130
 4419TIP3   OH237451   4.462   6.130  11.270 -0.8116  0.5652  0.3042
 4419TIP3    H137452   4.548   6.165  11.248 -1.2023  1.0485 -0.4967
 4419TIP3    H237453   4.480   6.045  11.309 -0.0035  0.3804 -0.4409
 4420TIP3   OH237454   4.331   2.530  12.430 -0.2472  0.0542 -0.2138
 4420TIP3    H137455   4.427   2.534  12.429 -0.1858 -0.4517  1.2251
 4420TIP3    H237456   4.312   2.439  12.451 -1.1304 -0.7363 -3.8911
 4421TIP3   OH237457   5.966   2.568  11.844 -0.1213  0.1011 -0.1500
 4421TIP3    H137458   5.937   2.615  11.923  1.4775 -0.8191  1.0571
 4421TIP3    H237459   5.989   2.637  11.782 -0.5493  0.8578  0.5136
 4422TIP3   OH237460   3.976   6.488  11.584 -0.4007 -0.4589  0.7609
 4422TIP3    H137461   3.985   6.581  11.565  2.1181 -1.0340 -1.3561
 4422TIP3    H237462   4.052   6.467  11.639 -0.1227 -1.4984  0.0205
 4423TIP3   OH237463   6.251   2.992  11.235  0.3716  0.3054  0.1762
 4423TIP3    H137464   6.199   3.051  11.181 -1.7720 -1.6546 -0.0845
 4423TIP3    H237465   6.198   2.978  11.314  1.2721 -0.4733  0.6688
 4424TIP3   OH237466   2.110   1.810  11.153 -0.2523  0.5549 -0.8217
 4424TIP3    H137467   2.143   1.795  11.064  0.2346 -1.0567 -0.3968
 4424TIP3    H237468   2.167   1.757  11.209 -0.1832  1.9993  0.5294
 4425TIP3   OH237469   0.873   4.403  11.804 -0.0984 -0.7459 -0.4089
 4425TIP3    H137470   0.802   4.463  11.827  0.3007 -0.6106  0.5133
 4425TIP3    H237471   0.848   4.368  11.718  0.3842  1.8506 -1.6978
 4426TIP3   OH237472   2.406   6.446  11.002  0.1190  0.1353 -0.3533
 4426TIP3    H137473   2.433   6.363  11.040  1.1811  1.1051  1.1717
 4426TIP3    H237474   2.482   6.476  10.953  0.6273  1.2229  1.0119
 4427TIP3   OH237475   1.206   2.760  11.541 -0.7732  0.6455 -0.0524
 4427TIP3    H137476   1.199   2.842  11.589 -0.7052  0.8955 -0.4689
 4427TIP3    H237477   1.205   2.692  11.609 -0.9183  0.9842  0.2833
 4428TIP3   OH237478   4.785   1.911  12.322 -0.0596  0.2334 -0.5147
 4428TIP3    H137479   4.830   1.853  12.261 -1.2812 -1.4871  0.1094
 4428TIP3    H237480   4.811   1.879  12.409 -1.2426  0.1662 -0.1565
 4429TIP3   OH237481   5.693   3.541  11.766  0.5081  0.6539  0.6757
 4429TIP3    H137482   5.726   3.628  11.791 -0.0338  1.2173 -0.5039
 4429TIP3    H237483   5.714   3.534  11.673  0.3946 -0.4263  0.7257
 4430TIP3   OH237484   6.165   6.319  12.445  0.1427 -0.2925  0.7848
 4430TIP3    H137485   6.121   6.241  12.412 -0.8857  0.1860  0.9853
 4430TIP3    H237486   6.232   6.339  12.380  1.4339 -2.1811  1.4549
 4431TIP3   OH237487   1.781   0.432  11.420  0.3307 -0.2241 -0.3595
 4431TIP3    H137488   1.771   0.339  11.441  1.0876 -0.2386 -0.0438
 4431TIP3    H237489   1.695   0.470  11.440  0.5053 -0.5507  1.1888
 4432TIP3   OH237490   2.262   3.440  12.685 -0.2688  0.3338 -0.4105
 4432TIP3    H137491   2.251   3.513  12.624 -0.8436 -0.4383 -1.2678
 4432TIP3    H237492   2.267   3.481  12.772 -1.7197  1.3261 -0.7605
 4433TIP3   OH237493   1.547   5.792   9.286 -0.3007  0.2640  0.0496
 4433TIP3    H137494   1.617   5.802   9.223 -0.7704 -0.0050 -0.5278
 4433TIP3    H237495   1.481   5.856   9.259 -2.1345 -2.2799 -2.0310
 4434TIP3   OH237496   5.433   1.601  12.117  0.3640  0.0513  0.0186
 4434TIP3    H137497   5.366   1.666  12.138  2.9653  2.1900  2.4485
 4434TIP3    H237498   5.419   1.532  12.181  1.2921  1.1945  1.5111
 4435TIP3   OH237499   5.425   1.418  12.307  0.2334  0.1574  0.1010
 4435TIP3    H137500   5.337   1.416  12.344 -0.6017  1.3809 -1.6372
 4435TIP3    H237501   5.463   1.333  12.328 -2.2653 -1.3726 -1.1547
 4436TIP3   OH237502   5.197   1.807  11.385 -0.0938  0.0228 -0.2265
 4436TIP3    H137503   5.289   1.778  11.385 -0.4622 -1.2404 -1.9484
 4436TIP3    H237504   5.203   1.902  11.394  1.5311  0.2334 -2.7089
 4437TIP3   OH237505   4.988   2.904  10.356  0.5662  0.7461 -0.5349
 4437TIP3    H137506   4.894   2.913  10.374  0.6065 -0.8427  0.7082
 4437TIP3    H237507   4.998   2.813  10.328  1.6692  1.0581 -1.2088
 4438TIP3   OH237508   5.141   6.315  11.526  0.2871  0.0256  0.3280
 4438TIP3    H137509   5.158   6.319  11.432 -0.8741 -3.0405 -0.1468
 4438TIP3    H237510   5.102   6.399  11.548 -0.0296  0.5590 -2.0788
 4439TIP3   OH237511   0.000   4.542  10.862  0.4559  0.3822 -1.5176
 4439TIP3    H137512   0.053   4.470  10.829  0.0730 -0.6898  0.0834
 4439TIP3    H237513   0.063   4.599  10.907  0.4389 -0.2369 -0.6933
 4440TIP3   OH237514   3.046   6.160  12.219  0.1835 -0.0489 -0.0419
 4440TIP3    H137515   3.058   6.114  12.136  2.3525 -1.6625  1.0463
 4440TIP3    H237516   2.977   6.110  12.263  1.7680 -1.7468  0.6773
 4441TIP3   OH237517   2.571   0.974   9.636  0.6003  0.4066  0.2574
 4441TIP3    H137518   2.578   1.006   9.546 -0.9016 -1.4049 -0.5700
 4441TIP3    H237519   2.519   1.041   9.681  0.8719  1.0520 -0.3623
 4442TIP3   OH237520   6.297   6.049  10.460  0.6159 -0.7056 -0.3489
 4442TIP3    H137521   6.386   6.084  10.456  0.5175 -0.1439  1.4702
 4442TIP3    H237522   6.251   6.090  10.387  1.4611  0.1016 -0.4403
 4443TIP3   OH237523   4.379   1.074   8.964  0.1408  0.0609  0.5205
 4443TIP3    H137524   4.335   1.028   8.892  0.4971  0.9100 -0.2624
 4443TIP3    H237525   4.472   1.066   8.945  0.1974  2.3602 -0.4943
 4444TIP3   OH237526   0.544   0.091  11.602 -0.3380  0.3430  0.4042
 4444TIP3    H137527   0.501   0.020  11.554  1.1086  0.5800 -1.3334
 4444TIP3    H237528   0.502   0.090  11.688 -0.2714 -2.7168  0.5147
 4445TIP3   OH237529   4.493   3.518  10.708  0.0435  0.1081 -0.8785
 4445TIP3    H137530   4.518   3.491  10.797  0.2501  0.8881 -0.6945
 4445TIP3    H237531   4.444   3.443  10.674 -1.3233  0.3531  0.4362
 4446TIP3   OH237532   6.571   5.436  10.366  0.2251  0.2041 -0.1423
 4446TIP3    H137533   6.647   5.459  10.419 -1.1359  0.9079  1.5956
 4446TIP3    H237534   6.542   5.520  10.329  1.6267 -0.3595 -2.8146
 4447TIP3   OH237535   2.274   6.518  10.447 -0.1256  0.5155 -0.2298
 4447TIP3    H137536   2.337   6.588  10.461 -0.8686  0.8563  1.8607
 4447TIP3    H237537   2.225   6.513  10.529 -2.3005 -0.2436 -1.4744
 4448TIP3   OH237538   0.004   6.452   9.120 -0.6663 -0.2248 -0.6220
 4448TIP3    H137539   0.040   6.540   9.126 -0.4039 -0.3915  0.5184
 4448TIP3    H237540   0.078   6.397   9.092 -0.2911 -0.3870  0.6247
 4449TIP3   OH237541   6.361   1.830  11.253 -0.4016 -0.0479 -0.0566
 4449TIP3    H137542   6.386   1.798  11.166  2.6144  1.3973  0.1548
 4449TIP3    H237543   6.356   1.751  11.307 -0.0626 -0.7655 -1.0432
 4450TIP3   OH237544   5.659   5.156  10.531  0.5953 -0.0048  0.0087
 4450TIP3    H137545   5.600   5.118  10.466  1.2371 -0.6815 -0.1968
 4450TIP3    H237546   5.673   5.246  10.502 -1.2914  0.5801  0.7331
 4451TIP3   OH237547   2.420   1.474  11.221 -0.0496  0.2409  0.0771
 4451TIP3    H137548   2.356   1.406  11.197  1.0327 -0.8890  0.3123
 4451TIP3    H237549   2.475   1.483  11.143 -0.8567  1.6930 -0.3712
 4452TIP3   OH237550   6.462   1.362   9.552 -0.4550  0.0597  0.2370
 4452TIP3    H137551   6.519   1.411   9.493 -0.6562  0.6149  0.5012
 4452TIP3    H237552   6.380   1.352   9.504  0.2490 -1.8548 -0.6696
 4453TIP3   OH237553   0.424   6.183  11.832  0.7164  0.3790  0.0016
 4453TIP3    H137554   0.440   6.175  11.738  1.3502  4.1415 -0.3524
 4453TIP3    H237555   0.511   6.193  11.870  0.3280  1.4978  0.6257
 4454TIP3   OH237556   3.806   5.005  10.939 -0.2650  0.3211  0.7996
 4454TIP3    H137557   3.743   5.065  10.979  0.7302  1.7291  0.3801
 4454TIP3    H237558   3.833   4.947  11.010 -1.0475  0.5608  1.3063
 4455TIP3   OH237559   5.015   0.679  11.153  0.3761  0.1432  0.1310
 4455TIP3    H137560   4.965   0.629  11.217  0.0022 -0.4010 -0.5698
 4455TIP3    H237561   5.104   0.645  11.159  0.0257 -0.9864 -0.6832
 4456TIP3   OH237562   5.818   4.678  11.290 -0.4123 -0.6559 -0.2632
 4456TIP3    H137563   5.898   4.637  11.257 -1.1554 -1.5236 -1.0453
 4456TIP3    H237564   5.836   4.694  11.383  0.6070 -0.9780 -0.3928
 4457TIP3   OH237565   6.071   0.271  11.855  0.2663  0.1344 -0.5844
 4457TIP3    H137566   6.077   0.176  11.841  3.6713  0.5226 -3.2321
 4457TIP3    H237567   6.083   0.282  11.950  0.8826 -2.0650 -0.3561
 4458TIP3   OH237568   0.032   4.266  12.010 -0.2625  0.9092  0.5625
 4458TIP3    H137569   0.008   4.293  12.098  1.9912  1.3436  1.0998
 4458TIP3    H237570   0.054   4.173  12.018 -0.3743  0.8623  0.3608
 4459TIP3   OH237571   4.883   0.122   9.993  0.3050  0.1100  0.7310
 4459TIP3    H137572   4.843   0.078   9.918  0.7202  2.1395 -0.7872
 4459TIP3    H237573   4.849   0.212   9.988  2.1451  0.8908  1.5753
 4460TIP3   OH237574   3.577   0.061  11.520  0.6844 -0.5509 -0.3001
 4460TIP3    H137575   3.494   0.096  11.551  0.8391  0.5212 -1.0700
 4460TIP3    H237576   3.626   0.041  11.600 -0.3534 -1.3504  0.1615
 4461TIP3   OH237577   2.702   0.612  11.825 -0.0995 -0.1699  0.0864
 4461TIP3    H137578   2.705   0.518  11.804 -1.2779 -1.0457  3.3088
 4461TIP3    H237579   2.777   0.626  11.882 -0.7542  0.4911  0.8021
 4462TIP3   OH237580   6.308   0.468  11.665  0.4432  0.3936 -0.2729
 4462TIP3    H137581   6.323   0.532  11.735  0.9595  0.5273 -0.4995
 4462TIP3    H237582   6.293   0.386  11.710 -0.7171  0.7593  0.0450
 4463TIP3   OH237583   3.656   0.090   9.900  0.2475 -0.2379 -0.0556
 4463TIP3    H137584   3.653   0.037   9.820  0.0095  1.3409 -1.1351
 4463TIP3    H237585   3.575   0.140   9.898  1.6145  2.0770 -0.4529
 4464TIP3   OH237586   6.600   3.650   9.360 -0.2072  0.3297 -0.2777
 4464TIP3    H137587   6.687   3.609   9.356 -0.0246  0.6720  0.1521
 4464TIP3    H237588   6.542   3.586   9.320  0.0521 -0.4088  0.5096
 4465TIP3   OH237589   3.406   6.446  11.183 -0.2707 -0.0863 -0.7960
 4465TIP3    H137590   3.361   6.410  11.260  0.7860 -0.5492 -0.3765
 4465TIP3    H237591   3.447   6.526  11.214 -1.4512  0.7887 -1.3864
 4466TIP3   OH237592   0.515   3.864   9.698 -0.2107 -0.0257  0.5420
 4466TIP3    H137593   0.470   3.803   9.757 -0.3020 -0.4060  0.0879
 4466TIP3    H237594   0.602   3.873   9.736  0.4535 -1.9198 -0.3771
 4467TIP3   OH237595   3.640   6.438  11.389 -0.1167  0.0522  0.1047
 4467TIP3    H137596   3.666   6.477  11.306 -1.4901  0.3757 -0.2042
 4467TIP3    H237597   3.621   6.513  11.446 -1.3517 -0.1451 -0.0216
 4468TIP3   OH237598   6.256   6.099  12.576 -0.1845  0.1242  0.4873
 4468TIP3    H137599   6.289   6.184  12.545 -1.1365  0.1757 -0.4650
 4468TIP3    H237600   6.186   6.122  12.637 -2.1480  0.1351 -1.5907
 4469TIP3   OH237601   4.111   3.012  11.360 -0.1109 -0.0476  0.3559
 4469TIP3    H137602   4.123   3.059  11.442 -1.4014  1.1254 -0.0666
 4469TIP3    H237603   4.019   3.027  11.338  0.0734 -0.7933 -1.0172
 4470TIP3   OH237604   2.861   5.699  11.316  0.4749  0.1313 -0.4997
 4470TIP3    H137605   2.883   5.782  11.273 -0.1663 -0.1345 -1.3620
 4470TIP3    H237606   2.766   5.693  11.309  0.4127 -0.1902  0.4878
 4471TIP3   OH237607   0.475   3.904  12.437  0.5894  0.2415  0.4774
 4471TIP3    H137608   0.518   3.857  12.366  0.7198 -1.0890  1.3958
 4471TIP3    H237609   0.390   3.931  12.400  0.8297 -0.0549 -0.3092
 4472TIP3   OH237610   6.569   3.529   9.818 -0.2566 -0.5788  0.3596
 4472TIP3    H137611   6.647   3.576   9.848 -0.4356 -0.5019  0.7160
 4472TIP3    H237612   6.497   3.568   9.868 -0.5342 -0.5939 -0.0307
 4473TIP3   OH237613   2.505   2.150   8.850 -0.6436  0.6469  0.6215
 4473TIP3    H137614   2.581   2.158   8.792 -1.6058 -0.8996 -0.9226
 4473TIP3    H237615   2.430   2.146   8.792 -1.6358 -1.1657  1.9043
 4474TIP3   OH237616   1.504   4.100  10.964  0.5494  0.2673 -0.3971
 4474TIP3    H137617   1.447   4.176  10.972  0.4437  0.0052  2.3009
 4474TIP3    H237618   1.452   4.036  10.916 -0.3425  1.0368 -0.4886
 4475TIP3   OH237619   2.170   4.895  11.448 -0.3118  0.3901  0.0119
 4475TIP3    H137620   2.254   4.934  11.423 -0.1603  0.2083  0.2265
 4475TIP3    H237621   2.169   4.810  11.405  1.0344 -0.9932  2.4736
 4476TIP3   OH237622   3.579   4.304  11.512  0.9133  0.3427  0.0020
 4476TIP3    H137623   3.574   4.262  11.426  0.3401  1.4845 -0.5509
 4476TIP3    H237624   3.487   4.318  11.536  1.0911  1.4826  0.0464
 4477TIP3   OH237625   3.189   2.211  12.469 -0.2319  0.2049 -0.5416
 4477TIP3    H137626   3.114   2.229  12.412 -2.0128 -1.4708  1.1084
 4477TIP3    H237627   3.150   2.195  12.555  2.1501  0.3643  0.6469
 4478TIP3   OH237628   2.868   2.795   9.164  0.0686  0.2672  0.1343
 4478TIP3    H137629   2.800   2.790   9.231  1.9133  0.7269  2.1869
 4478TIP3    H237630   2.853   2.718   9.108 -1.0995 -0.5775  1.5358
 4479TIP3   OH237631   5.758   3.843  11.806 -0.0472 -0.2365 -0.0871
 4479TIP3    H137632   5.780   3.858  11.715 -0.2599  2.2343  0.1917
 4479TIP3    H237633   5.841   3.828  11.850  0.0283 -1.7354 -0.7043
 4480TIP3   OH237634   0.219   2.682   9.910  0.2865 -0.0396 -0.4895
 4480TIP3    H137635   0.150   2.637   9.861  1.8107 -3.9107  0.5929
 4480TIP3    H237636   0.189   2.680  10.000  1.7164 -1.8166  0.0014
 4481TIP3   OH237637   2.299   0.535   9.677  0.1902 -0.1876  0.6068
 4481TIP3    H137638   2.342   0.613   9.712  0.2873 -0.2995  0.7372
 4481TIP3    H237639   2.208   0.544   9.703 -0.1812  0.7719 -0.8986
 4482TIP3   OH237640   6.274   2.173  11.866  0.3615 -0.2960 -0.3300
 4482TIP3    H137641   6.291   2.158  11.959 -0.9762 -1.3582 -0.2315
 4482TIP3    H237642   6.240   2.262  11.862  1.3628  0.1190  0.0551
 4483TIP3   OH237643   0.427   4.188  12.030 -0.0828 -0.6193  0.4010
 4483TIP3    H137644   0.390   4.226  11.950  1.4778 -1.4948 -0.8014
 4483TIP3    H237645   0.406   4.250  12.099 -0.5045  0.7316 -0.8960
 4484TIP3   OH237646   4.460   1.006  12.432 -0.4031  0.1820  0.2453
 4484TIP3    H137647   4.370   0.990  12.403 -1.2334 -1.3466  3.2929
 4484TIP3    H237648   4.511   0.938  12.390 -0.7599  0.5588 -0.8557
 4485TIP3   OH237649   0.231   5.276   8.956  0.3979 -0.2919  0.0319
 4485TIP3    H137650   0.284   5.240   8.885  1.1927  1.2952 -0.2378
 4485TIP3    H237651   0.289   5.275   9.032  0.9229  1.5432 -0.2885
 4486TIP3   OH237652   4.929   1.066  12.065  0.6498 -0.2551 -0.8141
 4486TIP3    H137653   4.906   1.000  12.131  0.5713  0.1044 -0.4809
 4486TIP3    H237654   4.846   1.111  12.047  0.7396 -0.1301 -0.9115
 4487TIP3   OH237655   0.085   0.782  11.265 -0.1007 -0.2123  0.1674
 4487TIP3    H137656   0.013   0.772  11.203  0.9158 -1.0838 -0.9239
 4487TIP3    H237657   0.053   0.845  11.329 -0.3822  2.6147 -2.5093
 4488TIP3   OH237658   4.901   3.391   9.388  0.0188  0.7761 -0.0516
 4488TIP3    H137659   4.961   3.368   9.317  0.4972  1.0189  0.2720
 4488TIP3    H237660   4.956   3.432   9.454 -0.8230  2.9980 -0.6400
 4489TIP3   OH237661   2.734   5.608   9.340 -0.2027  0.0758 -0.2226
 4489TIP3    H137662   2.815   5.558   9.343 -1.4205 -2.0272 -0.2887
 4489TIP3    H237663   2.761   5.697   9.315  2.0771 -0.4710  0.1102
 4490TIP3   OH237664   0.742   2.969   9.915  0.2796  0.0269  0.1565
 4490TIP3    H137665   0.670   2.906   9.908  1.5265 -1.6188  1.4462
 4490TIP3    H237666   0.706   3.038   9.971 -0.4493 -0.5471  0.4250
 4491TIP3   OH237667   1.866   0.352   8.933  0.3119  0.6207  0.9269
 4491TIP3    H137668   1.960   0.363   8.947  0.7625 -1.3316 -0.0749
 4491TIP3    H237669   1.851   0.259   8.952 -1.2769  0.7536  0.3944
 4492TIP3   OH237670   2.777   1.326   8.481  0.0246  0.0592  0.0787
 4492TIP3    H137671   2.700   1.278   8.511 -1.7656  1.5861 -1.8381
 4492TIP3    H237672   2.768   1.413   8.520 -0.7525  1.1110 -2.2720
 4493TIP3   OH237673   5.452   3.514  11.003 -0.3869 -0.2231 -0.3894
 4493TIP3    H137674   5.534   3.493  11.048  0.4279  0.9471 -1.2671
 4493TIP3    H237675   5.425   3.432  10.962  1.4105 -0.2122 -1.7192
 4494TIP3   OH237676   1.796   1.105  10.206 -0.0159 -0.1594  0.1933
 4494TIP3    H137677   1.735   1.122  10.134  0.7792  0.2167 -0.4173
 4494TIP3    H237678   1.861   1.175  10.199 -0.5483  0.5688  2.0096
 4495TIP3   OH237679   3.924   2.379  10.119  0.2904  0.1479 -0.3346
 4495TIP3    H137680   3.855   2.320  10.151  0.7246 -0.1879 -0.0149
 4495TIP3    H237681   3.911   2.380  10.024  0.6039 -0.8779 -0.3956
 4496TIP3   OH237682   5.761   0.762  11.459 -0.3606 -0.2267  0.1743
 4496TIP3    H137683   5.698   0.718  11.401  0.4919 -0.6887 -0.4338
 4496TIP3    H237684   5.840   0.706  11.455 -0.9256 -1.4881  3.4664
 4497TIP3   OH237685   5.164   1.843  10.796  0.0113  0.4587 -0.5363
 4497TIP3    H137686   5.087   1.846  10.853 -0.8540 -3.5295 -1.2114
 4497TIP3    H237687   5.145   1.907  10.728 -1.7093  1.1139  0.4753
 4498TIP3   OH237688   4.297   4.167  12.287  0.1918 -0.1713  0.0816
 4498TIP3    H137689   4.262   4.113  12.216  0.6150 -1.4164  0.7785
 4498TIP3    H237690   4.347   4.236  12.242 -1.2823  0.3353 -0.8546
 4499TIP3   OH237691   2.407   4.874   9.118 -0.2620 -0.6794 -0.1797
 4499TIP3    H137692   2.394   4.859   9.024 -1.4200  0.7093 -0.2692
 4499TIP3    H237693   2.334   4.830   9.160 -0.8363  0.3375 -0.0875
 4500TIP3   OH237694   5.376   1.190   9.797  0.0917  0.1011  0.0032
 4500TIP3    H137695   5.308   1.254   9.820  0.3186  0.2350  0.3100
 4500TIP3    H237696   5.401   1.151   9.880  0.4178  0.0813 -0.1010
 4501TIP3   OH237697   4.369   2.859  10.844 -0.4479 -0.2026  0.5211
 4501TIP3    H137698   4.463   2.846  10.833 -0.3615  0.1997  0.7820
 4501TIP3    H237699   4.334   2.863  10.754 -0.4389 -1.8954  0.4145
 4502TIP3   OH237700   2.949   3.014  10.599 -0.2462  0.9097 -0.2136
 4502TIP3    H137701   2.995   3.097  10.613  0.4710  0.4771  0.0454
 4502TIP3    H237702   3.010   2.961  10.548  0.4733 -0.4675  1.9207
 4503TIP3   OH237703   1.648   4.459  11.020  0.3107  0.4061 -0.2390
 4503TIP3    H137704   1.567   4.418  11.052 -0.1291  1.7513  0.4500
 4503TIP3    H237705   1.643   4.451  10.925  0.5659 -1.6847 -0.1176
 4504TIP3   OH237706   5.475   2.821  11.074  0.1027  0.1458  0.1079
 4504TIP3    H137707   5.424   2.796  10.997 -1.6273  0.1648  1.2047
 4504TIP3    H237708   5.528   2.743  11.094 -0.7985 -0.5162 -0.0350
 4505TIP3   OH237709   4.273   1.343   9.317  0.0274  0.1046 -0.0229
 4505TIP3    H137710   4.313   1.415   9.268 -1.5912 -0.0860 -1.7683
 4505TIP3    H237711   4.322   1.339   9.399  0.5416  2.8221 -0.1052
 4506TIP3   OH237712   0.267   3.418  11.147  0.6285 -0.1707 -0.2445
 4506TIP3    H137713   0.180   3.389  11.174  0.4094  0.9091  0.2554
 4506TIP3    H237714   0.251   3.482  11.077  1.0352 -0.1435 -0.3166
 4507TIP3   OH237715   1.821   2.942  12.209  0.2604  0.1532 -0.0632
 4507TIP3    H137716   1.753   2.904  12.154 -0.3545  0.5684  0.4012
 4507TIP3    H237717   1.903   2.924  12.162 -0.0699 -1.1609 -0.1721
 4508TIP3   OH237718   4.286   4.628   9.515  0.2065 -0.5071  0.1684
 4508TIP3    H137719   4.328   4.714   9.510 -1.1332  0.1762  0.0692
 4508TIP3    H237720   4.240   4.629   9.599 -0.7010 -0.6957 -0.3171
 4509TIP3   OH237721   3.833   1.321  11.041  0.1128 -0.3219  0.1516
 4509TIP3    H137722   3.810   1.256  10.974  2.5383  1.0857 -2.2626
 4509TIP3    H237723   3.889   1.272  11.102 -1.4361 -1.4242  0.7545
 4510TIP3   OH237724   2.862   5.681   9.834  0.0335 -0.2518  0.2140
 4510TIP3    H137725   2.782   5.728   9.810 -0.1414  0.4821  2.0295
 4510TIP3    H237726   2.855   5.597   9.788 -1.1059  0.3375 -0.7438
 4511TIP3   OH237727   4.353   3.564  10.213  0.0537  0.6523  0.3417
 4511TIP3    H137728   4.318   3.646  10.247  0.8752  0.3824  1.9121
 4511TIP3    H237729   4.444   3.585  10.190  0.5955 -0.0491  1.7516
 4512TIP3   OH237730   0.524   0.007  11.875  0.8129 -0.0049  0.2666
 4512TIP3    H137731   0.583  -0.059  11.912  0.7565 -0.3894 -0.3152
 4512TIP3    H237732   0.513   0.071  11.945  2.1696  0.2390  0.2948
 4513TIP3   OH237733   3.148   3.734   8.842  0.6372 -0.1135 -0.3481
 4513TIP3    H137734   3.053   3.744   8.840  0.1101 -2.3920  3.2135
 4513TIP3    H237735   3.180   3.818   8.876 -0.5914 -0.4672  1.9067
 4514TIP3   OH237736   4.252   3.134  11.170 -0.5126  0.3958 -0.3055
 4514TIP3    H137737   4.306   3.157  11.246  1.2717  0.6339 -1.5977
 4514TIP3    H237738   4.188   3.072  11.205 -0.8787  1.8026  1.7484
 4515TIP3   OH237739   4.505   1.306   9.492 -0.4183 -0.0631  0.6101
 4515TIP3    H137740   4.566   1.360   9.543  0.2476 -2.7926  2.9630
 4515TIP3    H237741   4.537   1.312   9.402  0.1525  2.6186  0.8887
 4516TIP3   OH237742   5.374   3.048  11.835  0.2431  0.0053 -0.3830
 4516TIP3    H137743   5.453   3.002  11.863 -1.0127 -2.2347 -0.3078
 4516TIP3    H237744   5.374   3.041  11.740  0.2303  0.1971 -0.3983
 4517TIP3   OH237745   3.543   2.193  10.612  0.0117  0.3551  0.3143
 4517TIP3    H137746   3.543   2.105  10.649  2.4141 -0.3211 -1.1241
 4517TIP3    H237747   3.628   2.202  10.569 -1.4972  2.0842 -2.6467
 4518TIP3   OH237748   5.547   0.633   9.964  0.4745 -0.5889 -0.0947
 4518TIP3    H137749   5.457   0.630   9.931  0.4134 -1.0636  0.1079
 4518TIP3    H237750   5.542   0.591  10.050  0.3852  1.7910  1.1280
 4519TIP3   OH237751   0.822   1.181  10.631  0.8434  0.0670  0.1278
 4519TIP3    H137752   0.908   1.203  10.666  1.4661 -2.0644  0.1236
 4519TIP3    H237753   0.777   1.141  10.706 -0.4425  1.8028  0.3267
 4520TIP3   OH237754   4.984   3.745   9.622 -0.9144  0.2598  0.5234
 4520TIP3    H137755   4.923   3.810   9.658 -1.6588 -0.8101  1.2692
 4520TIP3    H237756   5.059   3.747   9.682  0.0914  1.9451 -0.6804
 4521TIP3   OH237757   5.899   6.065  11.434 -0.3838 -0.0430 -0.2237
 4521TIP3    H137758   5.982   6.022  11.452 -0.5508 -0.0380  0.5732
 4521TIP3    H237759   5.878   6.039  11.344 -1.2275 -2.8545  0.6885
 4522TIP3   OH237760   1.638   2.058  12.413  0.7612  0.6328 -0.3677
 4522TIP3    H137761   1.683   2.140  12.393  1.3132  1.0117  2.0887
 4522TIP3    H237762   1.546   2.083  12.423  0.9926  1.0802  0.8170
 4523TIP3   OH237763   2.639   1.179  10.202 -0.3345 -0.2034  0.1785
 4523TIP3    H137764   2.621   1.086  10.196  1.2249 -0.4833 -0.9798
 4523TIP3    H237765   2.636   1.210  10.111 -1.3110  0.9896  0.5846
 4524TIP3   OH237766   3.507   1.897  10.703  0.3299 -0.6382  0.0298
 4524TIP3    H137767   3.506   1.841  10.781  1.1697 -1.1676 -0.3243
 4524TIP3    H237768   3.567   1.853  10.643 -0.3125 -0.2406 -0.9253
 4525TIP3   OH237769   0.887   0.405  12.280 -0.9375 -0.3084  0.4526
 4525TIP3    H137770   0.794   0.413  12.258 -1.2285 -1.2241  1.2687
 4525TIP3    H237771   0.889   0.408  12.375 -0.0294  0.5006  0.4265
 4526TIP3   OH237772   3.562   4.575  12.560 -0.1364  0.0671  0.0118
 4526TIP3    H137773   3.567   4.570  12.464 -0.1793  2.4964 -0.1600
 4526TIP3    H237774   3.549   4.484  12.587 -1.7905 -0.5217 -2.3856
 4527TIP3   OH237775   3.500   4.301  10.700  0.0953 -0.1910  0.6215
 4527TIP3    H137776   3.423   4.265  10.655 -0.0608 -1.0526  1.5283
 4527TIP3    H237777   3.470   4.386  10.734 -0.7260 -0.8350  1.5954
 4528TIP3   OH237778   1.415   5.316  10.008  0.2163  0.5347  0.5943
 4528TIP3    H137779   1.379   5.227  10.014  2.3212 -0.4700 -0.6780
 4528TIP3    H237780   1.452   5.332  10.095  2.1305 -0.9414  0.1172
 4529TIP3   OH237781   2.382   6.292  11.767 -0.4571 -0.0884  0.9914
 4529TIP3    H137782   2.459   6.286  11.710 -1.0832  1.0064  0.0099
 4529TIP3    H237783   2.360   6.385  11.769 -1.7331 -0.3827  1.3053
 4530TIP3   OH237784   2.482   0.711  11.947  0.6379  0.1370  0.5725
 4530TIP3    H137785   2.476   0.806  11.937  1.4441  0.5410  3.1893
 4530TIP3    H237786   2.566   0.688  11.908  0.8860  0.6334  0.8136
 4531TIP3   OH237787   3.527   3.897  11.471  0.2668  0.5859  0.0774
 4531TIP3    H137788   3.559   3.873  11.383  2.0033 -0.7141  0.9938
 4531TIP3    H237789   3.434   3.875  11.469 -0.2093  2.4326 -2.0284
 4532TIP3   OH237790   3.568   1.247   9.503 -0.0515 -0.5968  0.2136
 4532TIP3    H137791   3.491   1.275   9.553 -0.3024 -0.7151 -0.1053
 4532TIP3    H237792   3.577   1.154   9.524 -0.4934 -0.7852 -0.3913
 4533TIP3   OH237793   4.574   2.552  11.240 -0.0794 -0.0892  0.0039
 4533TIP3    H137794   4.576   2.563  11.145  0.3855  0.7284  0.1034
 4533TIP3    H237795   4.498   2.603  11.269 -0.3683 -0.5407  0.0486
 4534TIP3   OH237796   3.442   2.008   9.755  0.2519 -0.4897  0.0412
 4534TIP3    H137797   3.448   2.100   9.779 -0.9362 -0.9871  2.6538
 4534TIP3    H237798   3.456   2.006   9.661  1.2359  2.2329  0.0548
 4535TIP3   OH237799   2.403   5.463  12.391 -0.1586 -0.0735  0.2667
 4535TIP3    H137800   2.489   5.436  12.359  0.5050  1.0098  1.0618
 4535TIP3    H237801   2.408   5.451  12.486  0.1449  2.5896  0.6664
 4536TIP3   OH237802   4.450   4.530  12.306 -0.0004 -0.3611  0.3421
 4536TIP3    H137803   4.492   4.600  12.257  2.6379 -0.6460  2.0014
 4536TIP3    H237804   4.417   4.572  12.385 -2.3103 -0.3043 -0.5553
 4537TIP3   OH237805   5.185   1.110  10.298 -0.2406 -0.3669 -0.2106
 4537TIP3    H137806   5.258   1.100  10.237 -0.6857 -0.4072 -0.7413
 4537TIP3    H237807   5.172   1.022  10.334 -0.1952 -0.4128 -0.3067
 4538TIP3   OH237808   2.636   4.935  11.122 -0.3250 -0.2753 -0.6729
 4538TIP3    H137809   2.601   4.942  11.033 -0.5789  1.8508 -0.4459
 4538TIP3    H237810   2.669   5.022  11.142 -1.0748 -0.4560  1.6551
 4539TIP3   OH237811   2.166   0.917  12.040  0.2782 -0.1706  0.2569
 4539TIP3    H137812   2.135   0.851  11.977  0.9950  0.3259 -0.6280
 4539TIP3    H237813   2.210   0.983  11.987  2.5777 -0.6638  1.4341
 4540TIP3   OH237814   3.766   3.356  10.808  0.2560  0.0494 -0.3937
 4540TIP3    H137815   3.771   3.274  10.758  0.3217  0.1459 -0.5487
 4540TIP3    H237816   3.836   3.349  10.872 -0.8501 -0.7814  0.7695
 4541TIP3   OH237817   2.960   4.004  10.216 -0.2471 -0.3824 -0.0444
 4541TIP3    H137818   2.866   4.020  10.221  0.0308  1.2876  0.1720
 4541TIP3    H237819   2.985   4.030  10.127  0.4851  2.1393  0.8234
 4542TIP3   OH237820   3.977   0.456  12.315 -0.5223 -0.5511  0.5734
 4542TIP3    H137821   3.983   0.477  12.408 -2.2995  0.9405  0.4119
 4542TIP3    H237822   3.888   0.421  12.304 -0.9959  0.9469 -0.8012
 4543TIP3   OH237823   3.642   1.581   9.149  0.2856  0.0770  0.0244
 4543TIP3    H137824   3.585   1.553   9.078 -1.3292  1.8671  0.5540
 4543TIP3    H237825   3.730   1.561   9.118 -0.5324 -2.0063 -1.1587
 4544TIP3   OH237826   5.954   5.965   8.961  0.2531 -0.4220  0.3646
 4544TIP3    H137827   5.987   6.051   8.933 -2.8237  0.8350  0.2320
 4544TIP3    H237828   5.948   5.915   8.880 -0.7452  0.3203 -0.0431
 4545TIP3   OH237829   0.868   5.139  10.316 -0.0089 -0.0426 -0.0277
 4545TIP3    H137830   0.919   5.184  10.385 -0.4945 -0.0128  0.3157
 4545TIP3    H237831   0.808   5.083  10.364 -0.2776 -0.1027 -0.4368
 4546TIP3   OH237832   6.295   4.282  10.518  0.1497  0.1984  0.2199
 4546TIP3    H137833   6.341   4.252  10.439  1.3233  1.5295  0.3544
 4546TIP3    H237834   6.360   4.274  10.588 -0.1649  1.1246  0.6234
 4547TIP3   OH237835   1.448   3.171  10.482  0.9164 -0.0508 -0.0699
 4547TIP3    H137836   1.485   3.227  10.413  0.0730  0.9681  0.2708
 4547TIP3    H237837   1.415   3.094  10.435  0.5531  0.5293 -0.7977
 4548TIP3   OH237838   4.080   3.991   9.971 -0.0051  0.3966 -0.1257
 4548TIP3    H137839   4.051   4.023   9.886 -0.7417  0.6585  0.2117
 4548TIP3    H237840   4.075   3.896   9.963  0.9986  0.3773 -0.7245
 4549TIP3   OH237841   2.878   1.007  11.920 -0.2250 -0.2499  0.4721
 4549TIP3    H137842   2.783   1.006  11.931 -0.6915  3.3809 -1.8169
 4549TIP3    H237843   2.909   1.079  11.975  1.3225 -1.5531  1.4093
 4550TIP3   OH237844   3.724   3.591  11.798  0.0403 -0.0612 -0.0360
 4550TIP3    H137845   3.755   3.608  11.887  1.4676  0.0712 -0.5366
 4550TIP3    H237846   3.700   3.499  11.798 -0.8683  0.1612  0.7321
 4551TIP3   OH237847   2.194   3.823  11.219 -0.2361 -0.4280 -0.4476
 4551TIP3    H137848   2.108   3.853  11.250  0.5820  1.1034  0.4495
 4551TIP3    H237849   2.192   3.728  11.232 -1.8349 -0.4442 -0.5685
 4552TIP3   OH237850   0.341   4.973   8.811  0.1372 -0.0671  0.1200
 4552TIP3    H137851   0.322   5.062   8.780 -2.5846 -0.0672  1.4807
 4552TIP3    H237852   0.409   4.941   8.752 -0.1850  2.2090 -1.6330
 4553TIP3   OH237853   4.371   4.757  10.851  1.0637 -0.5508 -0.2942
 4553TIP3    H137854   4.341   4.749  10.760  1.7585  1.4099 -0.7371
 4553TIP3    H237855   4.396   4.849  10.860  1.7223 -0.8849  1.6755
 4554TIP3   OH237856   0.059   6.149   9.238 -0.3318 -0.5645  0.6221
 4554TIP3    H137857   0.083   6.058   9.217  0.1477 -0.2392 -0.2713
 4554TIP3    H237858   0.132   6.201   9.205 -0.1373  0.0830  1.9895
 4555TIP3   OH237859   1.934   5.028  10.383  0.2545  0.0443  0.1125
 4555TIP3    H137860   1.950   4.936  10.365 -0.6917 -0.0753 -0.1961
 4555TIP3    H237861   1.843   5.031  10.413 -0.1876  1.0421 -1.2486
 4556TIP3   OH237862   5.799   2.315  12.406  0.0045  0.3505  0.2461
 4556TIP3    H137863   5.848   2.234  12.396  0.1001  0.6306 -2.1462
 4556TIP3    H237864   5.710   2.292  12.381 -0.2551  0.7126  0.8154
 4557TIP3   OH237865   6.078   1.615  12.335 -0.0357  0.5042  0.3139
 4557TIP3    H137866   6.019   1.664  12.277 -0.0789  0.8881  0.6756
 4557TIP3    H237867   6.027   1.603  12.415  0.5948  1.3645  0.8523
 4558TIP3   OH237868   1.837   1.249   8.559 -0.1889 -0.2221  0.2587
 4558TIP3    H137869   1.753   1.259   8.515 -0.4530 -0.9151  0.5788
 4558TIP3    H237870   1.898   1.224   8.490 -0.5377 -1.0186  0.2222
 4559TIP3   OH237871   1.086   1.613  10.024 -0.1282  0.1897 -0.1260
 4559TIP3    H137872   0.999   1.605   9.986  0.6664  0.4804 -2.1714
 4559TIP3    H237873   1.114   1.523  10.040 -0.1478 -0.0155 -1.1549
 4560TIP3   OH237874   4.190   4.587  10.472 -0.1231 -0.2662  0.3437
 4560TIP3    H137875   4.124   4.527  10.438 -0.7591  0.3027  0.5467
 4560TIP3    H237876   4.163   4.603  10.563  0.0128  0.3471  0.2839
 4561TIP3   OH237877   6.264   1.059  11.818  0.5957  0.1411 -0.0654
 4561TIP3    H137878   6.178   1.020  11.798  0.6111  0.7974 -1.5569
 4561TIP3    H237879   6.246   1.121  11.889  0.3226 -1.5063  1.3696
 4562TIP3   OH237880   0.447   0.490  10.449 -0.2598 -0.6059  1.0180
 4562TIP3    H137881   0.515   0.427  10.473  0.2326 -0.1427  0.8620
 4562TIP3    H237882   0.369   0.437  10.434  0.5203 -1.3514 -0.6232
 4563TIP3   OH237883   0.271   5.257   9.552  0.5936  0.2362 -0.4543
 4563TIP3    H137884   0.342   5.319   9.568  1.4240 -0.6377 -0.6470
 4563TIP3    H237885   0.313   5.185   9.503 -0.0044 -1.1446  0.9737
 4564TIP3   OH237886   3.167   4.282  11.211 -0.4430  0.6708  0.7388
 4564TIP3    H137887   3.190   4.195  11.244 -0.0709  1.1599  1.7925
 4564TIP3    H237888   3.165   4.271  11.116 -1.5243 -0.7639  0.8882
 4565TIP3   OH237889   4.289   6.315  10.156  0.1687 -0.0124 -0.2256
 4565TIP3    H137890   4.209   6.267  10.139  1.1013 -2.0676  0.8100
 4565TIP3    H237891   4.356   6.269  10.106  0.7264  1.7286 -1.1660
 4566TIP3   OH237892   0.174   3.534   9.209 -0.4098 -0.0196 -0.2145
 4566TIP3    H137893   0.156   3.440   9.203  0.3599 -0.2571  0.8058
 4566TIP3    H237894   0.230   3.552   9.133  0.5277 -0.6804  0.2933
 4567TIP3   OH237895   1.419   5.626  11.746 -0.6807  0.3897 -0.4372
 4567TIP3    H137896   1.338   5.612  11.795 -0.6503 -1.6490 -0.8953
 4567TIP3    H237897   1.487   5.585  11.799 -0.2543  0.3513 -1.0042
 4568TIP3   OH237898   5.168   5.451  10.874  0.1442  0.7133 -0.3579
 4568TIP3    H137899   5.228   5.427  10.944  1.6506  1.0117 -1.4921
 4568TIP3    H237900   5.081   5.436  10.910  0.9104 -1.7806  0.6325
 4569TIP3   OH237901   0.019   5.954   9.631 -0.5857 -0.2501 -0.6755
 4569TIP3    H137902   0.050   5.875   9.587  0.6169  0.4009 -1.0455
 4569TIP3    H237903  -0.044   5.993   9.570  0.2367  0.0585 -1.3439
 4570TIP3   OH237904   0.070   1.997  10.534 -0.2664 -0.2782 -0.2017
 4570TIP3    H137905   0.038   2.063  10.473 -2.0361 -2.4168 -1.7636
 4570TIP3    H237906   0.050   2.032  10.620 -0.1535  1.6636 -0.9240
 4571TIP3   OH237907   3.381   0.141   9.808 -0.2864  0.6796 -0.7329
 4571TIP3    H137908   3.291   0.130   9.778 -1.2135  0.0769  1.9826
 4571TIP3    H237909   3.374   0.155   9.902  2.5244 -0.7541 -0.1702
 4572TIP3   OH237910   4.615   6.544   9.879 -0.3364  0.3228 -0.7503
 4572TIP3    H137911   4.562   6.514   9.805  1.0380 -0.3454 -1.4997
 4572TIP3    H237912   4.684   6.479   9.887 -0.0129  0.8022  0.6443
 4573TIP3   OH237913   6.226   1.370  12.274 -0.1975 -0.4686  0.2013
 4573TIP3    H137914   6.175   1.445  12.303 -1.3561 -0.1846 -2.3471
 4573TIP3    H237915   6.300   1.408  12.227  0.3043 -0.9211  0.6176
 4574TIP3   OH237916   5.878   0.859  10.204  0.4558 -0.1033 -0.2046
 4574TIP3    H137917   5.841   0.873  10.117  0.2292 -0.4352 -0.1650
 4574TIP3    H237918   5.813   0.806  10.249  0.1005  0.9248  0.5150
 4575TIP3   OH237919   1.010   3.215  10.071  0.4525  0.3449  0.6927
 4575TIP3    H137920   1.029   3.128  10.107  0.7875 -0.8904 -2.1315
 4575TIP3    H237921   0.955   3.257  10.136  1.7691 -1.2639  2.9938
 4576TIP3   OH237922   2.638   6.159  11.493  0.2963  0.0957 -0.3797
 4576TIP3    H137923   2.635   6.231  11.557 -0.8817  0.0096 -0.3247
 4576TIP3    H237924   2.634   6.202  11.408  1.1568  0.1684 -0.3971
 4577TIP3   OH237925   1.043   1.247  10.803 -0.6857  0.1834 -0.0384
 4577TIP3    H137926   1.085   1.268  10.887  0.3157  0.4858 -0.6012
 4577TIP3    H237927   1.106   1.191  10.758 -1.4488 -0.4148 -0.3877
 4578TIP3   OH237928   1.318   5.030  12.557  0.7503  0.3333  0.1890
 4578TIP3    H137929   1.371   5.085  12.500  0.7838 -0.4020 -0.5074
 4578TIP3    H237930   1.271   5.092  12.614  0.3638  1.1013 -0.9373
 4579TIP3   OH237931   4.216   2.913  12.480 -0.3217  0.0611 -0.1049
 4579TIP3    H137932   4.168   2.831  12.492 -1.4211  0.6595 -0.2061
 4579TIP3    H237933   4.154   2.981  12.507  0.6179  0.8520  0.1170
 4580TIP3   OH237934   4.012   5.517  12.486  0.4350 -0.1985 -0.2150
 4580TIP3    H137935   3.951   5.590  12.478  0.0411 -0.3439  1.0903
 4580TIP3    H237936   4.007   5.471  12.402  0.3901  1.0340 -0.9054
 4581TIP3   OH237937   2.877   1.854  12.541 -0.0514  0.2719  0.2603
 4581TIP3    H137938   2.800   1.873  12.488  0.2576 -1.5192 -0.9046
 4581TIP3    H237939   2.846   1.794  12.609  0.3759 -0.8905 -0.5373
 4582TIP3   OH237940   2.002   0.406  10.492 -0.2412  0.2028  0.1862
 4582TIP3    H137941   1.936   0.470  10.517  0.0889  1.6128 -2.1949
 4582TIP3    H237942   1.969   0.323  10.525 -1.7854  1.2755  1.4678
 4583TIP3   OH237943   1.341   0.821  10.695  0.1501  0.0844 -0.4572
 4583TIP3    H137944   1.334   0.734  10.656  1.8766 -0.6606  0.7318
 4583TIP3    H237945   1.325   0.806  10.789  0.0042  1.1404 -0.2996
 4584TIP3   OH237946   4.482   0.931  10.996 -0.4551  0.0082 -0.0534
 4584TIP3    H137947   4.519   0.955  10.911  3.5638  0.0786  1.5326
 4584TIP3    H237948   4.455   1.014  11.035 -0.2827  0.2203 -0.3842
 4585TIP3   OH237949   4.438   5.189  11.041  0.2231 -0.8210 -0.3823
 4585TIP3    H137950   4.486   5.114  11.077  0.8134  0.1174  0.9028
 4585TIP3    H237951   4.354   5.187  11.086  0.0719 -0.9743 -0.6767
 4586TIP3   OH237952   1.557   3.747  10.119  0.7718 -0.2586  0.2080
 4586TIP3    H137953   1.494   3.785  10.180 -0.2038  0.0619 -0.9545
 4586TIP3    H237954   1.642   3.776  10.151  0.3509 -0.5995  1.7525
 4587TIP3   OH237955   4.527   6.018   9.145 -0.1574 -0.1934 -0.1218
 4587TIP3    H137956   4.596   6.012   9.210 -1.8215  0.6670  1.8611
 4587TIP3    H237957   4.534   6.107   9.110  0.7639 -0.6700 -1.1958
 4588TIP3   OH237958   0.571   5.731  11.017  0.0697  0.0157 -0.1396
 4588TIP3    H137959   0.535   5.697  11.099 -0.9335 -4.0618 -2.0008
 4588TIP3    H237960   0.496   5.773  10.974 -0.1730 -0.4227 -0.1576
 4589TIP3   OH237961   6.482   0.250  12.207 -0.0565  0.0523  0.0179
 4589TIP3    H137962   6.425   0.196  12.152 -0.4507  0.9596 -0.4920
 4589TIP3    H237963   6.447   0.240  12.295 -1.2898  0.9297 -0.3447
 4590TIP3   OH237964   2.883   6.084   9.065 -0.5430 -0.0500  0.3455
 4590TIP3    H137965   2.789   6.102   9.075 -0.8269  0.0838 -1.9277
 4590TIP3    H237966   2.902   6.109   8.974  2.1476  1.7920  1.3047
 4591TIP3   OH237967   2.493   0.539  11.174  1.0508  0.1116  0.3857
 4591TIP3    H137968   2.493   0.554  11.079 -0.9189  1.3708  0.5372
 4591TIP3    H237969   2.521   0.448  11.184 -0.5521 -0.6585 -1.5333
 4592TIP3   OH237970   4.810   0.879  11.111  0.0472  0.1980  0.2047
 4592TIP3    H137971   4.800   0.973  11.127 -0.4496  0.2960 -0.6131
 4592TIP3    H237972   4.898   0.870  11.074 -0.1523  0.4357 -0.3373
 4593TIP3   OH237973   1.316   1.079  12.004 -0.3839 -0.3069  0.5235
 4593TIP3    H137974   1.262   1.144  11.959 -0.9622 -0.6604  0.6999
 4593TIP3    H237975   1.268   0.997  11.995  0.6954 -0.8655 -0.3244
 4594TIP3   OH237976   5.218   3.106  11.127  0.2256  0.0072  0.0364
 4594TIP3    H137977   5.174   3.048  11.065 -0.7404  0.2212  0.5025
 4594TIP3    H237978   5.191   3.076  11.213 -0.1281  1.0032  0.2912
 4595TIP3   OH237979   6.358   2.334  11.517  0.4955 -0.2871 -0.2372
 4595TIP3    H137980   6.301   2.257  11.521  0.2190 -0.0773 -0.0127
 4595TIP3    H237981   6.323   2.385  11.444  1.6826 -1.1373 -1.4599
 4596TIP3   OH237982   6.452   6.257  11.355  0.0127  0.1064 -0.2782
 4596TIP3    H137983   6.548   6.255  11.357  0.0928  0.3840 -2.0309
 4596TIP3    H237984   6.426   6.167  11.371  0.5596  0.0316  0.2268
 4597TIP3   OH237985   0.305   4.908   9.885 -0.0143  0.3808 -0.8488
 4597TIP3    H137986   0.267   4.983   9.838  1.3182  0.3149 -2.1121
 4597TIP3    H237987   0.352   4.859   9.817  1.4511 -0.0831  0.4505
 4598TIP3   OH237988   4.904   5.696  10.605 -0.0149 -0.6458  0.6531
 4598TIP3    H137989   4.812   5.670  10.616 -0.0624 -0.5644  0.4573
 4598TIP3    H237990   4.899   5.780  10.559  0.0295  1.0031  3.4013
 4599TIP3   OH237991   3.042   1.679   9.862 -0.5318  0.1559 -0.2760
 4599TIP3    H137992   3.053   1.703   9.770  2.9711 -1.5868 -0.4953
 4599TIP3    H237993   3.045   1.583   9.862  0.7838  0.1404  1.6861
 4600TIP3   OH237994   5.200   0.921   9.220  0.3178  0.4624  0.0899
 4600TIP3    H137995   5.181   0.855   9.153 -2.8481  0.7929  0.5149
 4600TIP3    H237996   5.168   1.003   9.183  1.5428  1.2735  0.7565
 4601TIP3   OH237997   1.678   3.578   9.067 -0.0641 -0.3651  0.8148
 4601TIP3    H137998   1.762   3.545   9.097  0.5101  0.2398 -0.0973
 4601TIP3    H237999   1.658   3.651   9.125  0.1203 -0.4002  0.9215
 4602TIP3   OH238000   1.236   4.291  10.668  0.3499 -0.2698  0.1562
 4602TIP3    H138001   1.321   4.333  10.657  0.8995 -1.1606  0.7731
 4602TIP3    H238002   1.184   4.354  10.718  1.6611 -0.8601  2.4295
 4603TIP3   OH238003   3.644   5.521  12.520 -0.2943  0.0578 -0.0560
 4603TIP3    H138004   3.710   5.589  12.507  0.2658 -0.1282  1.6707
 4603TIP3    H238005   3.561   5.566  12.505  0.0985  0.9770  0.4260
 4604TIP3   OH238006   5.592   5.526  11.202  0.0912 -0.5850  0.0102
 4604TIP3    H138007   5.518   5.560  11.252  0.9221  0.1084  0.8089
 4604TIP3    H238008   5.558   5.516  11.113 -0.8118  0.2158  0.2433
 4605TIP3   OH238009   4.490   1.608  12.043 -0.4119  0.3723 -0.5814
 4605TIP3    H138010   4.410   1.647  12.007  0.2594  1.6983 -0.7170
 4605TIP3    H238011   4.546   1.592  11.967 -0.2613  0.1507 -0.4248
 4606TIP3   OH238012   1.743   2.260   9.642 -0.1620  0.5046 -0.0766
 4606TIP3    H138013   1.823   2.277   9.593 -1.0384 -0.2616 -1.8914
 4606TIP3    H238014   1.713   2.175   9.610 -0.6873 -0.1530  2.0031
 4607TIP3   OH238015   2.725   2.006  12.390 -0.1750  0.8599  0.0090
 4607TIP3    H138016   2.644   2.053  12.409  0.2377  1.1350  1.1266
 4607TIP3    H238017   2.777   2.067  12.337 -0.2641  1.0861  0.1813
 4608TIP3   OH238018   0.151   4.013  12.058 -0.3250  0.6944 -0.0753
 4608TIP3    H138019   0.245   3.992  12.060 -0.6368 -0.7939  0.1278
 4608TIP3    H238020   0.115   3.954  11.992 -1.1773  1.0231  0.0877
 4609TIP3   OH238021   5.612   2.965   9.801  0.3730  0.0322  0.2542
 4609TIP3    H138022   5.557   3.043   9.807  0.5200  0.1036  0.6919
 4609TIP3    H238023   5.635   2.945   9.891 -0.5289 -1.1423  0.2431
 4610TIP3   OH238024   2.828   1.008  10.492  0.3785 -0.4070  0.2146
 4610TIP3    H138025   2.856   1.099  10.505  0.0710 -0.4045  0.9001
 4610TIP3    H238026   2.898   0.955  10.530  1.4729 -0.5430 -1.8235
 4611TIP3   OH238027   3.931   5.080  10.384 -0.0792 -0.6703 -0.4511
 4611TIP3    H138028   3.992   5.137  10.430  0.1918  0.2520 -1.8723
 4611TIP3    H238029   3.858   5.137  10.359  0.6118 -0.6791 -2.6827
 4612TIP3   OH238030   1.412   4.396   9.216  0.2550  0.6145  0.6281
 4612TIP3    H138031   1.338   4.423   9.270 -1.0604  0.5082 -1.0210
 4612TIP3    H238032   1.372   4.358   9.138  2.0674 -1.1465  0.4751
 4613TIP3   OH238033   4.007   3.111  12.209 -0.4736  0.2786  0.5996
 4613TIP3    H138034   4.011   3.039  12.146  0.8063  0.4590  0.4378
 4613TIP3    H238035   3.949   3.079  12.278 -2.3145  0.2739 -0.8712
 4614TIP3   OH238036   4.653   2.133  11.636  0.1608 -0.6551 -0.3283
 4614TIP3    H138037   4.610   2.212  11.667  1.0050 -0.8953  1.6125
 4614TIP3    H238038   4.739   2.162  11.607 -0.5000 -0.4866 -2.2742
 4615TIP3   OH238039   3.321   4.263  11.557  0.2542 -0.4682 -0.2122
 4615TIP3    H138040   3.231   4.290  11.543  0.2537 -0.7642 -0.7992
 4615TIP3    H238041   3.338   4.283  11.649  0.2227  1.3945 -0.5884
 4616TIP3   OH238042   1.518   4.698  12.358 -0.2767 -0.2808  0.5351
 4616TIP3    H138043   1.544   4.607  12.342 -1.0783 -0.4652  0.2537
 4616TIP3    H238044   1.443   4.712  12.300  0.2336  0.7620  0.1216
 4617TIP3   OH238045   6.555   0.465  11.444 -0.0296 -0.0914 -0.0454
 4617TIP3    H138046   6.523   0.380  11.472  0.2311  0.0739  0.7903
 4617TIP3    H238047   6.493   0.528  11.480 -0.4266  0.0592 -0.9705
 4618TIP3   OH238048   1.590   2.476  11.818  0.3063  0.4934  0.1049
 4618TIP3    H138049   1.569   2.501  11.728 -0.0809 -0.3645 -0.0567
 4618TIP3    H238050   1.600   2.381  11.814  1.3153  0.5646  0.7747
 4619TIP3   OH238051   1.740   2.124  11.349  0.1655 -0.9510 -0.0157
 4619TIP3    H138052   1.758   2.171  11.430  0.4431 -0.6369 -0.2572
 4619TIP3    H238053   1.646   2.104  11.353  0.5649 -2.9262  1.4390
 4620TIP3   OH238054   1.966   6.265  10.604 -0.6405 -0.0273 -0.4217
 4620TIP3    H138055   2.057   6.295  10.593 -0.6286  0.1301  0.0826
 4620TIP3    H238056   1.968   6.173  10.575 -0.3289 -0.0156 -0.4482
 4621TIP3   OH238057   2.340   2.397  11.619  0.0509 -0.1686 -0.7782
 4621TIP3    H138058   2.394   2.330  11.659  0.5398  0.1954 -0.8206
 4621TIP3    H238059   2.272   2.348  11.571  0.6857 -0.6411 -1.2037
 4622TIP3   OH238060   0.092   1.602  12.037  0.2409  0.6248 -0.6446
 4622TIP3    H138061   0.131   1.541  11.974 -2.4052 -0.4942 -1.3421
 4622TIP3    H238062   0.033   1.548  12.089  1.1425  1.8342  1.7796
 4623TIP3   OH238063   1.045   3.682   9.345 -0.1592 -0.4733  0.1827
 4623TIP3    H138064   1.097   3.722   9.275 -0.6679 -1.2197 -0.6366
 4623TIP3    H238065   0.955   3.710   9.327 -0.3434 -0.9708  0.3317
 4624TIP3   OH238066   4.577   4.056   9.363  0.6698  0.2483 -0.1965
 4624TIP3    H138067   4.626   4.074   9.282  1.1042  0.7459  0.1728
 4624TIP3    H238068   4.490   4.092   9.346 -0.2819 -2.4346 -1.6409
 4625TIP3   OH238069   3.705   1.534  11.187  0.3964 -0.7046  0.6249
 4625TIP3    H138070   3.722   1.617  11.142  0.7025 -0.7554  0.6513
 4625TIP3    H238071   3.758   1.470  11.140 -0.8087 -1.1342 -0.2255
 4626TIP3   OH238072   6.373   4.887   9.854  0.1004  0.0563  0.1905
 4626TIP3    H138073   6.448   4.882   9.795 -0.7116  1.2460 -1.0152
 4626TIP3    H238074   6.403   4.942   9.926  0.0568  1.5793 -0.8943
 4627TIP3   OH238075   4.570   4.847  11.455  0.7913  0.5735 -0.2988
 4627TIP3    H138076   4.578   4.752  11.468  0.1537  0.3317 -1.4976
 4627TIP3    H238077   4.535   4.880  11.537 -2.4861 -0.7617 -1.0295
 4628TIP3   OH238078   4.201   2.165   9.119  0.1773  0.0890  0.5165
 4628TIP3    H138079   4.200   2.132   9.029 -0.1280  1.5320 -0.0489
 4628TIP3    H238080   4.153   2.100   9.169 -0.3207 -0.3708 -0.5197
 4629TIP3   OH238081   1.098   0.194  12.131 -0.4652  0.6084 -0.0502
 4629TIP3    H138082   1.164   0.208  12.198  0.2639  0.3567 -0.7038
 4629TIP3    H238083   1.036   0.266  12.143  1.4811  2.6366 -1.2850
 4630TIP3   OH238084   1.632   4.958  12.289  0.6415  0.1192  0.4637
 4630TIP3    H138085   1.618   4.871  12.326  0.5139 -0.5514 -1.0998
 4630TIP3    H238086   1.546   4.987  12.261  0.4577  1.3301  2.0805
 4631TIP3   OH238087   4.795   6.308  11.638 -0.2041  0.1140 -0.2946
 4631TIP3    H138088   4.836   6.366  11.702  1.5701  0.8822 -2.0235
 4631TIP3    H238089   4.731   6.258  11.688  0.0609  1.7216  1.7613
 4632TIP3   OH238090   6.346   2.094  10.458 -0.0402 -0.1246 -0.7706
 4632TIP3    H138091   6.345   2.111  10.552  0.5773  0.5275 -0.8706
 4632TIP3    H238092   6.437   2.107  10.433 -0.3128  0.3188 -1.5645
 4633TIP3   OH238093   3.926   1.349  11.438  0.1060  0.2681 -0.1114
 4633TIP3    H138094   4.006   1.298  11.447  0.2220  0.7406  1.9851
 4633TIP3    H238095   3.956   1.436  11.412  0.3752  0.6439  1.3730
 4634TIP3   OH238096   5.459   6.588  10.294  0.3085  0.0087  0.0279
 4634TIP3    H138097   5.554   6.581  10.290  0.2374 -0.5296 -1.9456
 4634TIP3    H238098   5.427   6.505  10.257 -0.8347  1.6470 -3.0181
 4635TIP3   OH238099   5.709   0.879  10.618  0.5957 -0.3099 -0.1280
 4635TIP3    H138100   5.758   0.799  10.635  3.6457  0.6836 -3.1896
 4635TIP3    H238101   5.775   0.949  10.621 -1.3738  1.6974 -0.6880
 4636TIP3   OH238102   4.743   0.251  11.404  0.1529 -0.7618 -1.0901
 4636TIP3    H138103   4.754   0.168  11.358  1.8345  0.3673 -2.8443
 4636TIP3    H238104   4.660   0.286  11.371 -0.1555 -1.3451 -0.9499
 4637TIP3   OH238105   2.261   4.418  10.833 -1.0046 -0.7396  0.3737
 4637TIP3    H138106   2.197   4.463  10.779 -0.4988 -1.4123 -0.8207
 4637TIP3    H238107   2.209   4.370  10.897 -1.5823  0.6951  1.0355
 4638TIP3   OH238108   2.492   1.597  10.470  0.0098 -0.3103 -0.0121
 4638TIP3    H138109   2.420   1.635  10.522  1.6442  0.0417  2.1536
 4638TIP3    H238110   2.571   1.637  10.507  1.4312 -1.7620 -1.3493
 4639TIP3   OH238111   6.393   5.502  10.030  0.2896  0.8015 -0.1139
 4639TIP3    H138112   6.300   5.481  10.038 -0.2658  1.8372 -2.5951
 4639TIP3    H238113   6.401   5.589  10.069  0.4131  0.3890  0.8082
 4640TIP3   OH238114   3.816   3.729   9.784  0.1832 -0.3059 -0.1035
 4640TIP3    H138115   3.843   3.762   9.698  0.1055  3.0068  0.9840
 4640TIP3    H238116   3.895   3.734   9.837 -0.7310  2.4982  1.2029
 4641TIP3   OH238117   3.259   3.056  10.849  0.6905 -0.2802 -0.1672
 4641TIP3    H138118   3.166   3.066  10.868  0.6587  1.3459 -0.9603
 4641TIP3    H238119   3.285   2.976  10.894 -1.0318 -0.6329  0.2607
 4642TIP3   OH238120   1.238   1.633  11.851  0.5142 -0.3288 -0.2018
 4642TIP3    H138121   1.166   1.650  11.790  0.3367  1.3373  0.4229
 4642TIP3    H238122   1.211   1.676  11.932  1.7313 -0.6250  0.3810
 4643TIP3   OH238123   2.854   5.975  10.687  0.4175 -0.5264  0.2206
 4643TIP3    H138124   2.944   5.948  10.674  1.0854  0.9262  1.5123
 4643TIP3    H238125   2.855   6.022  10.771 -1.3155  0.4573 -0.2620
 4644TIP3   OH238126   0.512   4.005  11.646 -0.0979  0.5093 -0.3706
 4644TIP3    H138127   0.536   4.053  11.566 -0.5414 -0.1561 -0.9151
 4644TIP3    H238128   0.512   3.914  11.619 -0.8015  0.3195  0.2643
 4645TIP3   OH238129   5.121   3.585  11.706  0.4202  0.2225 -0.1870
 4645TIP3    H138130   5.030   3.584  11.737  0.5534 -1.0864  0.2076
 4645TIP3    H238131   5.116   3.549  11.618  0.9249 -3.4625  1.1094
 4646TIP3   OH238132   0.191   4.143  12.334  0.1383 -0.1741  0.9144
 4646TIP3    H138133   0.146   4.226  12.319 -0.9737 -0.9049  0.0159
 4646TIP3    H238134   0.188   4.098  12.249  1.2350 -0.8897  1.2338
 4647TIP3   OH238135   3.821   5.948   9.463 -0.0103 -0.2415 -0.1455
 4647TIP3    H138136   3.851   5.888   9.395 -0.6862 -0.4574 -0.2689
 4647TIP3    H238137   3.758   5.896   9.514 -0.8467  0.4472 -0.4438
 4648TIP3   OH238138   0.650   1.739   8.587 -0.3680 -0.7706 -0.6413
 4648TIP3    H138139   0.722   1.677   8.572 -0.3351 -1.2248  1.1392
 4648TIP3    H238140   0.572   1.684   8.588 -0.4905 -0.5909 -0.4077
 4649TIP3   OH238141   5.885   4.983  10.135  0.4871 -0.4049 -0.1552
 4649TIP3    H138142   5.824   4.953  10.067  1.2087  0.9883 -1.4795
 4649TIP3    H238143   5.969   4.945  10.110  0.6796 -0.2298  0.2211
 4650TIP3   OH238144   1.850   0.761   8.805  0.4626 -0.6786  0.1224
 4650TIP3    H138145   1.940   0.729   8.805  0.4853 -0.6218 -0.0902
 4650TIP3    H238146   1.800   0.693   8.849  0.9445  0.2892  2.2640
 4651TIP3   OH238147   3.652   4.025  10.730  0.4836  0.1192 -0.3215
 4651TIP3    H138148   3.707   4.008  10.654  0.2838 -0.8709 -0.2669
 4651TIP3    H238149   3.612   4.110  10.713 -0.5819 -0.6597 -1.9740
 4652TIP3   OH238150   5.789   0.891  12.141 -0.9616  0.8914 -0.2019
 4652TIP3    H138151   5.773   0.854  12.055  2.7524 -0.3467 -0.5486
 4652TIP3    H238152   5.870   0.941  12.131 -0.0287  0.1635  2.6408
 4653TIP3   OH238153   5.810   0.780   9.908  0.0258 -0.3173 -0.2420
 4653TIP3    H138154   5.883   0.717   9.901 -1.0627 -1.5052 -1.4242
 4653TIP3    H238155   5.734   0.725   9.926 -0.5156  0.9758  1.6521
 4654TIP3   OH238156   1.232   5.195  10.938 -0.0225 -0.1591 -0.0521
 4654TIP3    H138157   1.173   5.239  10.877  0.4894 -0.0059 -0.4412
 4654TIP3    H238158   1.194   5.212  11.024 -0.6633 -0.2416 -0.3103
 4655TIP3   OH238159   4.193   0.851  12.402  0.2537 -0.2802 -0.5197
 4655TIP3    H138160   4.200   0.783  12.335  0.2044 -2.2099  1.3073
 4655TIP3    H238161   4.236   0.813  12.479 -0.6681  1.3816  0.8920
 4656TIP3   OH238162   4.646   1.633   9.852 -0.1932 -0.6145  0.4783
 4656TIP3    H138163   4.682   1.715   9.887 -0.3757 -0.1019 -0.4780
 4656TIP3    H238164   4.608   1.589   9.928  2.1630 -1.0460  1.4831
 4657TIP3   OH238165   1.788   4.420   9.944 -0.2695 -0.6860  0.0397
 4657TIP3    H138166   1.791   4.389   9.854  0.1929 -0.7824  0.0863
 4657TIP3    H238167   1.815   4.345   9.997  2.6962  0.2134  0.0329
 4658TIP3   OH238168   2.003   1.386  11.150 -0.2624  0.0065 -0.2906
 4658TIP3    H138169   1.995   1.481  11.158 -3.0861 -0.1989  0.4585
 4658TIP3    H238170   2.097   1.369  11.159  0.1682  2.6008  1.1882
 4659TIP3   OH238171   0.929   4.298  11.048  0.1528 -0.3003 -0.0632
 4659TIP3    H138172   1.010   4.321  11.004  0.4499 -1.1014  0.0440
 4659TIP3    H238173   0.888   4.234  10.989  0.4764 -1.2636  0.7317
 4660TIP3   OH238174   1.617   5.155   9.770 -0.2924 -0.2328 -0.0294
 4660TIP3    H138175   1.641   5.068   9.800  2.0833  0.5572  0.5643
 4660TIP3    H238176   1.670   5.170   9.691  0.2115  1.0822  0.5236
 4661TIP3   OH238177   5.178   2.306   9.442 -0.2135  0.0393 -0.1806
 4661TIP3    H138178   5.104   2.350   9.484  0.4742  1.2626 -0.2011
 4661TIP3    H238179   5.221   2.257   9.513  0.2996  1.2074  0.3365
 4662TIP3   OH238180   4.691   4.364   9.426  0.0972 -0.4041 -0.1596
 4662TIP3    H138181   4.609   4.320   9.448  0.2420 -0.8099 -0.4203
 4662TIP3    H238182   4.727   4.314   9.353 -1.3423  2.0677 -2.7571
 4663TIP3   OH238183   1.339   2.156   9.550  0.1736  0.0268 -0.2547
 4663TIP3    H138184   1.337   2.160   9.645  1.4106  1.9032 -0.2753
 4663TIP3    H238185   1.247   2.147   9.525 -0.1844 -0.2436  1.0808
 4664TIP3   OH238186   2.004   0.368   9.794  0.3417 -0.5483 -0.0207
 4664TIP3    H138187   1.927   0.340   9.843  0.4403 -1.2811 -0.2752
 4664TIP3    H238188   1.984   0.347   9.703  0.9291 -0.9478 -0.0623
 4665TIP3   OH238189   4.849   0.598  10.249 -0.4261  0.6097 -0.0347
 4665TIP3    H138190   4.921   0.629  10.305  0.1002 -1.0352  0.2809
 4665TIP3    H238191   4.871   0.506  10.233 -1.0534  0.7980 -2.2095
 4666TIP3   OH238192   2.576   6.546  12.044 -0.0383  0.1237 -0.1235
 4666TIP3    H138193   2.514   6.616  12.064 -1.5018 -0.6148 -1.7987
 4666TIP3    H238194   2.537   6.467  12.083  0.0045 -0.2895 -0.8905
 4667TIP3   OH238195   1.164   3.816  11.715 -0.0761 -0.0329 -0.0180
 4667TIP3    H138196   1.123   3.821  11.801 -0.3206 -0.8748 -0.0793
 4667TIP3    H238197   1.167   3.723  11.695  1.6556  0.0108 -0.1151
 4668TIP3   OH238198   4.936   1.880  11.415 -0.1045  0.9724  0.2811
 4668TIP3    H138199   4.939   1.973  11.439  0.4758  1.5694 -1.8924
 4668TIP3    H238200   5.028   1.855  11.405 -0.2910  0.5363 -0.4201
 4669TIP3   OH238201   2.380   0.483  11.831 -0.0720  0.1481 -0.1095
 4669TIP3    H138202   2.425   0.558  11.870  0.4440 -0.9216  1.4465
 4669TIP3    H238203   2.348   0.433  11.905 -2.5103  0.0308 -1.1443
 4670TIP3   OH238204   1.583   1.274  11.408 -0.2092 -0.0405 -0.3025
 4670TIP3    H138205   1.539   1.356  11.388 -1.4238 -0.5099  0.3025
 4670TIP3    H238206   1.675   1.298  11.422 -0.3682  1.0599 -1.0249
 4671TIP3   OH238207   0.949   0.173   9.409 -0.5385  0.3284 -0.3168
 4671TIP3    H138208   0.995   0.151   9.491  1.1659  2.1908 -0.6878
 4671TIP3    H238209   0.891   0.099   9.394  1.1754 -1.4305  1.0956
 4672TIP3   OH238210   5.693   2.227  10.407  0.3352 -0.5714  0.5170
 4672TIP3    H138211   5.732   2.230  10.320 -0.8494  1.2676  0.0093
 4672TIP3    H238212   5.720   2.309  10.448 -0.4883 -0.6755  1.2874
 4673TIP3   OH238213   3.792   4.572  12.040  0.1735  0.0564  0.0453
 4673TIP3    H138214   3.723   4.635  12.021  1.0632  0.4306 -2.2610
 4673TIP3    H238215   3.874   4.619  12.022  0.8871 -1.4256 -0.8020
 4674TIP3   OH238216   2.408   2.845  11.472 -0.2184 -0.2236 -0.1453
 4674TIP3    H138217   2.423   2.890  11.389 -1.3044  0.8571  0.2213
 4674TIP3    H238218   2.364   2.910  11.527 -0.6571 -1.3254  0.8400
 4675TIP3   OH238219   5.375   2.168  10.552  0.1533 -0.1724 -0.5334
 4675TIP3    H138220   5.415   2.084  10.532 -0.4473 -0.5879 -0.0171
 4675TIP3    H238221   5.317   2.186  10.477 -0.1990 -0.5274 -0.3485
 4676TIP3   OH238222   0.078   0.591  11.895 -0.2745 -0.0074 -0.4200
 4676TIP3    H138223   0.036   0.561  11.975  0.6587  0.1093  0.1306
 4676TIP3    H238224   0.015   0.652  11.856  0.0071  1.3852  1.1830
 4677TIP3   OH238225   5.319   3.202   9.435  0.6891  0.0462  0.3547
 4677TIP3    H138226   5.384   3.263   9.469  1.8534 -0.5034 -0.7756
 4677TIP3    H238227   5.316   3.221   9.341 -0.3924 -0.3062  0.3090
 4678TIP3   OH238228   2.312   1.973  11.549 -0.2378  0.5390  0.5024
 4678TIP3    H138229   2.363   1.920  11.487  0.4717  0.7191  0.9324
 4678TIP3    H238230   2.373   2.039  11.581 -1.7991  3.6747 -2.3199
 4679TIP3   OH238231   1.899   5.352  11.908 -0.0250 -0.3226  0.2926
 4679TIP3    H138232   1.816   5.315  11.936 -1.0421 -0.1704 -2.2035
 4679TIP3    H238233   1.938   5.284  11.852  1.2695 -0.1642  0.9695
 4680TIP3   OH238234   4.556   5.115   9.984 -0.3920  0.4060 -0.2632
 4680TIP3    H138235   4.467   5.150   9.993 -1.1029 -1.5164  0.7684
 4680TIP3    H238236   4.605   5.156  10.055 -0.9922 -0.0634  0.4308
 4681TIP3   OH238237   0.956   1.495  11.183 -0.4312 -0.1621 -0.0577
 4681TIP3    H138238   0.927   1.424  11.240  0.1049  0.6823  1.3278
 4681TIP3    H238239   1.051   1.488  11.184 -0.4229 -0.7350 -1.6931
 4682TIP3   OH238240   2.923   0.136  11.524  0.3184 -0.2599 -0.1165
 4682TIP3    H138241   2.938   0.110  11.615  2.4216 -1.6747 -0.8108
 4682TIP3    H238242   2.999   0.104  11.476 -0.7464  0.4115 -2.4167
 4683TIP3   OH238243   4.814   1.402   9.431  0.7063  0.2704 -0.6967
 4683TIP3    H138244   4.833   1.369   9.343 -0.3478  0.8062 -1.1486
 4683TIP3    H238245   4.861   1.343   9.490 -1.7058 -2.6173 -1.4197
 4684TIP3   OH238246   4.433   3.373  11.883  0.5140 -0.3986  0.2014
 4684TIP3    H138247   4.484   3.292  11.890  2.4153  0.8309  1.0500
 4684TIP3    H238248   4.498   3.442  11.877 -1.0787  1.0906 -0.7205
 4685TIP3   OH238249   2.706   6.245   9.437  0.0726  0.3652 -0.2594
 4685TIP3    H138250   2.650   6.169   9.420 -0.4944  1.2371 -2.8478
 4685TIP3    H238251   2.651   6.321   9.414  0.5491  1.6309  2.4261
 4686TIP3   OH238252   3.407   0.016  10.113  0.5458  0.5257  0.0447
 4686TIP3    H138253   3.481   0.043  10.167  2.6357 -1.4496 -1.6152
 4686TIP3    H238254   3.354  -0.040  10.170  2.1636 -0.7210  0.4105
 4687TIP3   OH238255   3.241   3.900  10.460  0.1431 -0.8037 -0.0554
 4687TIP3    H138256   3.326   3.904  10.505  0.7209 -0.2909 -1.1472
 4687TIP3    H238257   3.242   3.817  10.414  0.1967 -0.6535 -0.3292
 4688TIP3   OH238258   3.328   1.174  11.469 -0.0786 -0.3865 -0.2459
 4688TIP3    H138259   3.280   1.246  11.511  0.8049 -0.2104  0.4968
 4688TIP3    H238260   3.263   1.133  11.412 -1.8998 -1.7759  2.5834
 4689TIP3   OH238261   4.189   4.551   8.710 -0.1481 -0.0038 -0.5465
 4689TIP3    H138262   4.178   4.486   8.640 -0.1195 -0.5838 -0.0227
 4689TIP3    H238263   4.250   4.510   8.771 -0.2066  0.4811 -0.1572
 4690TIP3   OH238264   3.897   1.741   8.440 -0.0482  0.2369  0.3037
 4690TIP3    H138265   3.957   1.815   8.432 -0.6686  0.6784 -0.3527
 4690TIP3    H238266   3.886   1.708   8.351 -2.5775  1.6294 -0.0065
 4691TIP3   OH238267   4.165   2.145  10.567  0.3795  0.0130 -0.2130
 4691TIP3    H138268   4.132   2.077  10.508 -1.2287  1.3929 -0.9930
 4691TIP3    H238269   4.138   2.228  10.526  0.0574  1.0634  1.9709
 4692TIP3   OH238270   2.760   4.874  11.598 -0.1358  0.2671  0.1128
 4692TIP3    H138271   2.843   4.893  11.641 -0.2428  0.4610  0.2329
 4692TIP3    H238272   2.784   4.826  11.518  0.1360  0.9304 -0.2088
 4693TIP3   OH238273   0.610   2.283  12.218  0.2406 -0.1031  0.5566
 4693TIP3    H138274   0.549   2.210  12.207 -0.6885  0.6671  0.4691
 4693TIP3    H238275   0.563   2.347  12.271  1.5722 -0.1567  1.8653
 4694TIP3   OH238276   2.020   2.778   9.149  0.3030 -0.1368  0.3611
 4694TIP3    H138277   1.957   2.722   9.194  1.8970 -2.9432 -0.6073
 4694TIP3    H238278   2.060   2.830   9.218 -0.6071 -0.8749  1.4869
 4695TIP3   OH238279   3.901   4.049  12.106  0.0242  0.5973 -0.1221
 4695TIP3    H138280   3.808   4.028  12.099 -0.1178  1.6157 -1.6435
 4695TIP3    H238281   3.908   4.139  12.075  1.7469 -0.0158 -1.7006
 4696TIP3   OH238282   5.939   6.419  12.067  0.6767 -0.0758 -0.0382
 4696TIP3    H138283   6.034   6.435  12.067  0.9407 -1.4806 -0.8672
 4696TIP3    H238284   5.930   6.329  12.036 -0.9951  0.3972 -1.0623
 4697TIP3   OH238285   4.691   4.114   8.581 -0.0284 -0.1271  0.0645
 4697TIP3    H138286   4.666   4.135   8.670  0.8841 -2.1450  0.8587
 4697TIP3    H238287   4.665   4.191   8.530 -1.1449  0.8082  1.9340
 4698TIP3   OH238288   1.758   3.727  11.978  0.3994  0.0111  0.5197
 4698TIP3    H138289   1.805   3.799  12.020  1.7007 -1.0976  1.0451
 4698TIP3    H238290   1.727   3.764  11.896 -2.0316  2.1943  2.2344
 4699TIP3   OH238291   6.531   1.022  11.855 -0.2038  0.0130 -0.1530
 4699TIP3    H138292   6.441   1.039  11.830 -0.9036 -0.0096  2.1497
 4699TIP3    H238293   6.548   0.932  11.825 -0.0584  0.8396 -2.7827
 4700TIP3   OH238294   0.516   1.569   9.496  0.3897 -0.2990  0.6653
 4700TIP3    H138295   0.456   1.633   9.457  1.6131  0.7645  0.4723
 4700TIP3    H238296   0.510   1.584   9.590 -0.1461 -0.6752  0.6995
 4701TIP3   OH238297   2.445   5.062  10.611  0.5126 -0.1134  0.1146
 4701TIP3    H138298   2.351   5.053  10.595  0.4779 -2.6117  1.2548
 4701TIP3    H238299   2.463   5.155  10.595 -1.6104 -0.0626 -2.6533
 4702TIP3   OH238300   3.256   0.219  10.530 -0.2928  0.6132 -0.0880
 4702TIP3    H138301   3.303   0.261  10.603 -1.7296  1.6578  0.2868
 4702TIP3    H238302   3.312   0.232  10.454  0.9280  0.0917  0.7020
 4703TIP3   OH238303   4.021   1.918  11.604 -0.7000  0.5053 -0.3218
 4703TIP3    H138304   4.003   2.000  11.651 -0.0714  0.8184 -0.6162
 4703TIP3    H238305   3.984   1.931  11.517  2.0935  1.7419 -1.4473
 4704TIP3   OH238306   2.102   1.711  11.503  0.0616  0.4319  0.6974
 4704TIP3    H138307   2.193   1.707  11.474 -0.3185 -1.3253 -0.4630
 4704TIP3    H238308   2.066   1.788  11.460  0.7565  0.5715  0.3547
 4705TIP3   OH238309   5.419   2.661   9.754 -0.0605 -0.1174 -0.0799
 4705TIP3    H138310   5.486   2.701   9.698  0.7454  0.2369  1.1113
 4705TIP3    H238311   5.339   2.663   9.701  0.6778  0.2129 -1.2087
 4706TIP3   OH238312   4.147   5.146  10.827 -0.0790 -0.3592  0.1053
 4706TIP3    H138313   4.213   5.210  10.799 -0.2072 -0.2320  0.0960
 4706TIP3    H238314   4.125   5.171  10.916 -1.0623  0.3852 -0.3256
 4707TIP3   OH238315   6.451   3.411  10.130  0.1616  0.5379 -0.1647
 4707TIP3    H138316   6.431   3.499  10.101 -2.6465 -0.5712 -1.9725
 4707TIP3    H238317   6.396   3.397  10.208 -0.0077  0.1434 -0.3489
 4708TIP3   OH238318   3.135   3.709  11.101  0.0358 -0.1352 -0.1128
 4708TIP3    H138319   3.208   3.657  11.068 -0.2587 -0.5705 -0.0914
 4708TIP3    H238320   3.175   3.787  11.138  0.7628 -1.6506  2.5087
 4709TIP3   OH238321   0.444   4.189  10.465 -0.2032 -0.1595 -0.2948
 4709TIP3    H138322   0.479   4.260  10.411 -0.1583 -0.2957 -0.4434
 4709TIP3    H238323   0.439   4.114  10.406  0.5563 -0.5185  0.0857
 4710TIP3   OH238324   1.092   5.664  12.535 -1.0787 -0.2422 -0.5488
 4710TIP3    H138325   1.052   5.749  12.557  0.0826 -0.0188  0.8251
 4710TIP3    H238326   1.170   5.687  12.486 -1.0917 -0.5535 -0.7142
 4711TIP3   OH238327   3.246   5.703  10.081 -0.2954  0.4930 -0.6009
 4711TIP3    H138328   3.296   5.784  10.092  2.5681 -0.6110 -3.6618
 4711TIP3    H238329   3.309   5.634  10.103 -1.9935 -0.9668 -0.1353
 4712TIP3   OH238330   5.519   2.543  11.679 -0.0421  0.2385 -0.7945
 4712TIP3    H138331   5.596   2.488  11.696 -0.4226 -0.3521 -0.9438
 4712TIP3    H238332   5.456   2.517  11.747 -0.2840  0.3762 -0.9649
 4713TIP3   OH238333   3.032   0.821  12.448 -0.0426 -0.2646 -0.1653
 4713TIP3    H138334   3.012   0.853  12.536  0.8344  0.7537 -0.3051
 4713TIP3    H238335   2.958   0.766  12.424  1.6325 -4.3600  2.9546
 4714TIP3   OH238336   0.930   0.993   9.714 -0.3904  0.3049 -0.3811
 4714TIP3    H138337   0.890   1.078   9.734 -0.3912  0.3276 -0.4738
 4714TIP3    H238338   0.983   0.972   9.790 -1.0478 -0.0095  0.0058
 4715TIP3   OH238339   6.262   5.134  10.122  0.8229 -0.0079 -0.4226
 4715TIP3    H138340   6.357   5.126  10.119  0.9306  1.2043 -0.6237
 4715TIP3    H238341   6.230   5.065  10.064  1.6233  0.3626 -1.3269
 4716TIP3   OH238342   4.787   1.503  11.321 -0.2078 -0.4816  0.1333
 4716TIP3    H138343   4.865   1.549  11.290  0.6019 -0.8243  1.6070
 4716TIP3    H238344   4.723   1.572  11.337  0.1852 -0.0867  0.0243
 4717TIP3   OH238345   0.831   3.450  10.836  0.1343 -0.4199 -0.2896
 4717TIP3    H138346   0.920   3.433  10.866  0.0564  0.9709  0.8541
 4717TIP3    H238347   0.775   3.423  10.908 -0.1155  2.0549  0.5412
 4718TIP3   OH238348   0.279   5.923  10.044 -0.2250 -0.3148  0.0178
 4718TIP3    H138349   0.283   5.836  10.084  0.8058 -0.9751 -1.4063
 4718TIP3    H238350   0.263   5.906   9.952 -0.4179  1.0368 -0.2153
 4719TIP3   OH238351   0.015   3.385  11.215  0.2782 -0.3976 -0.4886
 4719TIP3    H138352  -0.066   3.351  11.252  1.2250 -0.9049  1.2374
 4719TIP3    H238353   0.022   3.474  11.249  0.6859 -0.5341 -0.2026
 4720TIP3   OH238354   3.016   6.007  11.984 -0.3130 -0.3549 -1.0450
 4720TIP3    H138355   3.003   6.070  11.913 -1.0994 -1.5850 -2.0325
 4720TIP3    H238356   3.033   5.924  11.940  1.3171 -0.7538  0.2364
 4721TIP3   OH238357   0.583   1.956   8.719  0.4260  0.0902  0.0311
 4721TIP3    H138358   0.533   1.904   8.782  0.0811  1.0133  0.5365
 4721TIP3    H238359   0.611   1.893   8.653 -1.5379 -0.4411 -0.3585
 4722TIP3   OH238360   1.290   0.460  11.911  0.5087 -0.2610 -0.8891
 4722TIP3    H138361   1.214   0.405  11.892 -0.7093  0.4678  1.4101
 4722TIP3    H238362   1.270   0.543  11.868  0.1158 -0.1566 -0.5118
 4723TIP3   OH238363   1.226   6.339  10.485 -0.1111 -0.1643 -0.0491
 4723TIP3    H138364   1.252   6.274  10.551 -2.4915  0.1557  1.3004
 4723TIP3    H238365   1.142   6.308  10.452  0.3794  0.4310 -1.9676
 4724TIP3   OH238366   5.689   5.399  10.704  0.1054 -0.0228 -0.1327
 4724TIP3    H138367   5.692   5.445  10.788 -2.2219  0.2725 -0.1563
 4724TIP3    H238368   5.694   5.306  10.727  1.3767  0.1016  0.1649
 4725TIP3   OH238369   5.553   1.483  11.490  0.3457 -1.0081 -0.3759
 4725TIP3    H138370   5.533   1.475  11.583  0.2375 -1.0284 -0.4011
 4725TIP3    H238371   5.482   1.435  11.446  0.7707 -1.5839 -0.4378
 4726TIP3   OH238372   1.339   5.465  10.771  0.3595  0.2735 -0.0414
 4726TIP3    H138373   1.330   5.540  10.712  0.7556  0.2474 -0.1365
 4726TIP3    H238374   1.270   5.404  10.742  0.0552  0.5861  0.0201
 4727TIP3   OH238375   2.842   1.842  10.783  0.0007 -0.4334 -0.3490
 4727TIP3    H138376   2.778   1.785  10.741  1.4879  0.4571 -4.2774
 4727TIP3    H238377   2.816   1.931  10.758  0.2852  0.3250  1.8187
 4728TIP3   OH238378   1.551   5.519  10.234 -0.1020 -0.1927 -0.2156
 4728TIP3    H138379   1.567   5.587  10.300 -0.8951  1.1265 -1.3667
 4728TIP3    H238380   1.493   5.559  10.170 -0.7205 -2.0109 -0.8562
 4729TIP3   OH238381   0.023   3.301   8.833  0.5447  0.4457 -0.1487
 4729TIP3    H138382   0.094   3.241   8.811  0.0081 -0.2544 -0.0174
 4729TIP3    H238383   0.032   3.315   8.927 -0.3945 -0.8796  0.1716
 4730TIP3   OH238384   4.364   1.923  10.747  0.7384 -0.6134  0.3921
 4730TIP3    H138385   4.342   1.853  10.686  0.6959 -1.3083  1.1971
 4730TIP3    H238386   4.459   1.931  10.742  0.6583  0.0088 -0.4795
 4731TIP3   OH238387   0.246   4.840  11.836 -0.0711 -0.3534 -0.3655
 4731TIP3    H138388   0.239   4.865  11.744 -0.1371  0.1282 -0.2322
 4731TIP3    H238389   0.279   4.750  11.834  0.3024 -0.2097 -0.8526
 4732TIP3   OH238390   2.034   5.175  12.146  0.3301 -0.1779  0.1790
 4732TIP3    H138391   1.964   5.174  12.211  0.5428  0.6856  0.4259
 4732TIP3    H238392   2.011   5.104  12.086 -0.3209 -0.4304  0.7135
 4733TIP3   OH238393   0.393   6.382  12.136 -0.1752  0.2177  0.0429
 4733TIP3    H138394   0.309   6.390  12.182 -0.1832 -0.3253  0.1376
 4733TIP3    H238395   0.372   6.400  12.044 -0.5743 -0.7577 -0.0746
 4734TIP3   OH238396   0.789   3.199  11.314  0.1489  0.3083 -0.2843
 4734TIP3    H138397   0.696   3.187  11.333  0.3055 -0.4990 -0.0042
 4734TIP3    H238398   0.805   3.149  11.234  0.1751  1.1263 -0.8092
 4735TIP3   OH238399   5.187   4.674  12.026 -0.2011  0.0883  0.1693
 4735TIP3    H138400   5.091   4.667  12.030 -0.2539  1.0275  0.8854
 4735TIP3    H238401   5.217   4.584  12.013 -1.0856 -0.5640  2.2664
 4736TIP3   OH238402   4.079   4.628  10.749 -0.2253 -0.3321 -0.2320
 4736TIP3    H138403   3.990   4.597  10.731 -0.4908  0.2111  0.1399
 4736TIP3    H238404   4.075   4.723  10.736  0.4805 -0.3839 -0.9294
 4737TIP3   OH238405   1.557   2.605  10.288  0.0009  0.1477 -0.1933
 4737TIP3    H138406   1.597   2.538  10.233 -1.0988 -1.2680  0.6711
 4737TIP3    H238407   1.538   2.677  10.227  2.1219  0.1474 -0.9491
 4738TIP3   OH238408   5.903   6.450  10.879  0.1218 -0.3267 -0.3085
 4738TIP3    H138409   5.898   6.357  10.899 -1.7104 -0.5333 -1.4612
 4738TIP3    H238410   5.974   6.458  10.815 -0.3016 -1.0793 -0.8789
 4739TIP3   OH238411   3.601   1.187   8.508 -0.1811  0.0368  0.0969
 4739TIP3    H138412   3.656   1.236   8.447  0.1747 -0.5946 -0.1010
 4739TIP3    H238413   3.558   1.254   8.560 -1.8719  0.6843 -2.0061
 4740TIP3   OH238414   2.216   2.670   8.773 -0.0068  0.1658  0.5969
 4740TIP3    H138415   2.272   2.593   8.766  2.1433  1.7560 -1.2541
 4740TIP3    H238416   2.154   2.662   8.701  1.2969  0.9168 -0.6482
 4741TIP3   OH238417   3.089   5.568  12.209 -0.5153  0.3236 -0.8923
 4741TIP3    H138418   3.036   5.549  12.286  0.4143  0.5527 -0.1650
 4741TIP3    H238419   3.177   5.584  12.245  0.2490 -0.9360 -2.1235
 4742TIP3   OH238420   3.558   1.003  11.531  0.2071 -0.3527 -0.4964
 4742TIP3    H138421   3.634   1.041  11.486  0.5835  1.1448  1.3273
 4742TIP3    H238422   3.483   1.054  11.500  0.3981  0.3572  0.2161
 4743TIP3   OH238423   1.665   5.547  11.865  0.0339  0.5472  0.1018
 4743TIP3    H138424   1.678   5.642  11.866  0.6814  0.4755  1.6539
 4743TIP3    H238425   1.748   5.512  11.834 -0.4237  0.4948 -1.0999
 4744TIP3   OH238426   4.721   1.448  11.917  0.0401  0.4691 -0.3049
 4744TIP3    H138427   4.711   1.423  11.825 -1.5145 -0.1549  0.0033
 4744TIP3    H238428   4.730   1.543  11.915  1.9947  0.2992 -1.2119
 4745TIP3   OH238429   3.646   1.488   8.845  0.3691  0.5088 -0.1228
 4745TIP3    H138430   3.590   1.466   8.770  1.1786  0.1135 -0.6263
 4745TIP3    H238431   3.722   1.431   8.835  0.0852 -0.2113  1.5219
 4746TIP3   OH238432   6.584   3.907  10.535  0.0278 -0.3291  0.0730
 4746TIP3    H138433   6.656   3.962  10.507 -0.3344  0.1860  0.1392
 4746TIP3    H238434   6.521   3.911  10.463 -0.6455  0.5247  0.6966
 4747TIP3   OH238435   0.419   0.798  10.712  0.7218 -0.0653  0.0146
 4747TIP3    H138436   0.446   0.869  10.770  1.0922  0.5967 -0.9651
 4747TIP3    H238437   0.419   0.720  10.769 -0.4862  0.8189  1.3101
 4748TIP3   OH238438   0.969   6.530  11.162  0.0077 -0.1855  0.1244
 4748TIP3    H138439   0.971   6.506  11.255  0.5171  1.1507  0.4737
 4748TIP3    H238440   0.941   6.621  11.161 -2.7685 -0.9150 -1.2254
 4749TIP3   OH238441   2.723   3.147  10.365  0.3590  0.4107  0.4123
 4749TIP3    H138442   2.756   3.070  10.319  0.5198  0.8603 -0.2403
 4749TIP3    H238443   2.759   3.139  10.453  0.0301 -0.4726  0.4791
 4750TIP3   OH238444   5.315   6.481   9.990 -0.9016 -0.5108  0.2440
 4750TIP3    H138445   5.384   6.459   9.927 -1.2690  0.7681 -0.6446
 4750TIP3    H238446   5.235   6.486   9.937 -1.0391  1.6588  0.5863
 4751TIP3   OH238447   2.420   5.327  10.321  0.2448 -0.3222  0.3280
 4751TIP3    H138448   2.425   5.397  10.256 -0.9312  0.5479  1.1418
 4751TIP3    H238449   2.512   5.309  10.344  0.5614  2.4890  1.6984
 4752TIP3   OH238450   4.603   6.395   9.365  0.1033 -0.8195 -0.1655
 4752TIP3    H138451   4.640   6.441   9.440 -0.6597  0.4042 -0.5234
 4752TIP3    H238452   4.509   6.398   9.378 -0.0202 -0.9915 -0.9421
 4753TIP3   OH238453   1.573   1.505  10.751  0.4957  0.0774  0.3724
 4753TIP3    H138454   1.605   1.418  10.775  0.4065 -0.0350  0.0919
 4753TIP3    H238455   1.479   1.492  10.736  0.6880 -0.0421 -0.8636
 4754TIP3   OH238456   5.903   1.295  11.333 -0.1692  0.0984 -0.6374
 4754TIP3    H138457   5.841   1.362  11.307 -0.6865 -0.6337 -1.3563
 4754TIP3    H238458   5.860   1.249  11.406 -1.2916 -1.5006 -2.2127
 4755TIP3   OH238459   3.989   0.358   9.953  0.4346 -0.1612  0.1957
 4755TIP3    H138460   4.077   0.391   9.969  0.2116 -0.2541  1.7101
 4755TIP3    H238461   3.935   0.437   9.944  0.2127 -0.0734  2.0294
 4756TIP3   OH238462   3.942   3.031  10.927 -0.1416  0.2201  0.0189
 4756TIP3    H138463   3.852   3.022  10.956 -0.7394 -0.2022 -1.8083
 4756TIP3    H238464   3.987   2.956  10.965 -0.7374  0.0038  0.3103
 4757TIP3   OH238465   5.845   4.222   9.646 -0.2959  0.1445  0.2714
 4757TIP3    H138466   5.790   4.146   9.666  0.8706 -0.6000  0.7057
 4757TIP3    H238467   5.858   4.264   9.731  1.0050 -0.5211  0.4213
 4758TIP3   OH238468   3.322   5.148   9.508 -0.7448  0.0645  0.1268
 4758TIP3    H138469   3.341   5.143   9.414  0.2656  0.3500  0.3042
 4758TIP3    H238470   3.355   5.064   9.543 -1.0398 -0.0044  0.2373
 4759TIP3   OH238471   4.747   2.083  10.631  0.6521  0.2110  0.2420
 4759TIP3    H138472   4.723   2.008  10.686  1.7411 -1.0780 -0.9432
 4759TIP3    H238473   4.666   2.107  10.587 -0.0177  0.6431  1.6555
 4760TIP3   OH238474   3.902   0.035  10.008  0.0865  0.1976  1.0122
 4760TIP3    H138475   3.914  -0.059   9.994  0.4522  0.4424 -0.4967
 4760TIP3    H238476   3.816   0.054   9.970  1.8476  1.1977 -2.8708
 4761TIP3   OH238477   4.946   4.810  10.878 -0.2361 -0.5640  0.0983
 4761TIP3    H138478   4.989   4.786  10.960 -0.8695 -1.4220  0.1918
 4761TIP3    H238479   4.861   4.845  10.904  0.3063  0.9831 -0.0952
 4762TIP3   OH238480   2.405   4.190   9.834 -0.0184 -0.4322  0.0530
 4762TIP3    H138481   2.314   4.195   9.864 -0.1043 -2.3890  0.2633
 4762TIP3    H238482   2.435   4.281   9.834 -2.3870  0.4407 -1.4032
 4763TIP3   OH238483   2.279   2.705  10.955 -0.1945  0.4682 -0.2125
 4763TIP3    H138484   2.209   2.767  10.975 -0.3760  0.1424  0.1800
 4763TIP3    H238485   2.312   2.677  11.040  0.5993  0.8236 -0.3977
 4764TIP3   OH238486   4.479   5.092  12.271  0.2506  0.0549 -0.4552
 4764TIP3    H138487   4.443   5.181  12.265  1.9478  0.7307 -1.5707
 4764TIP3    H238488   4.403   5.035  12.271 -0.8837  1.4984  0.1668
 4765TIP3   OH238489   2.402   3.910  10.113  0.2938  0.3659 -0.0788
 4765TIP3    H138490   2.414   3.818  10.133  0.5592  0.8402  2.2887
 4765TIP3    H238491   2.438   3.921  10.025 -0.3433 -1.8656 -0.6715
 4766TIP3   OH238492   3.282   0.288  11.551  0.0104 -0.1959  0.0752
 4766TIP3    H138493   3.251   0.256  11.636 -0.0840 -2.6119 -0.7684
 4766TIP3    H238494   3.209   0.270  11.491  0.2991  0.9212 -0.6432
 4767TIP3   OH238495   5.216   1.745  12.130  0.3213  0.4203 -0.4118
 4767TIP3    H138496   5.160   1.668  12.130  0.3979  0.3640 -0.2784
 4767TIP3    H238497   5.157   1.818  12.113  0.0394  0.4828  0.7418
 4768TIP3   OH238498   2.423   2.073   9.100 -0.3595 -0.3930  0.1865
 4768TIP3    H138499   2.455   2.090   9.011  2.4632  0.6036  1.2965
 4768TIP3    H238500   2.360   2.143   9.116  1.1541  1.1019 -0.1120
 4769TIP3   OH238501   4.935   4.998  10.161  0.0092  0.3770 -0.5232
 4769TIP3    H138502   4.913   4.914  10.122  0.9081 -0.7597  1.2676
 4769TIP3    H238503   4.872   5.008  10.233  1.5350 -0.1137  0.9562
 4770TIP3   OH238504   0.769   4.093  10.535 -0.1252  0.1458 -0.6043
 4770TIP3    H138505   0.699   4.084  10.471 -2.0196  0.5194  1.3112
 4770TIP3    H238506   0.823   4.015  10.522 -1.1004 -0.3610 -1.8744
 4771TIP3   OH238507   1.722   0.607   9.009  0.0642 -0.5049  0.0920
 4771TIP3    H138508   1.731   0.512   8.996 -1.3913 -0.4520 -1.8148
 4771TIP3    H238509   1.628   0.623   8.998 -0.0035  0.9491  2.3021
 4772TIP3   OH238510   1.017   2.771  11.155 -0.5706 -0.2892  0.1432
 4772TIP3    H138511   1.103   2.811  11.159 -1.4585  1.7266  0.2525
 4772TIP3    H238512   1.033   2.681  11.125  1.5398  0.0141  0.2620
 4773TIP3   OH238513   4.725   3.897  10.494  0.3374  0.4242 -0.1715
 4773TIP3    H138514   4.800   3.896  10.553  1.4893  1.4050 -1.5402
 4773TIP3    H238515   4.763   3.914  10.407 -1.4390  0.7268 -0.9361
 4774TIP3   OH238516   0.774   1.632  10.212  0.2909  0.4160  0.1312
 4774TIP3    H138517   0.744   1.707  10.264 -0.8625 -0.0904  0.2241
 4774TIP3    H238518   0.701   1.570  10.215  0.3510  0.2000 -1.7644
 4775TIP3   OH238519   5.466   4.426  12.240 -0.0563  0.4013 -0.7012
 4775TIP3    H138520   5.545   4.464  12.203 -0.0632  2.4610  1.2016
 4775TIP3    H238521   5.396   4.486  12.215 -0.1176  1.6410  2.0523
 4776TIP3   OH238522   3.413   3.826  12.001  0.3295  0.2707  0.1146
 4776TIP3    H138523   3.425   3.734  12.027 -0.1982 -0.0800 -0.8282
 4776TIP3    H238524   3.467   3.837  11.923  0.7816  0.9144  0.5065
 4777TIP3   OH238525   1.647   2.811  10.478 -0.1670 -0.2157  0.2788
 4777TIP3    H138526   1.607   2.753  10.413 -1.5966 -0.5743  1.4260
 4777TIP3    H238527   1.632   2.767  10.562  2.4337 -0.2246  0.8386
 4778TIP3   OH238528   6.365   2.272   9.556 -0.3344 -0.2199 -0.7173
 4778TIP3    H138529   6.440   2.241   9.607 -0.0131  1.0770 -0.3601
 4778TIP3    H238530   6.398   2.348   9.508 -1.2184 -0.1065 -1.1703
 4779TIP3   OH238531   1.589   3.400  10.911 -0.6501 -0.2060 -0.4087
 4779TIP3    H138532   1.616   3.446  10.831  1.9625 -0.0616  0.4916
 4779TIP3    H238533   1.648   3.326  10.918 -0.6101 -0.0282  1.5680
 4780TIP3   OH238534   0.773   6.482  11.983 -0.0555 -0.3161  0.2169
 4780TIP3    H138535   0.832   6.554  11.962  0.2452 -0.5084  0.3929
 4780TIP3    H238536   0.765   6.485  12.079  0.1553 -0.6711  0.2457
 4781TIP3   OH238537   3.051   0.562   9.243 -0.0184 -0.4629  0.0179
 4781TIP3    H138538   3.127   0.556   9.184  0.9924  0.2841  1.2134
 4781TIP3    H238539   3.016   0.472   9.245  1.1989 -0.9595 -0.0662
 4782TIP3   OH238540   0.957   1.938  12.138 -0.0043 -0.0710  0.2987
 4782TIP3    H138541   0.922   2.000  12.073 -2.1347 -1.9677 -0.5298
 4782TIP3    H238542   0.895   1.942  12.211  0.1953 -0.7286  0.5164
 4783TIP3   OH238543   6.004   5.889  10.232 -0.3555  0.2310 -0.2903
 4783TIP3    H138544   5.983   5.922  10.145  1.2136 -1.7727 -1.5435
 4783TIP3    H238545   6.090   5.848  10.221 -0.1915 -0.1966  2.1756
 4784TIP3   OH238546   3.867   0.460  11.311  0.2171  0.0415 -0.0167
 4784TIP3    H138547   3.808   0.526  11.348  1.1796  1.1793 -0.4187
 4784TIP3    H238548   3.954   0.496  11.326  0.8196 -1.5895  0.5374
 4785TIP3   OH238549   1.855   2.931   9.787 -0.0345  0.1303 -0.2172
 4785TIP3    H138550   1.899   2.853   9.820 -0.6438  0.0910  0.5383
 4785TIP3    H238551   1.822   2.906   9.702  0.2769 -0.2494 -0.2275
 4786TIP3   OH238552   2.877   4.531  11.387  0.4344 -0.3287 -0.0895
 4786TIP3    H138553   2.817   4.599  11.357  0.0041 -0.8416 -0.4235
 4786TIP3    H238554   2.920   4.500  11.307  2.3554  1.1368  0.3270
 4787TIP3   OH238555   5.982   6.602  12.402  0.1422 -0.1080 -0.1517
 4787TIP3    H138556   6.007   6.616  12.493  1.1363  1.9043 -0.6678
 4787TIP3    H238557   5.962   6.509  12.397 -1.4024 -0.0254  2.4433
 4788TIP3   OH238558   2.690   2.686   9.641  0.3633  0.4987 -0.9699
 4788TIP3    H138559   2.662   2.695   9.732 -0.9968 -1.1060 -1.1847
 4788TIP3    H238560   2.786   2.684   9.646  0.3368  1.2655  0.3210
 4789TIP3   OH238561   6.602   2.237  10.382  0.1534 -0.1642 -0.2515
 4789TIP3    H138562   6.638   2.215  10.296  1.8748 -1.0180  0.6369
 4789TIP3    H238563   6.625   2.329  10.395 -3.5544  1.2916 -2.2677
 4790TIP3   OH238564   5.788   0.806   9.578  0.1612 -0.1946  0.2492
 4790TIP3    H138565   5.705   0.839   9.613 -1.2708 -1.3542 -1.7850
 4790TIP3    H238566   5.799   0.852   9.495  1.3834 -0.3220  0.3240
 4791TIP3   OH238567   3.819   5.760  10.322  0.2165  0.1479 -0.1951
 4791TIP3    H138568   3.836   5.778  10.415  0.0774  0.9949 -0.3275
 4791TIP3    H238569   3.838   5.667  10.312 -0.5564 -0.1349  0.8660
 4792TIP3   OH238570   2.512   5.911  10.583 -0.3817 -0.0477 -0.2302
 4792TIP3    H138571   2.599   5.894  10.548 -0.2632  0.4422 -0.1806
 4792TIP3    H238572   2.479   5.825  10.609  0.7839 -0.0555  1.3759
 4793TIP3   OH238573   3.674   4.036   9.163  0.4971  0.4844  0.0984
 4793TIP3    H138574   3.753   3.981   9.158 -0.7142 -1.3045 -0.2280
 4793TIP3    H238575   3.642   4.023   9.252 -1.1363 -1.3852 -0.6804
 4794TIP3   OH238576   1.675   0.578  10.252 -0.3392  0.6692  0.7927
 4794TIP3    H138577   1.599   0.606  10.304 -1.5861 -0.4447 -0.3507
 4794TIP3    H238578   1.732   0.655  10.250 -0.6817  1.0475  2.9674
 4795TIP3   OH238579   5.487   0.863  10.443 -0.1470 -0.0889  0.3527
 4795TIP3    H138580   5.557   0.859  10.508  0.2886 -0.0418 -0.1136
 4795TIP3    H238581   5.410   0.829  10.489  0.7139 -2.4619  0.1290
 4796TIP3   OH238582   3.875   0.535   9.352 -0.5492 -0.3436  0.5327
 4796TIP3    H138583   3.899   0.487   9.273 -1.1923 -0.3378  0.3249
 4796TIP3    H238584   3.785   0.508   9.370 -0.9478  0.8252  0.3725
 4797TIP3   OH238585   5.037   4.948  11.938  0.1405  0.1054  0.2908
 4797TIP3    H138586   5.120   4.957  11.985  0.1374 -0.4314  0.4001
 4797TIP3    H238587   5.006   4.860  11.960 -0.6518  0.4418  0.5596
 4798TIP3   OH238588   1.714   3.868  10.356  0.4848  0.3770  0.4110
 4798TIP3    H138589   1.626   3.850  10.388  1.0762 -0.0946  1.8705
 4798TIP3    H238590   1.733   3.957  10.387  0.4755  0.5224 -0.0012
 4799TIP3   OH238591   5.742   3.978  12.091 -0.1427  0.1092 -0.5696
 4799TIP3    H138592   5.755   3.941  12.004  0.0140 -0.9806 -0.1070
 4799TIP3    H238593   5.787   4.063  12.088  2.1007 -0.9952 -0.8124
 4800TIP3   OH238594   0.418   3.078  11.901  0.3152  0.1431 -0.1955
 4800TIP3    H138595   0.499   3.105  11.858  1.1772 -1.3049  0.4409
 4800TIP3    H238596   0.371   3.028  11.834  0.7215 -0.3819 -0.1051
 4801TIP3   OH238597   3.874   3.784  11.645  0.6242 -0.1986  0.3145
 4801TIP3    H138598   3.958   3.741  11.630 -0.1934 -1.7363 -0.1411
 4801TIP3    H238599   3.840   3.743  11.725 -1.2750 -2.3853 -1.4487
 4802TIP3   OH238600   5.391   6.308  10.518 -0.0071  0.1396  0.6506
 4802TIP3    H138601   5.360   6.364  10.448  0.0397  0.1519  0.6399
 4802TIP3    H238602   5.328   6.320  10.589  0.2570  0.5595  0.8190
 4803TIP3   OH238603   5.585   5.926  10.666  0.2494  0.0068  0.0922
 4803TIP3    H138604   5.675   5.958  10.674  0.5703 -0.1057 -2.3620
 4803TIP3    H238605   5.550   5.972  10.590 -1.8840  0.2420  1.1660
 4804TIP3   OH238606   4.534   0.061  10.094 -0.2405 -0.5005  0.6217
 4804TIP3    H138607   4.566   0.024  10.011 -0.2375 -1.6613  1.1228
 4804TIP3    H238608   4.567   0.151  10.094 -1.0456 -0.1581 -1.0763
 4805TIP3   OH238609   2.069   5.874  11.932  0.0577 -0.0231 -0.6400
 4805TIP3    H138610   2.095   5.957  11.891  0.1569  0.5059  0.4697
 4805TIP3    H238611   2.133   5.810  11.900 -0.6613  0.0764 -2.3741
 4806TIP3   OH238612   1.463   1.538   9.908  0.0143 -0.2730  0.0181
 4806TIP3    H138613   1.438   1.628   9.924  1.0977  0.3101 -1.3224
 4806TIP3    H238614   1.527   1.517   9.976  3.8036  1.8189 -2.4864
 4807TIP3   OH238615   0.166   0.440  10.398 -0.0736 -0.0546 -0.4512
 4807TIP3    H138616   0.193   0.451  10.307  0.1423 -0.2774 -0.4141
 4807TIP3    H238617   0.073   0.421  10.393 -0.1376  0.2878 -0.6041
 4808TIP3   OH238618   3.605   2.390  12.276 -0.2003 -0.5149  0.0689
 4808TIP3    H138619   3.552   2.331  12.223 -0.7971 -1.4156  1.5873
 4808TIP3    H238620   3.543   2.428  12.339  0.8094 -1.1211  1.4902
 4809TIP3   OH238621   2.027   4.587  11.823 -0.0160  0.7145 -0.2922
 4809TIP3    H138622   2.081   4.614  11.897 -1.3852 -0.9584  1.4244
 4809TIP3    H238623   2.090   4.558  11.757  1.2221  0.9445  0.7335
 4810TIP3   OH238624   6.491   1.429  12.177 -0.0558 -0.0713 -0.6134
 4810TIP3    H138625   6.487   1.514  12.221  2.1556  0.1110 -0.6384
 4810TIP3    H238626   6.554   1.378  12.229 -1.7398 -1.9286 -0.2730
 4811TIP3   OH238627   0.648   0.769  11.519  0.5802 -0.0351 -0.5109
 4811TIP3    H138628   0.702   0.778  11.598  0.9704  0.7221 -0.8460
 4811TIP3    H238629   0.592   0.847  11.520 -2.8670 -2.2878  1.5282
 4812TIP3   OH238630   5.088   0.785  12.017  0.2298 -0.1738  0.7298
 4812TIP3    H138631   5.044   0.858  12.060  0.1501  0.0715  0.2347
 4812TIP3    H238632   5.039   0.772  11.936  1.7031  0.7916 -0.3490
 4813TIP3   OH238633   6.201   3.493  12.137 -0.3640  0.5033  0.2693
 4813TIP3    H138634   6.193   3.404  12.171 -2.6095 -0.4690 -2.3928
 4813TIP3    H238635   6.262   3.486  12.063 -0.7789  1.0914 -0.1408
 4814TIP3   OH238636   1.756   3.484  10.152  0.2138  0.2970 -0.0467
 4814TIP3    H138637   1.713   3.556  10.106 -1.6277  0.2941  1.5133
 4814TIP3    H238638   1.812   3.527  10.216  0.6915  0.3198 -0.4775
 4815TIP3   OH238639   2.546   4.037  11.962  0.7327 -0.3516  0.0895
 4815TIP3    H138640   2.628   4.009  12.002  1.0841  0.1928 -0.2402
 4815TIP3    H238641   2.530   3.972  11.893  1.9532  0.6327 -1.1909
 4816TIP3   OH238642   4.069   0.573   9.601  0.0427 -0.1370  0.4430
 4816TIP3    H138643   3.980   0.571   9.567  0.6646  0.7325 -1.3438
 4816TIP3    H238644   4.105   0.486   9.582 -0.6256 -0.7576  1.8612
 4817TIP3   OH238645   4.824   3.187  10.662  0.1538  0.3475 -1.2244
 4817TIP3    H138646   4.767   3.246  10.712  1.1874  1.5490 -1.4156
 4817TIP3    H238647   4.877   3.245  10.608  1.9838 -0.6856 -0.6191
 4818TIP3   OH238648   6.545   2.622  11.123  0.2946 -0.4940 -0.0936
 4818TIP3    H138649   6.634   2.624  11.086  0.3029 -0.0630 -0.0630
 4818TIP3    H238650   6.517   2.714  11.121 -0.5491 -0.7634 -1.0597
 4819TIP3   OH238651   5.489   1.766  11.418  0.2156 -0.1232  0.3146
 4819TIP3    H138652   5.511   1.719  11.338  0.7228 -0.1683  0.4775
 4819TIP3    H238653   5.530   1.715  11.488  0.3758  0.3023  0.5347
 4820TIP3   OH238654   1.244   2.273  10.816  0.2694  0.4444  0.0989
 4820TIP3    H138655   1.179   2.223  10.865  0.3077  0.8973  0.6205
 4820TIP3    H238656   1.262   2.349  10.871 -1.2972  2.1314 -1.5486
 4821TIP3   OH238657   3.284   4.245  10.534 -0.1723  0.2873 -0.5755
 4821TIP3    H138658   3.190   4.228  10.525  0.1221 -2.2586  0.4194
 4821TIP3    H238659   3.324   4.196  10.462  0.5089 -0.2067  0.1326
 4822TIP3   OH238660   4.658   4.902  11.974 -0.2989 -0.0361 -0.0080
 4822TIP3    H138661   4.672   4.977  12.032  0.7275 -0.1071 -0.1308
 4822TIP3    H238662   4.582   4.857  12.010 -0.9187  1.0430  0.0821
 4823TIP3   OH238663   5.356   1.430  10.462  0.4425  0.2742 -0.1272
 4823TIP3    H138664   5.294   1.362  10.487  1.9143 -0.2720  2.4160
 4823TIP3    H238665   5.439   1.402  10.499  1.3927  2.8662 -0.0487
 4824TIP3   OH238666   3.807   3.360  11.509  0.4249  0.4303  0.4583
 4824TIP3    H138667   3.902   3.350  11.516  0.7019  2.7976  0.7560
 4824TIP3    H238668   3.789   3.351  11.415  1.0102  0.4309  0.3411
 4825TIP3   OH238669   3.885   4.571   9.032  0.6842 -0.0484 -0.5649
 4825TIP3    H138670   3.932   4.617   8.963 -0.9680  1.7489 -0.5890
 4825TIP3    H238671   3.796   4.562   8.999 -0.3833  1.6250  1.5968
 4826TIP3   OH238672   2.046   5.932  11.541  0.4253 -0.8224  0.3991
 4826TIP3    H138673   2.045   5.960  11.450 -0.3509 -1.1972  0.2871
 4826TIP3    H238674   2.088   6.005  11.588  0.4388 -0.4434 -0.1948
 4827TIP3   OH238675   3.604   0.822  12.082 -0.2526 -0.0479 -0.6188
 4827TIP3    H138676   3.624   0.874  12.004  1.3357 -0.3799 -0.4775
 4827TIP3    H238677   3.636   0.876  12.155  1.3908 -1.1435 -0.4678
 4828TIP3   OH238678   6.393   6.025  10.115 -0.0872  0.5991  0.4262
 4828TIP3    H138679   6.351   5.944  10.141 -1.9918  1.0037 -1.1576
 4828TIP3    H238680   6.462   5.998  10.054 -0.2568  0.1170  0.4493
 4829TIP3   OH238681   5.789   2.427  10.634  0.5449  0.4484 -0.3935
 4829TIP3    H138682   5.800   2.331  10.639  0.5648  0.4933  1.1095
 4829TIP3    H238683   5.853   2.461  10.696 -0.2825  1.3683 -0.0151
 4830TIP3   OH238684   4.428   2.209  10.699  0.0137  0.5298 -0.9568
 4830TIP3    H138685   4.446   2.126  10.743 -0.3209  1.3071  0.7220
 4830TIP3    H238686   4.357   2.188  10.638  0.8851 -0.6991 -1.5955
 4831TIP3   OH238687   3.740   2.889  10.024  0.2242  0.1325  0.0115
 4831TIP3    H138688   3.744   2.817  10.086  1.1618  1.4908  1.5990
 4831TIP3    H238689   3.674   2.862   9.960  0.2504 -1.9190  0.7786
 4832TIP3   OH238690   6.068   4.348  10.935  0.3452  0.3037  0.4897
 4832TIP3    H138691   6.093   4.373  10.846 -0.2608  1.7891  0.7115
 4832TIP3    H238692   5.973   4.359  10.937  0.2261 -0.7215  1.0313
 4833TIP3   OH238693   6.401   2.755   9.293  0.3034 -0.0519  0.0416
 4833TIP3    H138694   6.428   2.839   9.257  1.3532  0.4181  1.7899
 4833TIP3    H238695   6.306   2.755   9.285  0.1785  1.8176  1.0148
 4834TIP3   OH238696   0.914   5.242  12.190 -0.3191  0.2998 -0.2780
 4834TIP3    H138697   0.984   5.257  12.253 -0.1325 -1.7567  0.0622
 4834TIP3    H238698   0.950   5.179  12.127 -1.3287  0.4394 -1.0356
 4835TIP3   OH238699   3.463   0.250  10.325 -0.1110  0.0692 -0.7225
 4835TIP3    H138700   3.538   0.192  10.333 -1.5206 -1.7716  0.1133
 4835TIP3    H238701   3.495   0.336  10.353  2.0722 -0.2229 -2.1086
 4836TIP3   OH238702   1.124   5.967  10.538 -0.4292 -0.3467 -0.0642
 4836TIP3    H138703   1.206   6.013  10.521 -1.7008  2.6857  1.4044
 4836TIP3    H238704   1.108   5.979  10.631 -3.0884  0.1471 -0.5057
 4837TIP3   OH238705   4.868   1.131  10.828  0.4491  0.1184  0.3735
 4837TIP3    H138706   4.914   1.055  10.865  1.6441  0.3386 -0.6193
 4837TIP3    H238707   4.779   1.098  10.811  0.6700 -0.7719  0.8428
 4838TIP3   OH238708   5.885   2.230  11.056  0.3999 -0.4892 -0.5118
 4838TIP3    H138709   5.892   2.226  11.152  0.4712 -0.4276 -0.5150
 4838TIP3    H238710   5.795   2.206  11.038  0.4960 -0.9088 -0.4533
 4839TIP3   OH238711   5.333   2.361   8.758  0.6682 -0.1309  0.3304
 4839TIP3    H138712   5.270   2.312   8.704  2.1455 -1.1054 -0.6029
 4839TIP3    H238713   5.358   2.299   8.826 -0.3766  0.7335  1.5502
 4840TIP3   OH238714   2.851   3.585  12.132 -0.2185  0.1785 -0.1878
 4840TIP3    H138715   2.889   3.660  12.178 -1.1581 -0.0036  0.9341
 4840TIP3    H238716   2.878   3.596  12.041  0.5597  1.2864  0.1614
 4841TIP3   OH238717   3.782   5.160   9.522 -0.0605  0.1376  0.1592
 4841TIP3    H138718   3.718   5.225   9.551  1.1367  1.2864  0.2867
 4841TIP3    H238719   3.795   5.179   9.429 -0.7276 -0.8331 -0.1550
 4842TIP3   OH238720   5.886   6.029  12.417 -0.0627  0.1640  0.1303
 4842TIP3    H138721   5.846   5.942  12.423 -4.0035  1.7227 -0.8993
 4842TIP3    H238722   5.928   6.041  12.503 -2.2931 -1.4918  1.5621
 4843TIP3   OH238723   1.639   3.753  10.969  0.2571  0.3069 -0.3913
 4843TIP3    H138724   1.555   3.710  10.953  0.0062  0.9339 -0.7788
 4843TIP3    H238725   1.617   3.844  10.987  0.7729  0.2360  0.6793
 4844TIP3   OH238726   0.934   1.873  10.442  0.0665 -0.1602 -0.1447
 4844TIP3    H138727   0.998   1.919  10.388  1.0618  1.0315  1.9311
 4844TIP3    H238728   0.985   1.807  10.489 -0.2587  0.4614  1.1451
 4845TIP3   OH238729   0.508   6.030  11.581  0.3076 -0.4909  0.0823
 4845TIP3    H138730   0.585   6.000  11.533  0.5785  0.4339 -0.0793
 4845TIP3    H238731   0.438   6.028  11.517  0.5897  0.3887 -0.2610
 4846TIP3   OH238732   1.192   6.048  11.033 -0.1909 -0.3270  0.2249
 4846TIP3    H138733   1.161   6.119  11.089 -0.5717 -1.1958  1.1517
 4846TIP3    H238734   1.157   5.969  11.074 -0.0832 -1.0271 -0.9890
 4847TIP3   OH238735   0.257   2.699  11.026  0.3115  0.2974  0.4582
 4847TIP3    H138736   0.221   2.712  11.113  0.3714 -0.5841  0.6265
 4847TIP3    H238737   0.258   2.604  11.014 -1.1143  0.4155 -1.0894
 4848TIP3   OH238738   2.269   1.439  12.561 -0.1865  0.2167  0.7658
 4848TIP3    H138739   2.186   1.419  12.518  0.2445  1.4798 -0.7630
 4848TIP3    H238740   2.251   1.428  12.655 -2.1935  0.8990  0.5088
 4849TIP3   OH238741   4.422   5.091   9.758  0.5643 -0.1220 -0.1399
 4849TIP3    H138742   4.347   5.043   9.795  0.2142  0.4316 -0.1173
 4849TIP3    H238743   4.469   5.123   9.835  0.8130 -0.4477 -0.1546
 4850TIP3   OH238744   3.251   4.069  11.369  0.5344  0.9106  0.1575
 4850TIP3    H138745   3.172   4.032  11.410  0.8494  0.2998  0.2227
 4850TIP3    H238746   3.289   4.123  11.438  1.1467 -0.2384  0.7613
 4851TIP3   OH238747   0.380   2.953  10.978  0.6265  0.3333 -0.8899
 4851TIP3    H138748   0.315   3.007  11.022  0.6441 -0.4297  0.1133
 4851TIP3    H238749   0.347   2.864  10.987  1.0276  0.0908 -1.7549
 4852TIP3   OH238750   3.844   0.360   8.594 -0.2298  0.4105 -0.3181
 4852TIP3    H138751   3.790   0.360   8.515 -0.5306  0.2183 -0.1177
 4852TIP3    H238752   3.927   0.399   8.567 -0.7183  1.3738 -0.4585
 4853TIP3   OH238753   2.955   4.868  11.019  0.1449  0.0728 -0.1823
 4853TIP3    H138754   2.901   4.902  10.948  2.5611  1.1960 -1.6033
 4853TIP3    H238755   2.909   4.894  11.099 -1.2612  1.1754 -1.3027
 4854TIP3   OH238756   0.256   2.304   8.716  0.1362 -0.5111  0.1486
 4854TIP3    H138757   0.227   2.235   8.775 -1.8898 -0.0692 -0.2832
 4854TIP3    H238758   0.202   2.294   8.638  0.8979  0.6039 -0.5572
 4855TIP3   OH238759   0.362   5.268   9.191 -0.7441  0.2882  0.2821
 4855TIP3    H138760   0.343   5.201   9.257 -1.5362 -0.0653 -0.2853
 4855TIP3    H238761   0.455   5.287   9.202 -0.3416 -1.3869  0.0306
 4856TIP3   OH238762   2.250   3.689  12.556 -0.2096  0.5574  0.3765
 4856TIP3    H138763   2.186   3.760  12.555 -0.7923  0.0659  0.9885
 4856TIP3    H238764   2.333   3.730  12.533 -0.5227  1.4469  0.7859
 4857TIP3   OH238765   1.358   3.448  11.518  0.0873  0.0497  0.1107
 4857TIP3    H138766   1.307   3.438  11.437  1.0863  0.6030 -0.6198
 4857TIP3    H238767   1.334   3.373  11.571  0.5686 -1.2208 -1.3735
 4858TIP3   OH238768   2.586   4.080   9.346 -0.4005 -0.3308  0.3298
 4858TIP3    H138769   2.539   4.077   9.262  0.0990 -1.2843  0.0670
 4858TIP3    H238770   2.612   4.171   9.356 -1.3422 -0.0029 -0.0550
 4859TIP3   OH238771   5.416   0.251  12.099 -0.3117  0.2379 -0.1386
 4859TIP3    H138772   5.489   0.199  12.066 -0.3236 -0.0604  0.2951
 4859TIP3    H238773   5.399   0.315  12.030  1.6423  1.6067  0.5429
 4860TIP3   OH238774   6.071   4.146  12.329  0.1633 -0.6186  0.1559
 4860TIP3    H138775   6.137   4.090  12.286  1.3103  0.4567  0.4640
 4860TIP3    H238776   6.095   4.145  12.421  0.1751  0.3444  0.1712
 4861TIP3   OH238777   5.842   1.778  12.306  0.0872 -0.2877 -0.7523
 4861TIP3    H138778   5.794   1.775  12.223  0.2592  0.6848 -0.9083
 4861TIP3    H238779   5.786   1.732  12.368  0.2061 -1.5023 -1.5147
 4862TIP3   OH238780   5.317   2.944   9.527  0.1043 -0.0073  0.5101
 4862TIP3    H138781   5.296   3.035   9.510  1.1588  0.0551 -0.5106
 4862TIP3    H238782   5.410   2.936   9.509 -0.4920 -1.9322 -2.3714
 4863TIP3   OH238783   3.426   6.266  11.656  0.0067 -0.5352 -0.1191
 4863TIP3    H138784   3.433   6.361  11.658  3.8560 -0.6895 -0.0472
 4863TIP3    H238785   3.450   6.242  11.567 -0.0360 -1.5023  0.1159
 4864TIP3   OH238786   3.755   3.060   9.709 -0.0046 -0.2864 -0.7936
 4864TIP3    H138787   3.759   2.967   9.733  0.0358  0.0208  0.4807
 4864TIP3    H238788   3.828   3.100   9.757 -0.6218  0.5675 -0.5544
 4865TIP3   OH238789   0.666   4.651  10.523  1.0003 -0.8396 -0.9286
 4865TIP3    H138790   0.589   4.695  10.561  1.0810 -0.5950 -1.0472
 4865TIP3    H238791   0.722   4.633  10.599  0.3957 -1.8972 -0.7116
 4866TIP3   OH238792   5.252   0.059   9.519  0.0432 -0.2331  0.5869
 4866TIP3    H138793   5.249   0.014   9.435  1.3873 -0.2697  0.5285
 4866TIP3    H238794   5.312   0.132   9.505 -1.2750  0.9609  0.9821
 4867TIP3   OH238795   0.637   2.720   8.473  0.2603  0.5756 -0.6842
 4867TIP3    H138796   0.551   2.712   8.432 -0.6497  1.1839  1.0322
 4867TIP3    H238797   0.651   2.635   8.515 -0.8314  1.3619  1.4220
 4868TIP3   OH238798   0.718   1.041  11.950  0.5282  0.2271  0.3170
 4868TIP3    H138799   0.756   1.093  11.879 -0.9599  0.0796 -0.6367
 4868TIP3    H238800   0.647   0.992  11.908 -1.4554  1.3220  2.2005
 4869TIP3   OH238801   5.399   5.548  10.482  0.3130 -0.3730 -0.4703
 4869TIP3    H138802   5.337   5.555  10.554  0.8076 -1.3047  0.0634
 4869TIP3    H238803   5.383   5.626  10.429  0.4847  0.7281  1.0583
 4870TIP3   OH238804   0.101   3.322   9.558  0.0800 -0.2255 -0.6280
 4870TIP3    H138805   0.074   3.236   9.589 -2.3547  0.3460 -0.9508
 4870TIP3    H238806   0.032   3.349   9.498  1.5190  1.3512 -1.6928
 4871TIP3   OH238807   3.516   1.092   9.245 -0.4964  0.4948 -0.2667
 4871TIP3    H138808   3.543   1.132   9.162 -0.0555 -0.6641 -0.7067
 4871TIP3    H238809   3.516   1.165   9.308  1.1086  1.0519 -0.8474
 4872TIP3   OH238810   2.314   0.682   9.096 -0.7542 -0.0264 -0.5368
 4872TIP3    H138811   2.221   0.690   9.074 -0.6904 -1.2316 -1.3525
 4872TIP3    H238812   2.317   0.691   9.192 -1.4697  1.7890 -0.6455
 4873TIP3   OH238813   4.096   1.703  10.780 -0.1470  0.3304  0.0095
 4873TIP3    H138814   4.191   1.703  10.769 -0.0994  0.1487  0.4288
 4873TIP3    H238815   4.080   1.643  10.852 -0.6175  0.0016 -0.3622
 4874TIP3   OH238816   6.130   1.434  11.764 -0.0543  0.5186  0.2679
 4874TIP3    H138817   6.087   1.352  11.786  0.0943  1.0232  2.6276
 4874TIP3    H238818   6.223   1.418  11.782 -0.2406  1.7147  2.5780
 4875TIP3   OH238819   4.940   4.525  10.205  0.5746 -0.1094 -0.5831
 4875TIP3    H138820   4.967   4.467  10.275  0.0669 -0.0947 -0.3707
 4875TIP3    H238821   4.896   4.468  10.142  0.5939 -0.0466 -0.6538
 4876TIP3   OH238822   3.644   3.907  11.195 -0.2009 -0.0647  0.9694
 4876TIP3    H138823   3.695   3.922  11.115  1.9846 -0.7434  2.1530
 4876TIP3    H238824   3.709   3.904  11.265 -1.8968 -0.9027  2.6095
 4877TIP3   OH238825   2.602   3.275  11.005 -0.0832 -0.3918  1.2565
 4877TIP3    H138826   2.548   3.353  11.015 -1.5629 -1.5984  3.4908
 4877TIP3    H238827   2.668   3.281  11.074  0.4285 -0.6416  0.8013
 4878TIP3   OH238828   5.421   1.390   9.584 -0.0892  0.4842 -0.0159
 4878TIP3    H138829   5.396   1.318   9.526  0.0737  1.7831 -1.8046
 4878TIP3    H238830   5.404   1.358   9.672  0.3725 -1.8719 -0.7266
 4879TIP3   OH238831   5.702   2.419  11.838 -0.7959  0.0918 -0.4313
 4879TIP3    H138832   5.696   2.323  11.838  3.2328 -0.4619  2.9266
 4879TIP3    H238833   5.793   2.437  11.814 -0.6289  2.8666  1.7611
 4880TIP3   OH238834   3.182   5.800   8.554 -0.0499  0.1448  0.4344
 4880TIP3    H138835   3.235   5.757   8.622  0.9886  2.4184  1.1439
 4880TIP3    H238836   3.137   5.727   8.510  1.6764 -1.6666  1.4796
 4881TIP3   OH238837   0.774   6.100  10.360 -0.0315 -0.3867 -0.1775
 4881TIP3    H138838   0.799   6.123  10.450 -0.2349 -3.6209  0.8373
 4881TIP3    H238839   0.679   6.112  10.358  0.0891  0.5712 -0.2611
 4882TIP3   OH238840   0.843   5.715  10.968  0.4387  0.1698  0.2791
 4882TIP3    H138841   0.748   5.721  10.960  0.4844 -0.4374 -0.9900
 4882TIP3    H238842   0.873   5.806  10.958  0.1879 -0.0125 -3.2480
 4883TIP3   OH238843   5.529   5.744   9.712 -0.3872 -0.4521  0.0243
 4883TIP3    H138844   5.468   5.745   9.639  1.3392 -0.6302 -1.4982
 4883TIP3    H238845   5.484   5.696   9.782 -1.4492 -1.7457 -1.4971
 4884TIP3   OH238846   5.986   5.148  11.608 -0.4689  0.2414 -0.1815
 4884TIP3    H138847   5.991   5.150  11.704  1.9655  0.0241 -0.2482
 4884TIP3    H238848   5.938   5.227  11.584 -2.9341 -0.6918  1.2302
 4885TIP3   OH238849   2.725   3.685   9.382  0.1940  0.4959  0.5373
 4885TIP3    H138850   2.742   3.593   9.404  0.7546  0.7394  1.1582
 4885TIP3    H238851   2.727   3.730   9.466 -1.2981  0.8992  0.3839
 4886TIP3   OH238852   3.373   6.051  11.142 -0.0356 -0.1073 -0.0379
 4886TIP3    H138853   3.458   6.010  11.159  0.3582  0.1605 -1.2370
 4886TIP3    H238854   3.384   6.093  11.057 -0.7371  1.6569  0.7008
 4887TIP3   OH238855   3.568   5.804  10.661  0.2414 -0.4041 -0.8843
 4887TIP3    H138856   3.663   5.810  10.674  0.2083  0.2804 -0.8989
 4887TIP3    H238857   3.535   5.758  10.738  0.5139 -0.0801 -0.5712
 4888TIP3   OH238858   1.918   4.450  11.498  0.2431  0.3085  0.0369
 4888TIP3    H138859   1.981   4.471  11.567  0.5013  0.7204 -0.3195
 4888TIP3    H238860   1.932   4.357  11.480  1.6091  0.6608 -0.8845
 4889TIP3   OH238861   4.138   2.728  11.610  0.1805 -0.0672 -0.0967
 4889TIP3    H138862   4.208   2.791  11.626  0.0357  0.3321 -1.0197
 4889TIP3    H238863   4.151   2.661  11.678  1.3645  0.0756 -0.1666
 4890TIP3   OH238864   2.701   2.929  12.258  0.2845 -0.1643 -0.8025
 4890TIP3    H138865   2.794   2.939  12.241  0.0362  0.4853 -1.9034
 4890TIP3    H238866   2.674   3.015  12.292  0.7348 -1.3770  2.9660
 4891TIP3   OH238867   4.914   0.320  10.547  0.1479  0.0580 -0.0144
 4891TIP3    H138868   4.853   0.255  10.580 -1.4893  0.8859 -1.2421
 4891TIP3    H238869   4.899   0.398  10.601  1.1798 -0.1608  0.6152
 4892TIP3   OH238870   2.494   3.434  11.509  0.1902 -0.1791 -0.7172
 4892TIP3    H138871   2.440   3.386  11.572 -2.7811  1.8198 -1.5234
 4892TIP3    H238872   2.562   3.476  11.562 -1.7833  0.8579  1.1230
 4893TIP3   OH238873   4.989   3.805  11.908 -0.4534 -0.1791  0.2769
 4893TIP3    H138874   5.022   3.881  11.955 -2.0515 -0.2134  1.5799
 4893TIP3    H238875   4.934   3.841  11.838  0.6595 -0.1424 -0.5994
 4894TIP3   OH238876   0.302   2.976  10.069  0.5360 -0.6559  0.7117
 4894TIP3    H138877   0.271   2.908  10.128  1.3195 -0.7009  1.0858
 4894TIP3    H238878   0.391   2.996  10.100 -0.1478  1.4852  1.4504
 4895TIP3   OH238879   5.280   5.276  10.438 -0.1031 -0.4846 -0.1091
 4895TIP3    H138880   5.327   5.359  10.443  0.9944 -1.0047 -1.1125
 4895TIP3    H238881   5.240   5.276  10.351 -1.2599 -0.4326  0.4061
 4896TIP3   OH238882   0.986   6.478  11.431  0.0295 -0.2811 -0.0534
 4896TIP3    H138883   0.908   6.488  11.486  0.1650 -0.8040  0.2416
 4896TIP3    H238884   1.056   6.520  11.481  0.1840 -0.8881  0.2564
 4897TIP3   OH238885   4.735   2.971  10.365  0.1674 -0.3082 -0.2148
 4897TIP3    H138886   4.740   3.034  10.294  0.6216  1.0572  0.9907
 4897TIP3    H238887   4.651   2.928  10.353 -0.1993  0.6006 -1.0012
 4898TIP3   OH238888   4.312   1.040   9.487 -0.1075 -0.7952  0.2861
 4898TIP3    H138889   4.351   1.037   9.400  0.3929 -0.9224  0.5144
 4898TIP3    H238890   4.246   0.970   9.486 -1.0189  0.0375 -0.4165
 4899TIP3   OH238891   2.921   2.110   8.726 -0.0193 -0.3289 -0.0941
 4899TIP3    H138892   2.906   2.015   8.727 -0.5757 -0.2541 -0.5970
 4899TIP3    H238893   2.844   2.145   8.682 -1.0683  0.5766  2.2938
 4900TIP3   OH238894   2.919   0.984   9.416 -0.2861  0.4327  0.1971
 4900TIP3    H138895   2.890   0.914   9.357 -1.0086  0.5244  0.4378
 4900TIP3    H238896   3.004   1.011   9.380 -1.3746  1.5100 -1.7175
 4901TIP3   OH238897   4.162   4.356  11.695  0.4136  0.3929  0.7500
 4901TIP3    H138898   4.211   4.281  11.729  0.9599 -0.7467 -2.1983
 4901TIP3    H238899   4.070   4.332  11.705  0.5617 -0.0518  1.0690
 4902TIP3   OH238900   5.111   2.920  10.933  0.1158 -0.5900  0.3945
 4902TIP3    H138901   5.081   2.926  10.842  1.2712  0.1483  0.0413
 4902TIP3    H238902   5.060   2.848  10.970 -2.4031  0.8435 -0.0241
 4903TIP3   OH238903   2.634   2.554  11.152  0.0701 -0.0043 -0.3573
 4903TIP3    H138904   2.608   2.462  11.151  1.2305 -0.3696  0.5264
 4903TIP3    H238905   2.565   2.598  11.201 -0.0114 -0.5609  0.0389
 4904TIP3   OH238906   1.580   4.214  10.148 -0.0964 -0.7597  0.3621
 4904TIP3    H138907   1.667   4.199  10.110 -1.2844 -0.2560 -2.8229
 4904TIP3    H238908   1.571   4.309  10.148 -0.6802 -0.8128  0.6702
 4905TIP3   OH238909   2.162   2.259  10.974  0.1209  0.2502 -0.4671
 4905TIP3    H138910   2.140   2.352  10.972  1.9984  0.7986  1.1388
 4905TIP3    H238911   2.105   2.222  11.041 -0.6094  0.2145 -1.0890
 4906TIP3   OH238912   4.425   5.391  12.022 -0.2352 -0.2730 -0.2195
 4906TIP3    H138913   4.352   5.347  11.978 -0.4443 -0.0424 -0.1026
 4906TIP3    H238914   4.470   5.438  11.952  0.6708 -1.5796 -0.5598
 4907TIP3   OH238915   4.261   2.110  11.739 -0.2120  0.2288  0.0045
 4907TIP3    H138916   4.198   2.162  11.689 -0.7790  0.1255  0.6024
 4907TIP3    H238917   4.208   2.049  11.789  0.3658  0.0964  0.4712
 4908TIP3   OH238918   4.153   5.394  10.512 -0.3749 -0.2443 -0.1942
 4908TIP3    H138919   4.210   5.363  10.583  1.0701  0.0379 -1.1822
 4908TIP3    H238920   4.195   5.361  10.432 -1.1840  0.6368 -1.0016
 4909TIP3   OH238921   2.639   3.166   9.739 -0.3218 -0.0204  0.5353
 4909TIP3    H138922   2.568   3.106   9.715 -0.7030 -0.5372  2.7455
 4909TIP3    H238923   2.666   3.137   9.827  1.3986  1.3072  0.4906
 4910TIP3   OH238924   1.729   1.165  11.744  0.2705 -0.2935 -0.2517
 4910TIP3    H138925   1.706   1.141  11.834 -1.0374 -1.8009 -0.9583
 4910TIP3    H238926   1.663   1.229  11.719 -0.0710 -0.7481 -0.5245
 4911TIP3   OH238927   5.474   3.682  12.182 -0.1808 -0.5408 -0.0109
 4911TIP3    H138928   5.382   3.664  12.166 -0.6277  0.8081  0.8749
 4911TIP3    H238929   5.475   3.766  12.229  1.4326 -0.9098  0.7091
 4912TIP3   OH238930   5.019   0.117  11.292  0.3694  0.0810  0.2447
 4912TIP3    H138931   4.987   0.187  11.349 -0.1185 -0.3383  0.4983
 4912TIP3    H238932   5.114   0.120  11.299  0.4088  1.3395 -0.4906
 4913TIP3   OH238933   3.744   6.360  11.666  0.3116  0.6631  0.3149
 4913TIP3    H138934   3.743   6.366  11.571  0.2540  0.5640  0.3097
 4913TIP3    H238935   3.799   6.434  11.694 -1.0303  1.7155  0.2962
 4914TIP3   OH238936   0.602   5.640  10.298 -0.1400  0.3785 -0.1691
 4914TIP3    H138937   0.576   5.682  10.380  1.6280 -0.2181  0.7576
 4914TIP3    H238938   0.698   5.635  10.304  0.0272  0.2713 -2.2636
 4915TIP3   OH238939   1.870   2.423  10.422  0.3134  0.2998 -0.1748
 4915TIP3    H138940   1.804   2.389  10.483  1.3831 -1.7986 -0.0794
 4915TIP3    H238941   1.950   2.430  10.475  0.6021  1.0996 -0.7060
 4916TIP3   OH238942   2.323   3.153  12.576  0.1653 -0.0339  0.0973
 4916TIP3    H138943   2.418   3.145  12.564  0.1786 -0.5714  0.5160
 4916TIP3    H238944   2.313   3.227  12.636  0.2667  0.5668 -0.6100
 4917TIP3   OH238945   3.609   6.179  10.743 -0.5626 -0.0259 -0.1482
 4917TIP3    H138946   3.535   6.199  10.686 -1.6464 -1.0620  0.8324
 4917TIP3    H238947   3.583   6.213  10.829 -0.5176 -1.5632  0.5087
 4918TIP3   OH238948   3.238   0.258  10.124  0.2264 -0.0375 -0.3780
 4918TIP3    H138949   3.186   0.178  10.116 -0.8752  0.2504  2.6042
 4918TIP3    H238950   3.314   0.231  10.175 -0.5561  0.8701  1.3727
 4919TIP3   OH238951   1.363   4.388  10.988 -0.3579 -0.3092  0.2908
 4919TIP3    H138952   1.321   4.317  11.038 -0.9407  0.1176  0.4130
 4919TIP3    H238953   1.297   4.414  10.924 -0.4253  0.6197  0.7255
 4920TIP3   OH238954   1.787   1.514  12.057 -0.2825  0.1328  0.5612
 4920TIP3    H138955   1.723   1.517  12.128  0.2819 -2.2031  1.2295
 4920TIP3    H238956   1.816   1.423  12.054 -0.0073  0.2218 -2.4304
 4921TIP3   OH238957   6.489   1.614  10.029  0.7077  0.1047 -0.0083
 4921TIP3    H138958   6.486   1.594   9.935 -0.7453  0.7259 -0.1148
 4921TIP3    H238959   6.571   1.663  10.040  1.0196 -0.1937 -0.8947
 4922TIP3   OH238960   1.662   1.324  12.319  0.1284 -0.4126 -0.3029
 4922TIP3    H138961   1.594   1.265  12.351  0.7067  0.1640  2.1951
 4922TIP3    H238962   1.615   1.402  12.290 -0.4001 -0.7847 -0.4571
 4923TIP3   OH238963   4.244   2.274  12.493  0.1107 -0.0958  0.2412
 4923TIP3    H138964   4.244   2.191  12.540 -0.7762 -2.1994 -3.1167
 4923TIP3    H238965   4.151   2.298  12.487  0.0526 -0.6542 -1.5677
 4924TIP3   OH238966   5.364   2.369   9.241 -0.1347  0.2811  0.3219
 4924TIP3    H138967   5.411   2.288   9.224  1.7893  1.2756  0.6655
 4924TIP3    H238968   5.296   2.345   9.304  1.3561 -0.7970  1.5771
 4925TIP3   OH238969   3.835   3.622  10.124  0.0416  0.0870 -0.1015
 4925TIP3    H138970   3.917   3.573  10.131  0.1085  0.0454 -0.9743
 4925TIP3    H238971   3.772   3.558  10.090 -0.7050 -0.2339  1.7579
 4926TIP3   OH238972   1.315   2.448  11.004  0.2941  0.0518 -0.2340
 4926TIP3    H138973   1.351   2.397  11.077 -1.1481  0.0381  0.5098
 4926TIP3    H238974   1.371   2.525  10.999 -0.7978  1.1319  2.3385
 4927TIP3   OH238975   5.208   5.902  12.078  0.5236  0.2045 -0.1687
 4927TIP3    H138976   5.227   5.979  12.024  0.8204 -0.4452 -1.0182
 4927TIP3    H238977   5.113   5.902  12.089  0.2133 -0.6981 -2.3524
 4928TIP3   OH238978   6.519   0.217  11.579  0.3434 -0.4356 -0.1057
 4928TIP3    H138979   6.444   0.195  11.633  1.2932 -1.2772  0.9141
 4928TIP3    H238980   6.579   0.264  11.637  0.2703  0.9828 -1.1173
 4929TIP3   OH238981   5.610   6.005   9.793 -0.4075  0.7026  0.4428
 4929TIP3    H138982   5.615   5.912   9.775 -0.7146  1.0164 -1.4287
 4929TIP3    H238983   5.662   6.017   9.873  2.5388 -0.5607 -1.1673
 4930TIP3   OH238984   5.211   1.050  10.722 -0.0200 -0.2525  0.1726
 4930TIP3    H138985   5.121   1.051  10.688 -0.0913 -1.3271  0.2934
 4930TIP3    H238986   5.266   1.052  10.644 -0.1310  0.7355  0.1037
 4931TIP3   OH238987   5.256   2.669   9.539  0.4292  0.1305  0.2378
 4931TIP3    H138988   5.190   2.616   9.584 -0.6690  2.1213  1.0932
 4931TIP3    H238989   5.220   2.757   9.538  1.9650  0.8093 -1.5804
 4932TIP3   OH238990   5.300   2.149   9.648  0.4621  0.3260 -0.1065
 4932TIP3    H138991   5.346   2.202   9.714  0.2595  0.2454  0.1001
 4932TIP3    H238992   5.324   2.059   9.669 -0.8751  0.1567  0.8728
 4933TIP3   OH238993   4.425   4.333  10.651 -0.2920 -0.7667  0.0427
 4933TIP3    H138994   4.467   4.319  10.735 -1.2340  1.4029  0.9579
 4933TIP3    H238995   4.461   4.264  10.594  1.0863 -1.6947  1.9258
 4934TIP3   OH238996   0.035   1.425   9.341 -0.2139 -0.4041  0.7021
 4934TIP3    H138997   0.065   1.343   9.301  0.7083  0.6855 -0.9525
 4934TIP3    H238998   0.086   1.493   9.298 -1.1399  1.0846  1.8543
 4935TIP3   OH238999   3.054   1.701  10.587  0.2698 -0.1635 -0.0585
 4935TIP3    H139000   2.997   1.773  10.614  1.0604  0.7002 -0.6024
 4935TIP3    H239001   3.119   1.743  10.530  0.5851 -1.3648 -0.6060
 4936TIP3   OH239002   2.735   3.175  10.018  1.1194 -1.0228  0.2851
 4936TIP3    H139003   2.676   3.162  10.092  0.4564 -2.2133 -0.4216
 4936TIP3    H239004   2.814   3.213  10.057  0.0388  0.2842  1.2949
 4937TIP3   OH239005   2.861   0.301  10.625 -0.0254 -0.4923  0.4768
 4937TIP3    H139006   2.921   0.337  10.560 -0.8959 -1.4218 -0.9038
 4937TIP3    H239007   2.916   0.248  10.683  0.7177  0.0595  0.2784
 4938TIP3   OH239008   2.949   6.177   9.329  0.3867  0.5316  0.1980
 4938TIP3    H139009   2.866   6.185   9.376  0.3499 -2.9823  0.9950
 4938TIP3    H239010   2.925   6.186   9.237 -0.1499  3.4618  0.5031
 4939TIP3   OH239011   3.404   1.382   9.222  0.2752 -0.4437 -0.3480
 4939TIP3    H139012   3.363   1.379   9.135 -0.3849  1.4611 -0.1419
 4939TIP3    H239013   3.342   1.337   9.279 -0.8757  1.1145 -0.3141
 4940TIP3   OH239014   1.263   0.316   9.525 -0.3648 -0.1878  0.4321
 4940TIP3    H139015   1.278   0.229   9.488  2.3745  1.1893 -1.9960
 4940TIP3    H239016   1.338   0.331   9.583 -0.3515  0.8906  0.1498
 4941TIP3   OH239017   0.729   0.797  11.167  0.3733 -0.3467  0.1176
 4941TIP3    H139018   0.740   0.702  11.155 -1.9391 -0.5533 -0.9896
 4941TIP3    H239019   0.636   0.808  11.188  0.8788  1.6013  1.6231
 4942TIP3   OH239020   1.071   5.843   9.903 -0.4264  0.2312 -0.0511
 4942TIP3    H139021   1.046   5.863   9.993  0.1877 -1.5251  0.5450
 4942TIP3    H239022   1.122   5.919   9.875 -1.3564  1.1841  0.7543
 4943TIP3   OH239023   4.555   3.515  11.175  0.6185 -0.4709  0.1080
 4943TIP3    H139024   4.604   3.511  11.257  3.1606 -0.4993 -1.2990
 4943TIP3    H239025   4.545   3.609  11.158 -0.6915 -0.4543  0.8260
 4944TIP3   OH239026   4.181   0.094  10.116 -0.5879  0.0722 -0.0957
 4944TIP3    H139027   4.275   0.078  10.128 -0.7408 -0.2538  0.7269
 4944TIP3    H239028   4.140   0.009  10.132 -1.1193  0.4887  0.8230
 4945TIP3   OH239029   0.724   4.493  11.580  0.0056  0.2582 -0.3217
 4945TIP3    H139030   0.636   4.513  11.549 -1.1686 -2.1140  1.1788
 4945TIP3    H239031   0.724   4.399  11.597  1.9617  0.5767  2.2526
 4946TIP3   OH239032   1.791   4.286   9.723 -0.4060 -0.0650 -0.5971
 4946TIP3    H139033   1.838   4.321   9.647  2.3512 -0.7554  0.6756
 4946TIP3    H239034   1.794   4.191   9.712 -1.1841 -0.1319 -0.2893
 4947TIP3   OH239035   0.713   0.842  10.281  0.2868  0.0995 -0.2167
 4947TIP3    H139036   0.789   0.900  10.289  0.2372  0.0256  0.9781
 4947TIP3    H239037   0.682   0.831  10.371 -0.2092 -1.1149 -0.5167
 4948TIP3   OH239038   2.106   5.778  12.450 -0.1788  0.3970 -0.2056
 4948TIP3    H139039   2.073   5.783  12.540  1.1780  1.1375  0.2841
 4948TIP3    H239040   2.029   5.787  12.395 -0.9608  0.5050  0.8852
 4949TIP3   OH239041   0.888   5.744   9.619  0.2253  0.0594 -0.1143
 4949TIP3    H139042   0.887   5.759   9.525 -0.9893 -1.2816 -0.3346
 4949TIP3    H239043   0.966   5.791   9.649 -0.1391  1.7078 -1.5579
 4950TIP3   OH239044   2.666   5.399  12.163 -0.0415  0.0423 -0.0777
 4950TIP3    H139045   2.738   5.362  12.112  1.6308  1.1906  1.3060
 4950TIP3    H239046   2.636   5.326  12.218  2.1920  0.2272  1.5378
 4951TIP3   OH239047   2.012   0.652   9.055 -0.5913  0.3412 -0.3106
 4951TIP3    H139048   2.037   0.561   9.069 -0.2561  0.4345 -0.2839
 4951TIP3    H239049   1.919   0.649   9.033 -0.5714 -0.0094 -0.3459
 4952TIP3   OH239050   3.465   4.853   8.816 -0.2838  0.3677 -0.1483
 4952TIP3    H139051   3.461   4.780   8.754  1.2979 -0.3843  0.5752
 4952TIP3    H239052   3.549   4.894   8.798  0.5581 -0.3158  1.9396
 4953TIP3   OH239053   1.720   0.992  10.833 -0.2800 -0.1009  0.5123
 4953TIP3    H139054   1.710   0.957  10.921 -0.5604  2.3508  1.5444
 4953TIP3    H239055   1.815   0.992  10.818 -0.0466  1.3347  1.7117
 4954TIP3   OH239056   6.605   4.890   9.740 -0.7341  0.0140 -0.2718
 4954TIP3    H139057   6.631   4.852   9.656 -1.0813 -0.0076 -0.3724
 4954TIP3    H239058   6.677   4.949   9.763  0.2308 -1.3289  0.3066
 4955TIP3   OH239059   6.548   0.038  10.412 -0.0603  0.4747  0.4103
 4955TIP3    H139060   6.540   0.003  10.323 -1.1300  1.1669  0.2203
 4955TIP3    H239061   6.600  -0.028  10.458  0.1505 -0.1038 -0.6140
 4956TIP3   OH239062   1.017   3.403  11.550  0.5272  0.3919  0.0252
 4956TIP3    H139063   0.922   3.397  11.539  0.6553 -2.9817 -0.4361
 4956TIP3    H239064   1.051   3.406  11.460  0.8822 -0.3463  0.1290
 4957TIP3   OH239065   5.944   4.779   9.867 -0.3580  0.2104 -0.6508
 4957TIP3    H139066   5.907   4.704   9.821 -0.1203  0.3204 -1.0309
 4957TIP3    H239067   5.905   4.855   9.825  0.3626  0.3325 -1.1275
 4958TIP3   OH239068   5.641   1.723  10.476  0.2305  0.1757 -0.4706
 4958TIP3    H139069   5.718   1.773  10.448 -0.3472  0.4063 -1.7214
 4958TIP3    H239070   5.675   1.636  10.498  0.7699  0.0882 -1.6166
 4959TIP3   OH239071   0.145   3.517  12.362  0.6396  0.0717  0.0541
 4959TIP3    H139072   0.225   3.474  12.331  0.0407  0.4946 -2.2037
 4959TIP3    H239073   0.091   3.445  12.395  0.2947 -0.7874 -2.2212
 4960TIP3   OH239074   4.064   4.045  10.924 -0.0511  0.1398  0.1146
 4960TIP3    H139075   4.118   3.968  10.938 -1.7779 -0.7142  3.0428
 4960TIP3    H239076   4.086   4.104  10.996 -1.0274  0.9831 -0.2422
 4961TIP3   OH239077   6.529   0.750  11.763  0.4111  0.1097 -0.5197
 4961TIP3    H139078   6.446   0.722  11.803  1.2667 -1.3663  0.3085
 4961TIP3    H239079   6.507   0.766  11.672 -1.3007  2.1558  0.1734
 4962TIP3   OH239080   3.800   5.717  12.397  0.2662 -0.2501 -0.1654
 4962TIP3    H139081   3.807   5.724  12.301  2.0832  1.5177  0.0094
 4962TIP3    H239082   3.762   5.800  12.424  0.1529 -0.5673  0.6771
 4963TIP3   OH239083   6.411   5.482  12.402  0.0834  0.1290  0.2180
 4963TIP3    H139084   6.382   5.556  12.455  1.0657  2.9314 -2.7452
 4963TIP3    H239085   6.331   5.447  12.363 -0.3417 -0.0227  1.2101
 4964TIP3   OH239086   3.905   4.044   9.412  0.5752  0.4495  0.3033
 4964TIP3    H139087   3.888   4.129   9.453 -0.8387  0.9510 -1.1982
 4964TIP3    H239088   3.936   4.066   9.324  1.0723 -0.6003  0.1981
 4965TIP3   OH239089   2.903   1.704   9.478 -0.2261  0.0699  0.2723
 4965TIP3    H139090   2.905   1.769   9.549 -0.8520  0.9308 -0.4760
 4965TIP3    H239091   2.977   1.728   9.422  0.7182 -1.0589  0.9973
 4966TIP3   OH239092   4.556   1.290  12.715  0.4719  0.3886 -0.2223
 4966TIP3    H139093   4.615   1.362  12.692  1.1418 -0.6958 -2.1964
 4966TIP3    H239094   4.612   1.225  12.757  0.1232  0.5018  0.4190
 4967TIP3   OH239095   1.569   4.625   9.615  0.3391 -0.1793 -0.4591
 4967TIP3    H139096   1.501   4.559   9.626  3.5903 -3.5027  2.2505
 4967TIP3    H239097   1.605   4.608   9.528 -0.3325 -0.3634 -0.7071
 4968TIP3   OH239098   4.947   5.709  11.538 -0.2426 -0.6424  0.3139
 4968TIP3    H139099   4.909   5.637  11.589  1.5208 -0.9312  1.2904
 4968TIP3    H239100   4.938   5.786  11.594  0.6838 -0.7368  0.6061
 4969TIP3   OH239101   2.128   3.817  10.906 -0.0071 -0.0948 -0.1257
 4969TIP3    H139102   2.122   3.727  10.872 -0.7797 -0.1189  0.0737
 4969TIP3    H239103   2.158   3.807  10.996 -0.7194 -0.1858  0.0991
 4970TIP3   OH239104   4.967   4.994  12.257 -0.3573  0.3720  0.0548
 4970TIP3    H139105   4.962   4.915  12.202  1.7663 -0.7973  1.4102
 4970TIP3    H239106   4.998   5.062  12.198  2.1079 -0.9010 -0.2695
 4971TIP3   OH239107   2.692   2.866  11.377 -0.2728 -0.3582 -0.3088
 4971TIP3    H139108   2.638   2.795  11.413 -0.1530 -0.6904 -0.7785
 4971TIP3    H239109   2.782   2.838  11.392 -0.2000  0.5905  1.2608
 4972TIP3   OH239110   6.084   0.578  12.423 -0.4773 -0.7247 -0.1323
 4972TIP3    H139111   6.022   0.605  12.491 -0.1862  0.3756 -0.2731
 4972TIP3    H239112   6.140   0.655  12.410 -1.3499 -0.4168 -2.5574
 4973TIP3   OH239113   0.771   5.432  11.629 -0.3663  0.1589 -0.1151
 4973TIP3    H139114   0.822   5.461  11.554 -1.3564 -0.9122 -1.2535
 4973TIP3    H239115   0.773   5.505  11.690 -0.9247  1.7200 -1.8937
 4974TIP3   OH239116   1.089   1.046   9.472 -0.5372  0.3216 -0.3450
 4974TIP3    H139117   1.061   1.017   9.559  0.9151  0.3619  0.1586
 4974TIP3    H239118   1.014   1.095   9.438 -1.5946 -0.7642  0.3552
 4975TIP3   OH239119   1.025   6.283   9.320 -0.2529 -0.1703 -0.6057
 4975TIP3    H139120   0.948   6.314   9.272 -0.4854  1.2880  0.6319
 4975TIP3    H239121   1.049   6.201   9.276 -3.2094 -1.3322 -0.2802
 4976TIP3   OH239122   1.493   3.442   8.708 -0.2343  0.0995  0.1226
 4976TIP3    H139123   1.586   3.461   8.720 -0.3494 -0.3959  2.2233
 4976TIP3    H239124   1.489   3.348   8.694 -0.2487  0.4603 -3.0234
 4977TIP3   OH239125   1.400   1.055  11.670  0.3817  0.0639  0.1247
 4977TIP3    H139126   1.334   1.100  11.617  0.5401  0.6969  0.4570
 4977TIP3    H239127   1.436   0.988  11.611 -0.9190 -0.6556  0.1105
 4978TIP3   OH239128   3.202   0.248  11.980  0.1500 -0.0815  0.3395
 4978TIP3    H139129   3.131   0.184  11.991  1.8049 -1.7190  2.3801
 4978TIP3    H239130   3.270   0.199  11.935  0.9823  0.6092  0.8282
 4979TIP3   OH239131   1.694   1.960   9.915  0.2656  0.3883  0.4624
 4979TIP3    H139132   1.633   2.023   9.952 -0.1765 -0.3137  0.9630
 4979TIP3    H239133   1.642   1.908   9.854  0.8248  1.0561 -0.6176
 4980TIP3   OH239134   0.283   1.425  11.317 -0.2932 -0.0392  0.0770
 4980TIP3    H139135   0.263   1.357  11.252 -1.1290 -0.1716  0.4613
 4980TIP3    H239136   0.229   1.499  11.291 -0.7920 -0.1629  0.7269
 4981TIP3   OH239137   2.033   1.165   9.475  0.0497  0.0037  0.3403
 4981TIP3    H139138   1.965   1.141   9.538  1.5324  1.0371  2.4682
 4981TIP3    H239139   2.009   1.119   9.394 -2.9424  0.0860  1.0932
 4982TIP3   OH239140   3.565   3.391  11.100  0.0841 -0.6691  0.0587
 4982TIP3    H139141   3.631   3.365  11.164  0.0149  0.7632  0.7546
 4982TIP3    H239142   3.532   3.308  11.064  1.1498 -1.4516  0.8112
 4983TIP3   OH239143   1.527   0.506   8.618 -0.2154  0.3092 -0.0343
 4983TIP3    H139144   1.444   0.495   8.573 -1.1709  1.0245  1.4814
 4983TIP3    H239145   1.529   0.599   8.642  0.2854 -0.0363  1.3230
 4984TIP3   OH239146   2.621   1.493  11.017  0.1565  1.0281 -0.2244
 4984TIP3    H139147   2.697   1.436  11.007 -0.5573 -0.2393  1.1374
 4984TIP3    H239148   2.658   1.580  11.032  1.2834  0.7963 -1.4614
 4985TIP3   OH239149   4.046   4.593  11.526 -0.3282 -0.1649  0.5876
 4985TIP3    H139150   3.963   4.546  11.530  0.5729 -1.8223  0.8560
 4985TIP3    H239151   4.093   4.565  11.604  0.1665  1.4131  0.8824
 4986TIP3   OH239152   1.766   2.557  10.882 -0.8825 -0.3031 -0.0835
 4986TIP3    H139153   1.787   2.488  10.945  0.0517 -1.9135 -2.0389
 4986TIP3    H239154   1.721   2.511  10.811 -0.1179  1.0641 -1.5125
 4987TIP3   OH239155   2.095   2.004  12.013  0.4384  0.3339  0.5098
 4987TIP3    H139156   2.132   1.954  11.940 -0.4137 -0.1408  0.3881
 4987TIP3    H239157   2.064   1.937  12.074 -1.7785  0.6467 -0.1862
 4988TIP3   OH239158   4.887   0.617  12.569  0.4074 -0.5305 -0.4767
 4988TIP3    H139159   4.964   0.581  12.614  0.2409 -1.1296 -0.6659
 4988TIP3    H239160   4.923   0.666  12.495  0.7602  1.4690  0.9492
 4989TIP3   OH239161   3.749   1.756  10.998  0.1855 -0.0194  0.1699
 4989TIP3    H139162   3.827   1.801  11.030 -0.2243 -0.7933  2.3963
 4989TIP3    H239163   3.770   1.734  10.907  2.1805  0.5951  0.4402
 4990TIP3   OH239164   6.103   0.530  10.432 -0.0405  0.2449  0.2007
 4990TIP3    H139165   6.187   0.568  10.405  1.4338 -1.8859  1.4791
 4990TIP3    H239166   6.045   0.606  10.443  1.4837  1.7349 -1.3658
 4991TIP3   OH239167   1.465   5.431  12.602 -0.1403  0.6330  1.0894
 4991TIP3    H139168   1.423   5.345  12.598 -0.3848  0.7713  0.7535
 4991TIP3    H239169   1.396   5.493  12.583  0.4095  0.8092 -0.4221
 4992TIP3   OH239170   3.083   0.979  12.206  0.3621  0.0660  0.1383
 4992TIP3    H139171   3.101   0.927  12.284  2.5194 -2.2212 -1.7162
 4992TIP3    H239172   3.030   0.921  12.150 -2.1369  2.0632  0.2374
 4993TIP3   OH239173   2.325   4.483  12.148 -0.1088  0.3809 -0.5042
 4993TIP3    H139174   2.302   4.478  12.241 -0.8221 -0.2277 -0.7030
 4993TIP3    H239175   2.373   4.402  12.132  0.5966  0.7956 -0.5207
 4994TIP3   OH239176   3.020   0.707   9.466  0.7099 -0.1661 -0.0592
 4994TIP3    H139177   3.011   0.646   9.393  2.6844 -0.6717  0.0532
 4994TIP3    H239178   2.947   0.687   9.524 -1.8430  1.2892 -2.5508
 4995TIP3   OH239179   4.769   4.700  10.485 -0.2760 -0.3167  0.2847
 4995TIP3    H139180   4.865   4.697  10.482 -0.0637  2.5873  1.2752
 4995TIP3    H239181   4.749   4.703  10.578 -1.1636  1.4170  0.0682
 4996TIP3   OH239182   6.301   5.408  10.387 -0.2529  0.0119  0.2428
 4996TIP3    H139183   6.396   5.401  10.391 -0.1440  1.2708  0.1323
 4996TIP3    H239184   6.270   5.322  10.416  0.9061 -0.3768  0.3907
 4997TIP3   OH239185   2.218   3.934  12.081  0.0515 -0.5311 -0.2602
 4997TIP3    H139186   2.131   3.894  12.072 -0.2732  0.3320 -1.3084
 4997TIP3    H239187   2.200   4.027  12.093  0.8041  0.1175 -3.3040
 4998TIP3   OH239188   0.462   1.875  12.385  0.7561 -0.1827 -0.5488
 4998TIP3    H139189   0.545   1.827  12.389  1.2893  0.7315  0.1807
 4998TIP3    H239190   0.476   1.940  12.317  0.2263 -0.7317 -1.1863
 4999TIP3   OH239191   4.402   4.940  11.675  0.2987 -0.4163 -0.4142
 4999TIP3    H139192   4.369   4.941  11.764  0.4152 -2.7150 -0.2920
 4999TIP3    H239193   4.331   4.903  11.623  1.0935 -1.3939 -0.8496
 5000TIP3   OH239194   6.427   5.678  10.384 -0.8425 -0.5648 -0.2826
 5000TIP3    H139195   6.491   5.716  10.444 -0.7283 -0.7629 -0.2763
 5000TIP3    H239196   6.373   5.622  10.441 -1.9706  0.7340 -0.0079
 5001TIP3   OH239197   4.081   5.201  12.536 -0.2078 -0.3260 -0.6763
 5001TIP3    H139198   4.012   5.155  12.584 -1.2182 -0.7036 -2.4323
 5001TIP3    H239199   4.045   5.288  12.521  0.7978  0.3732  0.6555
 5002TIP3   OH239200   1.998   2.446   9.563  0.1950 -0.1683 -0.0309
 5002TIP3    H139201   2.001   2.407   9.476 -1.6426  0.3749 -0.3846
 5002TIP3    H239202   2.088   2.440   9.596  0.6904 -1.3924 -1.5018
 5003TIP3   OH239203   2.999   3.068  11.381  0.2598 -0.1760 -0.1918
 5003TIP3    H139204   3.001   3.160  11.353  0.1752  0.1069  0.6996
 5003TIP3    H239205   2.961   3.022  11.306  2.5772  0.1245 -1.6537
 5004TIP3   OH239206   2.852   5.980  12.274  0.0465 -0.2379  0.1006
 5004TIP3    H139207   2.807   5.934  12.204 -0.8666  2.1850 -1.0310
 5004TIP3    H239208   2.782   6.015  12.329  0.6673  0.0313  0.7328
 5005TIP3   OH239209   0.442   2.652  12.011  0.0094 -0.1247  0.2517
 5005TIP3    H139210   0.409   2.658  11.921 -0.5102  1.9630  0.5233
 5005TIP3    H239211   0.453   2.743  12.038  2.3172 -0.7205  1.5653
 5006TIP3   OH239212   5.973   0.021  11.250 -0.0277 -0.0736  0.2160
 5006TIP3    H139213   5.883  -0.004  11.272  0.1635 -0.5185  0.5057
 5006TIP3    H239214   5.982   0.110  11.284 -0.0391 -0.4015  1.0994
 5007TIP3   OH239215   1.512   1.762   8.533 -0.7296 -0.6127  0.0259
 5007TIP3    H139216   1.554   1.781   8.449 -0.7141 -1.0602 -0.0718
 5007TIP3    H239217   1.526   1.668   8.545 -2.8693 -1.0599 -0.6509
 5008TIP3   OH239218   2.991   5.195  11.299  0.3206 -0.1402  0.2939
 5008TIP3    H139219   2.992   5.289  11.278  2.8226  0.0965  1.0894
 5008TIP3    H239220   2.978   5.192  11.394  0.3360 -0.5855  0.2850
 5009TIP3   OH239221   4.131   0.596  12.145 -0.8604 -0.2994  0.1452
 5009TIP3    H139222   4.084   0.574  12.226  0.2281 -0.4071  0.7687
 5009TIP3    H239223   4.135   0.513  12.096  0.2372 -0.7375  0.9260
 5010TIP3   OH239224   4.551   3.788  11.097 -0.5526  0.2212  0.5414
 5010TIP3    H139225   4.558   3.822  11.187  0.3830  0.4670  0.3887
 5010TIP3    H239226   4.558   3.866  11.042  0.1502 -0.0535  0.2301
 5011TIP3   OH239227   0.319   2.094  10.805 -0.0054  0.2120 -0.4418
 5011TIP3    H139228   0.231   2.055  10.815  0.2796 -0.1621  0.7782
 5011TIP3    H239229   0.328   2.152  10.880  1.1175 -0.4116 -0.0667
 5012TIP3   OH239230   0.623   0.441  11.107  0.2374 -0.2075 -0.0874
 5012TIP3    H139231   0.585   0.357  11.080  2.3258 -1.0035 -0.7518
 5012TIP3    H239232   0.574   0.465  11.186  0.7193 -2.9657  1.1794
 5013TIP3   OH239233   5.444   3.037  10.611  0.3787 -0.1696  0.2276
 5013TIP3    H139234   5.443   2.948  10.577  2.8428 -0.4776  0.7829
 5013TIP3    H239235   5.454   3.027  10.705 -1.3746  0.7272  0.5558
 5014TIP3   OH239236   3.674   3.133  11.552  0.3536  0.2535 -0.3210
 5014TIP3    H139237   3.706   3.107  11.639  1.0472 -0.0111 -0.6429
 5014TIP3    H239238   3.720   3.215  11.534 -2.7333  2.5216  1.2131
 5015TIP3   OH239239   3.985   3.902  11.344 -0.6374  0.0706  0.1390
 5015TIP3    H139240   4.061   3.937  11.298 -0.4514  0.1427  0.5011
 5015TIP3    H239241   3.972   3.960  11.419 -0.4302 -0.5211  0.6466
 5016TIP3   OH239242   4.969   2.613  12.125  0.2458  0.3056  0.3956
 5016TIP3    H139243   4.891   2.599  12.179  0.1232  0.0229  0.1428
 5016TIP3    H239244   5.028   2.542  12.149  0.7155  0.9159  1.1017
 5017TIP3   OH239245   2.204   2.146   9.343  0.3588  0.4025  0.3880
 5017TIP3    H139246   2.169   2.081   9.404 -1.6293  1.0702  0.0550
 5017TIP3    H239247   2.134   2.211   9.335  0.4834  0.3363 -2.6265
 5018TIP3   OH239248   6.583   2.992  11.919 -0.0853 -0.1137 -0.1778
 5018TIP3    H139249   6.561   2.990  11.826 -0.4235 -0.4938 -0.0907
 5018TIP3    H239250   6.569   3.083  11.945  1.5639  0.3764 -0.8597
 5019TIP3   OH239251   4.767   2.204  11.237  0.2077 -0.4688  0.2103
 5019TIP3    H139252   4.796   2.289  11.205 -1.9513  0.0243 -0.5814
 5019TIP3    H239253   4.828   2.141  11.198  1.0324  0.5896 -0.2468
 5020TIP3   OH239254   3.575   6.374  10.963  0.8858  0.2101 -0.3686
 5020TIP3    H139255   3.529   6.395  11.045  1.9620  2.3921 -0.2521
 5020TIP3    H239256   3.513   6.399  10.894  0.1126 -1.3139 -0.2874
 5021TIP3   OH239257   4.705   2.549   9.626 -0.4055  0.1879  0.5482
 5021TIP3    H139258   4.789   2.583   9.657  0.0715 -0.9276  0.4966
 5021TIP3    H239259   4.711   2.552   9.531  0.3658 -1.6992  0.4944
 5022TIP3   OH239260   6.292   1.393  10.669 -0.1125  0.1759 -0.4886
 5022TIP3    H139261   6.258   1.424  10.753  1.6901 -1.4334  0.9349
 5022TIP3    H239262   6.259   1.456  10.605 -1.6503  1.3978  1.3926
 5023TIP3   OH239263   6.141   5.916  11.484 -0.6638 -0.9401  0.2908
 5023TIP3    H139264   6.133   5.830  11.443  0.3029 -1.7294  1.6947
 5023TIP3    H239265   6.228   5.947  11.456 -1.9255  0.7217 -2.1993
 5024TIP3   OH239266   5.383   5.892  10.034 -0.1058 -0.2462 -0.1602
 5024TIP3    H139267   5.387   5.968  10.093 -0.6841 -0.9191  0.7857
 5024TIP3    H239268   5.442   5.914   9.962 -2.9954  2.7566 -1.9131
 5025TIP3   OH239269   4.555   4.351   9.853 -0.2580 -0.3152  0.2556
 5025TIP3    H139270   4.533   4.404   9.930  0.0971  0.6440 -0.2923
 5025TIP3    H239271   4.545   4.261   9.883 -0.8398  0.0523  1.2179
 5026TIP3   OH239272   1.548   2.950  12.432 -0.3012 -0.4884 -0.2537
 5026TIP3    H139273   1.576   3.042  12.437 -0.9440 -0.2543 -0.7599
 5026TIP3    H239274   1.496   2.946  12.351  0.0890 -1.4014 -0.4654
 5027TIP3   OH239275   4.682   4.707   9.325  0.3297  0.0955 -0.6329
 5027TIP3    H139276   4.688   4.658   9.407  2.5002  1.7891  0.3392
 5027TIP3    H239277   4.672   4.798   9.353  0.3383  0.6248 -2.2655
 5028TIP3   OH239278   6.431   2.591   8.396 -0.0682 -0.0745  0.2845
 5028TIP3    H139279   6.489   2.516   8.399 -0.0106 -0.1320 -1.3146
 5028TIP3    H239280   6.479   2.661   8.440  0.8345 -0.3626 -0.2307
 5029TIP3   OH239281   6.510   4.163  11.075 -0.2091 -0.3682 -0.0904
 5029TIP3    H139282   6.423   4.130  11.053 -0.3651  0.0074 -0.0402
 5029TIP3    H239283   6.569   4.113  11.019 -0.5109 -0.2090 -0.5565
 5030TIP3   OH239284   3.759   0.491  11.972 -0.8917  0.4893 -0.5017
 5030TIP3    H139285   3.745   0.556  11.902  0.4124  1.2562 -0.0887
 5030TIP3    H239286   3.698   0.518  12.041  0.7846  2.3573  0.3474
 5031TIP3   OH239287   3.352   1.666   9.231 -0.1518 -0.0246 -0.5262
 5031TIP3    H139288   3.370   1.583   9.274  1.1135  0.4108 -0.1708
 5031TIP3    H239289   3.358   1.647   9.137  2.2835  0.0673 -0.4469
 5032TIP3   OH239290   3.355   0.845   9.213  0.3624 -0.0345 -0.4243
 5032TIP3    H139291   3.417   0.917   9.215  0.6205 -0.2168 -1.3787
 5032TIP3    H239292   3.339   0.824   9.305  0.3107  1.2033 -0.1311
 5033TIP3   OH239293   4.040   6.230  10.073  0.2482  0.1578 -0.0544
 5033TIP3    H139294   3.991   6.147  10.074 -1.0242  0.8690  2.2117
 5033TIP3    H239295   3.983   6.291  10.025 -1.4541  1.0967  2.9329
 5034TIP3   OH239296   0.990   2.387  10.242 -0.7824  0.0518  0.5942
 5034TIP3    H139297   1.068   2.433  10.273  0.2175 -0.9953 -0.2451
 5034TIP3    H239298   0.987   2.307  10.295  1.0125 -1.8142 -1.8324
 5035TIP3   OH239299   0.463   2.247  11.125  0.1047  0.4356 -0.2327
 5035TIP3    H139300   0.383   2.293  11.101  0.3465  0.2936 -1.3789
 5035TIP3    H239301   0.519   2.314  11.164 -0.4965  0.5714  0.4162
 5036TIP3   OH239302   0.305   1.788  12.035  0.2069 -0.0566 -0.5308
 5036TIP3    H139303   0.231   1.728  12.035 -0.3946  0.5158 -3.8813
 5036TIP3    H239304   0.273   1.867  12.078 -0.6210 -0.3593 -0.5905
 5037TIP3   OH239305   5.850   2.670   9.955 -0.0971 -0.1108 -0.3814
 5037TIP3    H139306   5.930   2.673  10.008 -1.2245  0.3930  1.3914
 5037TIP3    H239307   5.815   2.758   9.960 -0.8101 -0.3525 -1.0711
 5038TIP3   OH239308   3.885   3.784   9.504 -0.4688  0.1009  0.1214
 5038TIP3    H139309   3.897   3.878   9.490  0.4797 -0.0200  0.0268
 5038TIP3    H239310   3.820   3.758   9.439 -2.5542  1.1074  1.7280
 5039TIP3   OH239311   2.133   1.932   9.506  0.4269  0.4272  0.0936
 5039TIP3    H139312   2.128   1.837   9.515 -0.7935  0.5834  1.5653
 5039TIP3    H239313   2.196   1.960   9.572  0.1521  0.7052  0.2430
 5040TIP3   OH239314   3.676   3.784  12.169  0.1728 -0.0328  0.1356
 5040TIP3    H139315   3.767   3.754  12.165  0.1235 -0.3360  0.9400
 5040TIP3    H239316   3.648   3.788  12.078  0.3763 -1.8771 -0.0520
 5041TIP3   OH239317   5.343   0.528  10.476  1.2104  0.7270  0.3357
 5041TIP3    H139318   5.302   0.490  10.554 -0.4697  0.9750 -0.3720
 5041TIP3    H239319   5.416   0.470  10.456  0.1164 -0.8128  0.6270
 5042TIP3   OH239320   1.572   6.605  11.294 -0.6821  0.1283 -0.0509
 5042TIP3    H139321   1.662   6.576  11.278 -0.9827 -1.0537  0.3311
 5042TIP3    H239322   1.531   6.604  11.208 -0.6800 -0.5804 -0.0470
 5043TIP3   OH239323   4.521   4.043  11.722  0.3162  0.0723 -0.4440
 5043TIP3    H139324   4.468   4.083  11.792 -0.3469  0.5254 -1.1830
 5043TIP3    H239325   4.500   4.095  11.644 -2.7477 -3.2997 -2.1520
 5044TIP3   OH239326   0.362   1.213   9.408  0.0416  0.6075  0.8068
 5044TIP3    H139327   0.272   1.213   9.375  0.4911  2.9109 -0.6871
 5044TIP3    H239328   0.393   1.124   9.394 -0.9940  0.5668 -1.7546
 5045TIP3   OH239329   2.170   5.497  11.362 -0.0779 -0.2887 -0.2802
 5045TIP3    H139330   2.128   5.582  11.371  0.7201  0.3634 -2.1037
 5045TIP3    H239331   2.101   5.440  11.327 -0.8704 -0.6853  1.8066
 5046TIP3   OH239332   1.367   5.712  10.636  0.6932  0.0509 -0.1813
 5046TIP3    H139333   1.440   5.754  10.591 -0.4895  1.3106 -0.9913
 5046TIP3    H239334   1.341   5.775  10.703 -1.0266  0.6296 -1.3277
 5047TIP3   OH239335   0.178   0.536  11.560 -0.2416  0.4030 -0.3525
 5047TIP3    H139336   0.221   0.460  11.520  1.2501  1.2936 -0.5405
 5047TIP3    H239337   0.091   0.539  11.519  0.7335  0.4797 -2.5826
 5048TIP3   OH239338   2.018   3.494   9.526 -0.1597  0.5005  0.6942
 5048TIP3    H139339   1.964   3.540   9.461 -1.9383 -1.8434  0.3735
 5048TIP3    H239340   1.975   3.513   9.610  0.1334  0.8102  0.7743
 5049TIP3   OH239341   4.450   3.102  10.980 -0.2471  0.0421 -0.3005
 5049TIP3    H139342   4.375   3.130  11.033  0.3343 -0.0633  0.5904
 5049TIP3    H239343   4.436   3.008  10.966  0.1670 -0.1623  0.6179
 5050TIP3   OH239344   4.004   0.825  10.563  0.6569  0.5495 -0.1164
 5050TIP3    H139345   3.996   0.733  10.588 -0.1738  0.8721  0.8869
 5050TIP3    H239346   3.916   0.851  10.538  1.1286  0.7425 -1.6907
 5051TIP3   OH239347   3.761   0.083  11.750 -0.4317 -0.1998 -0.1761
 5051TIP3    H139348   3.780   0.147  11.682 -0.5833 -0.9253 -0.9229
 5051TIP3    H239349   3.785   0.126  11.831 -1.0391  1.0008 -0.6114
 5052TIP3   OH239350   5.146   2.094  11.713  0.1530  0.1916 -0.2434
 5052TIP3    H139351   5.102   2.150  11.777  0.8577 -0.2910  0.7022
 5052TIP3    H239352   5.121   2.130  11.628  2.5758  3.5350  0.2734
 5053TIP3   OH239353   5.643   0.717  11.212 -0.0621 -0.1832 -0.3147
 5053TIP3    H139354   5.612   0.646  11.157 -0.6722 -0.7083  0.6630
 5053TIP3    H239355   5.640   0.795  11.156 -0.9185 -0.6461 -0.9406
 5054TIP3   OH239356   5.597   4.547  12.007  0.4057 -0.2801  0.0530
 5054TIP3    H139357   5.568   4.471  11.955  0.9417  0.0061 -0.6763
 5054TIP3    H239358   5.540   4.618  11.979  1.0959  0.0242 -0.6060
 5055TIP3   OH239359   1.623   4.150  12.018  0.2695  0.2710 -0.6331
 5055TIP3    H139360   1.600   4.070  12.066  1.4510  2.3008  3.7177
 5055TIP3    H239361   1.538   4.189  11.995 -0.3563 -0.6693 -0.0112
 5056TIP3   OH239362   6.386   5.871   9.804  0.4845 -0.1838 -0.0863
 5056TIP3    H139363   6.357   5.960   9.782 -0.1396 -0.7146 -1.5748
 5056TIP3    H239364   6.478   5.869   9.776  0.4877 -0.0180 -0.0882
 5057TIP3   OH239365   4.898   0.355   9.822  0.0746 -0.4622 -0.1304
 5057TIP3    H139366   4.917   0.444   9.792 -0.4513  0.4198  1.9750
 5057TIP3    H239367   4.980   0.307   9.808  0.5803  0.5353 -0.6986
 5058TIP3   OH239368   1.526   6.302  11.858  0.3562 -0.3379  0.1290
 5058TIP3    H139369   1.437   6.268  11.870 -0.2935  1.0637 -0.5139
 5058TIP3    H239370   1.555   6.265  11.775  0.7127 -1.4550  0.7328
 5059TIP3   OH239371   3.453   2.005   9.476 -0.0824  0.1858  0.6631
 5059TIP3    H139372   3.411   2.053   9.404  0.3407  0.2931  0.4881
 5059TIP3    H239373   3.492   1.929   9.435  0.9453  0.7203  0.6291
 5060TIP3   OH239374   4.611   5.987   9.952 -0.3757 -0.3851  0.3583
 5060TIP3    H139375   4.548   5.916   9.946  0.3579 -1.1676  1.4945
 5060TIP3    H239376   4.560   6.063   9.978 -1.0217 -0.7273  0.0993
 5061TIP3   OH239377   5.964   3.316  11.794  0.3838  0.1761  0.4468
 5061TIP3    H139378   5.951   3.377  11.867  1.0949 -0.3454  1.0196
 5061TIP3    H239379   6.046   3.272  11.813 -0.5774 -1.6715  0.5449
 5062TIP3   OH239380   4.838   3.957  10.233  0.3621 -0.1646  0.3402
 5062TIP3    H139381   4.768   4.021  10.243 -0.1233 -0.5601 -0.5132
 5062TIP3    H239382   4.814   3.906  10.156  0.2714 -1.9806  1.5081
 5063TIP3   OH239383   1.693   1.816  10.631  0.5161 -0.4415 -1.0332
 5063TIP3    H139384   1.768   1.759  10.616 -0.3007 -1.4902 -1.3202
 5063TIP3    H239385   1.655   1.829  10.545 -0.0133 -0.4846 -0.8127
 5064TIP3   OH239386   5.118   3.986  12.124 -0.4792 -0.4193  0.0677
 5064TIP3    H139387   5.164   3.904  12.139 -0.7218 -1.0446 -2.2026
 5064TIP3    H239388   5.164   4.050  12.179  1.9431 -1.3827 -0.7274
 5065TIP3   OH239389   5.895   2.724   9.695  0.2766 -0.6855 -0.0553
 5065TIP3    H139390   5.811   2.707   9.653 -1.7774  3.0205  1.9847
 5065TIP3    H239391   5.889   2.680   9.780  0.5145 -0.7206 -0.0575
 5066TIP3   OH239392   5.447   3.817  11.031  0.3896 -0.1492  0.1545
 5066TIP3    H139393   5.455   3.725  11.006  2.1924 -0.2640  0.9895
 5066TIP3    H239394   5.523   3.859  10.992 -0.2860  0.9541 -0.0023
 5067TIP3   OH239395   6.256   5.940  10.716 -0.4739 -0.2050  0.2048
 5067TIP3    H139396   6.259   5.993  10.636 -0.4137  1.1968  1.0990
 5067TIP3    H239397   6.199   5.866  10.694 -1.1223  0.5938 -0.8797
 5068TIP3   OH239398   3.329   4.514   8.522  0.3223 -0.2407  0.4513
 5068TIP3    H139399   3.357   4.480   8.607 -1.8627 -2.6296  0.3449
 5068TIP3    H239400   3.287   4.598   8.542  1.3863  0.0912  1.4356
 5069TIP3   OH239401   0.624   3.384   9.548  0.1270  0.1993  0.2329
 5069TIP3    H139402   0.615   3.365   9.454  1.2612  0.1930  0.1075
 5069TIP3    H239403   0.535   3.380   9.582 -0.1501 -1.3448 -0.5624
 5070TIP3   OH239404   2.274   3.587  12.071 -0.1665 -1.1688 -0.4008
 5070TIP3    H139405   2.180   3.571  12.082 -0.1823 -0.2904  0.9660
 5070TIP3    H239406   2.280   3.681  12.053  0.5193 -0.9881  0.7046
 5071TIP3   OH239407   1.398   3.399   9.643 -0.1689 -0.2829 -0.1382
 5071TIP3    H139408   1.456   3.325   9.655 -1.7575 -1.6139 -0.3224
 5071TIP3    H239409   1.399   3.444   9.728  0.2681 -0.9248  0.2053
 5072TIP3   OH239410   1.929   0.912  10.342  0.2671  0.4768  0.5714
 5072TIP3    H139411   1.884   0.904  10.425 -1.7037 -0.6216 -0.5273
 5072TIP3    H239412   1.866   0.955  10.284  1.9521  2.1546 -0.1500
 5073TIP3   OH239413   3.516   1.205   8.978  0.1431  0.3585 -0.0650
 5073TIP3    H139414   3.480   1.126   8.937  1.8374 -0.3015 -0.3577
 5073TIP3    H239415   3.469   1.277   8.937 -0.2218 -0.4253 -1.0670
 5074TIP3   OH239416   5.661   2.673  11.951 -0.1465  0.0191  0.2700
 5074TIP3    H139417   5.653   2.606  11.883  0.6800  0.2839 -0.1067
 5074TIP3    H239418   5.644   2.755  11.904  1.6327  0.3226  0.0827
 5075TIP3   OH239419   4.475   2.665  10.634  0.3480  0.6947 -0.2435
 5075TIP3    H139420   4.533   2.736  10.662  0.0949  0.7818  0.0693
 5075TIP3    H239421   4.472   2.605  10.708  2.4862 -0.9222 -1.3609
 5076TIP3   OH239422   2.284   4.181   9.223 -0.1421  0.4583 -0.5815
 5076TIP3    H139423   2.297   4.273   9.247 -0.4290  1.0683 -2.5819
 5076TIP3    H239424   2.338   4.169   9.145 -0.1334 -1.0751 -0.3569
 5077TIP3   OH239425   1.247   6.261  11.890 -0.3722 -0.3875 -0.2988
 5077TIP3    H139426   1.201   6.233  11.970  0.1843  0.0205  0.1747
 5077TIP3    H239427   1.191   6.330  11.853  0.2639  0.7490  0.7643
 5078TIP3   OH239428   1.370   0.978  10.359  0.3257 -0.1898  0.0977
 5078TIP3    H139429   1.381   0.883  10.358 -0.3991 -0.2860 -1.5247
 5078TIP3    H239430   1.452   1.012  10.394  1.2173 -1.3467 -0.8285
 5079TIP3   OH239431   1.354   4.476   9.667  0.0569 -0.2615 -0.3609
 5079TIP3    H139432   1.407   4.436   9.736 -0.2109  0.5737  0.3412
 5079TIP3    H239433   1.274   4.504   9.711  1.1332  3.1015 -0.2831
 5080TIP3   OH239434   4.165   0.096  10.712  0.1522 -0.0139 -0.0147
 5080TIP3    H139435   4.091   0.139  10.755 -0.3515  0.6617 -1.4739
 5080TIP3    H239436   4.153   0.003  10.732 -1.5612 -0.0224 -0.8351
 5081TIP3   OH239437   3.475   6.454  12.303 -0.3629 -0.2491  0.0744
 5081TIP3    H139438   3.476   6.361  12.325 -1.3108 -0.2804  0.0280
 5081TIP3    H239439   3.384   6.472  12.281 -0.0875  0.5795 -0.4133
 5082TIP3   OH239440   4.271   4.934  12.306  0.3676 -0.1945  0.7421
 5082TIP3    H139441   4.179   4.958  12.321  0.7217  0.4696  1.9546
 5082TIP3    H239442   4.277   4.844  12.338  0.2124 -0.1299  0.9584
 5083TIP3   OH239443   2.948   4.700  10.005  0.5047  0.1413 -0.1243
 5083TIP3    H139444   2.970   4.776  10.060 -1.0524 -0.3098  1.1913
 5083TIP3    H239445   2.853   4.699  10.003  0.5192 -0.6456 -1.7969
 5084TIP3   OH239446   2.919   0.791   9.170  0.5121  0.3434 -0.0431
 5084TIP3    H139447   2.970   0.715   9.199  1.6814  0.7739 -0.9161
 5084TIP3    H239448   2.947   0.806   9.080 -1.3907  0.4269 -0.6641
 5085TIP3   OH239449   4.363   1.417  12.367  0.4770 -0.2733 -0.1124
 5085TIP3    H139450   4.366   1.513  12.369  1.9123 -0.1189 -3.1289
 5085TIP3    H239451   4.272   1.396  12.348  0.6145  0.6826 -2.0238
 5086TIP3   OH239452   6.231   3.961  11.244 -0.0124  0.0788 -0.1361
 5086TIP3    H139453   6.255   4.032  11.185  1.4339 -1.0477 -1.0007
 5086TIP3    H239454   6.150   3.925  11.206 -0.2465  0.6812 -0.2145
 5087TIP3   OH239455   2.129   1.189   9.879  0.1082 -0.2621 -0.5132
 5087TIP3    H139456   2.040   1.206   9.911 -0.2168 -0.0671 -1.4952
 5087TIP3    H239457   2.186   1.220   9.950 -0.5612  1.0576 -0.5212
 5088TIP3   OH239458   6.530   6.510  11.844  0.1032 -0.1474 -0.4484
 5088TIP3    H139459   6.522   6.418  11.866 -0.4841 -0.0820 -0.3570
 5088TIP3    H239460   6.585   6.512  11.765 -0.9837 -0.6888 -1.2518
 5089TIP3   OH239461   2.769   6.070   9.994  0.6637 -0.1098 -0.0774
 5089TIP3    H139462   2.691   6.051  10.047 -0.5368  2.6988 -0.6284
 5089TIP3    H239463   2.762   6.010   9.919  0.4367 -1.6188  1.0949
 5090TIP3   OH239464   0.147   2.191   9.506 -0.4211  0.3123  0.3353
 5090TIP3    H139465   0.236   2.228   9.512 -1.1665  2.8170 -1.8368
 5090TIP3    H239466   0.105   2.217   9.588  0.5407 -0.0338  0.9562
 5091TIP3   OH239467   0.426   2.507  12.287  0.4055  0.1742 -0.6866
 5091TIP3    H139468   0.343   2.542  12.319  0.3215  0.0571 -0.7774
 5091TIP3    H239469   0.478   2.584  12.265  0.6100  0.2735  0.0907
 5092TIP3   OH239470   2.443   4.676   9.660  0.0628  0.1849 -0.5674
 5092TIP3    H139471   2.445   4.767   9.692 -0.4879  1.3651 -3.5208
 5092TIP3    H239472   2.533   4.645   9.674  0.3113  1.2164  0.3473
 5093TIP3   OH239473   2.594   2.727  10.116 -0.1087 -0.1217  0.1512
 5093TIP3    H139474   2.589   2.637  10.084 -0.8168 -0.7393  1.9031
 5093TIP3    H239475   2.503   2.754  10.127  0.1096  0.5567  0.3468
 5094TIP3   OH239476   0.998   1.724  11.760 -0.2535 -0.0459 -0.4329
 5094TIP3    H139477   0.944   1.747  11.684  1.1039 -1.1998 -1.7938
 5094TIP3    H239478   1.024   1.809  11.797 -2.2369  0.5356 -0.2410
 5095TIP3   OH239479   2.279   2.299   9.110  0.3405  0.0575 -0.0180
 5095TIP3    H139480   2.315   2.316   9.023 -2.1770 -1.8329 -1.6068
 5095TIP3    H239481   2.184   2.311   9.099  0.0062  0.5533  2.7123
 5096TIP3   OH239482   3.761   5.452  10.926 -0.1424  0.4189  0.1344
 5096TIP3    H139483   3.819   5.425  10.998  1.1371  1.4308 -0.4822
 5096TIP3    H239484   3.767   5.380  10.863 -0.9518 -0.2867  0.8442
 5097TIP3   OH239485   2.829   3.720  10.619 -0.3810 -0.0145  0.4501
 5097TIP3    H139486   2.786   3.741  10.536  2.1778  0.4560 -0.8528
 5097TIP3    H239487   2.871   3.636  10.604  0.0299  0.0235  1.3145
 5098TIP3   OH239488   3.547   0.294  11.974  0.0551 -0.3607 -0.0182
 5098TIP3    H139489   3.505   0.325  12.054 -1.3540  0.5084 -1.0540
 5098TIP3    H239490   3.634   0.333  11.976  0.5291 -1.3720  1.6771
 5099TIP3   OH239491   1.522   2.147   9.991 -0.1933  0.0715 -0.5373
 5099TIP3    H139492   1.576   2.201  10.050  0.8955 -3.1138  1.6707
 5099TIP3    H239493   1.437   2.143  10.033  0.6362 -2.3556  1.1530
 5100TIP3   OH239494   2.622   3.428  10.337 -0.1715 -0.2705  0.0423
 5100TIP3    H139495   2.704   3.379  10.339  0.5326  0.8484 -0.1881
 5100TIP3    H239496   2.560   3.371  10.293  0.6416 -0.9123 -0.2809
 5101TIP3   OH239497   4.963   6.477  12.193 -0.1422  0.5373 -0.1146
 5101TIP3    H139498   5.033   6.465  12.129  0.0565  1.4149 -0.0762
 5101TIP3    H239499   4.953   6.391  12.235 -0.4494 -0.1159 -1.4785
 5102TIP3   OH239500   0.973   1.075  11.556  0.0705 -0.0852 -0.0215
 5102TIP3    H139501   0.915   1.090  11.631 -0.3653  0.1798 -0.4071
 5102TIP3    H239502   0.914   1.054  11.484  0.4506  0.2397 -0.4314
 5103TIP3   OH239503   0.692   4.615  11.925  0.4738 -0.1852 -0.2567
 5103TIP3    H139504   0.660   4.624  12.015  1.0196  0.1197 -0.0943
 5103TIP3    H239505   0.752   4.688  11.913 -1.0500  0.9445 -1.5112
 5104TIP3   OH239506   3.760   4.501  11.593 -0.1062  0.0354 -0.3280
 5104TIP3    H139507   3.726   4.565  11.656  1.2033 -1.1446  1.7019
 5104TIP3    H239508   3.683   4.452  11.565 -0.7454  0.6842  0.2470
 5105TIP3   OH239509   5.744   4.317  10.386  0.3493  0.2527 -0.5409
 5105TIP3    H139510   5.779   4.394  10.340  0.9231 -0.6867 -1.7133
 5105TIP3    H239511   5.676   4.283  10.329  0.7034 -0.6287 -0.4558
 5106TIP3   OH239512   2.576   6.413   9.046  0.1487  0.3656  0.0451
 5106TIP3    H139513   2.534   6.494   9.016 -1.1847 -0.1246  0.4864
 5106TIP3    H239514   2.592   6.364   8.966  2.1287  1.5589 -0.3481
 5107TIP3   OH239515   6.147   3.385  10.703 -0.2799 -0.4063 -0.1984
 5107TIP3    H139516   6.074   3.354  10.648  0.1146  0.5391 -1.3009
 5107TIP3    H239517   6.110   3.457  10.753 -0.8348 -1.7207  1.3694
 5108TIP3   OH239518   6.411   4.410  11.802  0.4170  0.3105  0.5345
 5108TIP3    H139519   6.469   4.334  11.807 -0.1119 -0.0900  0.7446
 5108TIP3    H239520   6.362   4.408  11.885  0.6059  1.0498  0.6732
 5109TIP3   OH239521   4.004   6.386   9.818 -0.5119 -0.0684 -0.0315
 5109TIP3    H139522   4.081   6.408   9.765 -0.9967  1.7147 -0.0827
 5109TIP3    H239523   3.958   6.320   9.766 -0.4258  0.8578 -1.3512
 5110TIP3   OH239524   0.950   1.965   9.059  0.3632 -0.0359 -0.2234
 5110TIP3    H139525   1.040   1.979   9.027  0.0629 -0.5013 -1.3410
 5110TIP3    H239526   0.924   1.882   9.019  0.1889 -1.0445  1.8634
 5111TIP3   OH239527   0.705   2.284  10.542 -0.4349  0.3206  0.7401
 5111TIP3    H139528   0.610   2.280  10.540 -0.4232 -0.9951  1.7873
 5111TIP3    H239529   0.733   2.196  10.564  1.0306  0.7538  0.7418
 5112TIP3   OH239530   5.414   4.116  11.955  0.2814 -0.6258  0.1471
 5112TIP3    H139531   5.430   4.024  11.935  2.5688 -0.2028 -0.1835
 5112TIP3    H239532   5.413   4.159  11.869  2.3258  0.0741  0.4363
 5113TIP3   OH239533   3.381   6.386  11.974 -0.2891  0.6215 -0.0035
 5113TIP3    H139534   3.459   6.393  11.919 -0.6138 -1.9492 -0.9578
 5113TIP3    H239535   3.414   6.391  12.063  0.5195  2.7081 -0.3620
 5114TIP3   OH239536   3.883   0.625   8.889 -0.2344 -0.1885  0.1904
 5114TIP3    H139537   3.912   0.534   8.882 -0.9539 -0.2890 -3.2497
 5114TIP3    H239538   3.962   0.677   8.871 -0.3287 -0.2308 -0.3719
 5115TIP3   OH239539   4.895   5.383  10.922  0.0581  0.1451 -0.1232
 5115TIP3    H139540   4.830   5.410  10.987  0.8562 -0.1204  0.8177
 5115TIP3    H239541   4.844   5.338  10.855 -0.7504  0.0161  0.5491
 5116TIP3   OH239542   0.105   6.490  10.560  0.2842  0.1642  0.3152
 5116TIP3    H139543   0.044   6.433  10.607  0.9300 -0.7512  0.0644
 5116TIP3    H239544   0.156   6.531  10.629 -0.3393  0.6396  0.5097
 5117TIP3   OH239545   0.842   2.009   9.294 -0.1129 -0.3932 -0.2434
 5117TIP3    H139546   0.861   2.103   9.305 -0.1698 -0.5598  1.6757
 5117TIP3    H239547   0.900   1.981   9.223  3.1092  0.2631  1.8616
 5118TIP3   OH239548   5.906   0.070  10.486 -0.2445  0.1312  0.0463
 5118TIP3    H139549   5.949   0.152  10.459 -1.9448  1.6922  1.8470
 5118TIP3    H239550   5.942   0.052  10.573 -1.7592  0.4119  0.7551
 5119TIP3   OH239551   5.098   3.471   9.562  0.3086  0.1336  0.4380
 5119TIP3    H139552   5.189   3.456   9.535 -0.1467 -2.4762  0.0406
 5119TIP3    H239553   5.088   3.566   9.562  2.4956  0.4581 -1.3407
 5120TIP3   OH239554   5.010   0.946  10.942  0.1452  0.0382 -0.2821
 5120TIP3    H139555   5.100   0.956  10.975  0.2608 -3.9847  1.1531
 5120TIP3    H239556   5.019   0.888  10.866 -1.2702 -1.5384  0.6917
 5121TIP3   OH239557   4.423   5.856  11.886 -0.4671  0.0278 -0.4136
 5121TIP3    H139558   4.511   5.894  11.889 -0.3366 -0.1693 -1.4103
 5121TIP3    H239559   4.379   5.892  11.962  0.3526  0.4522 -0.1269
 5122TIP3   OH239560   2.113   2.978  10.753 -0.2481 -0.3405  0.7487
 5122TIP3    H139561   2.116   2.973  10.848  0.8075 -0.3008  0.7315
 5122TIP3    H239562   2.183   3.039  10.730  0.0357 -0.9619 -0.0869
 5123TIP3   OH239563   6.162   4.856  10.054  0.2907  0.6211 -0.3661
 5123TIP3    H139564   6.245   4.817  10.026  0.4399  0.4485  0.3087
 5123TIP3    H239565   6.101   4.833   9.984  0.4500 -0.5612 -0.1305
 5124TIP3   OH239566   2.175   5.943  10.109  0.1764  0.1186 -0.0512
 5124TIP3    H139567   2.137   6.026  10.139 -0.9119 -0.7329  1.0220
 5124TIP3    H239568   2.256   5.968  10.066 -0.4515  1.8026 -0.3322
 5125TIP3   OH239569   0.780   4.558  10.746  0.1884  0.8075  0.0449
 5125TIP3    H139570   0.824   4.473  10.738  0.0291  0.8514 -1.6007
 5125TIP3    H239571   0.704   4.540  10.802  1.0010  0.2314  1.0108
 5126TIP3   OH239572   5.307   1.293   9.029 -0.7780 -0.0695 -0.0880
 5126TIP3    H139573   5.372   1.231   9.063  1.2019  0.7712 -2.0954
 5126TIP3    H239574   5.223   1.255   9.055  0.3211 -3.4634 -0.8656
 5127TIP3   OH239575   3.893   1.943  10.114  0.1361  0.1188 -0.4954
 5127TIP3    H139576   3.867   1.859  10.076 -0.8281  0.1334  0.1098
 5127TIP3    H239577   3.857   2.009  10.055  0.9801  0.1303 -1.0272
 5128TIP3   OH239578   1.553   4.055   9.851 -0.2897  0.1581 -0.3414
 5128TIP3    H139579   1.622   4.035   9.788 -1.2891  1.5580 -1.9901
 5128TIP3    H239580   1.542   3.975   9.902 -0.0816 -1.4070 -2.6082
 5129TIP3   OH239581   0.900   1.013  10.389  0.1718 -0.4252  0.0273
 5129TIP3    H139582   0.860   1.043  10.471 -1.2954 -0.1425 -0.7451
 5129TIP3    H239583   0.966   0.949  10.416 -0.8668 -0.9869  1.3850
 5130TIP3   OH239584   0.585   2.049  10.957 -0.4543 -0.1766 -0.2935
 5130TIP3    H139585   0.546   2.112  11.017 -0.9725  0.3004 -1.1101
 5130TIP3    H239586   0.510   2.006  10.916 -0.1963 -3.2956  2.1753
 5131TIP3   OH239587   2.405   5.325  12.672 -0.2599  0.1297 -0.4518
 5131TIP3    H139588   2.398   5.351  12.764 -2.0710  1.4274 -0.8952
 5131TIP3    H239589   2.375   5.234  12.670 -1.5916  0.5402  0.0686
 5132TIP3   OH239590   3.623   5.855  11.026 -0.6369 -0.5722  0.6861
 5132TIP3    H139591   3.643   5.942  11.060  0.1832  0.5962 -2.4740
 5132TIP3    H239592   3.707   5.809  11.028 -0.5038 -0.3689 -0.0591
 5133TIP3   OH239593   0.132   3.148  10.510 -0.1259 -0.0869 -0.5623
 5133TIP3    H139594   0.217   3.144  10.554  0.2085 -2.3353 -1.3113
 5133TIP3    H239595   0.072   3.184  10.576  0.9185 -0.7334  0.7789
 5134TIP3   OH239596   0.158   0.425   9.596  0.4424 -0.7044 -0.1447
 5134TIP3    H139597   0.185   0.508   9.556  1.4854 -1.0655 -0.2275
 5134TIP3    H239598   0.192   0.429   9.685 -0.1666 -0.7336  0.0936
 5135TIP3   OH239599   2.344   0.738   8.684 -0.2759 -0.1992 -0.1074
 5135TIP3    H139600   2.413   0.725   8.749 -0.1259 -0.7268 -0.3702
 5135TIP3    H239601   2.382   0.710   8.602 -1.1768 -1.6599 -0.0684
 5136TIP3   OH239602   4.411   1.956  11.588 -0.1260  0.0580  0.8456
 5136TIP3    H139603   4.469   2.028  11.562 -1.7678  1.0972 -0.1909
 5136TIP3    H239604   4.357   1.993  11.658 -0.6286 -0.3129  0.6604
 5137TIP3   OH239605   1.218   2.560  11.733 -0.3055 -0.1436  0.1858
 5137TIP3    H139606   1.166   2.480  11.731 -0.5781  0.0357 -0.0544
 5137TIP3    H239607   1.262   2.558  11.818 -0.8301 -0.2202  0.4578
 5138TIP3   OH239608   5.018   1.445  11.923 -0.1026 -0.3851  0.7626
 5138TIP3    H139609   5.078   1.372  11.910 -0.7248 -0.6471 -0.9357
 5138TIP3    H239610   4.942   1.425  11.868  0.3980  2.2533 -1.1016
 5139TIP3   OH239611   5.173   0.254  10.450  0.2978  0.0871  0.2993
 5139TIP3    H139612   5.082   0.274  10.473 -0.2174 -0.2716 -1.2436
 5139TIP3    H239613   5.226   0.305  10.511 -0.9371  2.9783 -0.8630
 5140TIP3   OH239614   6.094   1.462  11.482  0.1686  0.3102 -0.0929
 5140TIP3    H139615   6.037   1.409  11.426 -0.5179  1.3961 -0.4524
 5140TIP3    H239616   6.045   1.469  11.564  1.3755 -1.6672  0.8642
 5141TIP3   OH239617   4.546   6.291  10.041  0.1728 -0.3092  0.3264
 5141TIP3    H139618   4.529   6.358   9.975 -1.6063  1.3075  2.2455
 5141TIP3    H239619   4.595   6.338  10.109  2.0332 -1.9320  0.1629
 5142TIP3   OH239620   0.593   3.371   9.271 -0.4369  0.0401 -0.0802
 5142TIP3    H139621   0.596   3.418   9.188  0.2568 -0.8057 -0.5485
 5142TIP3    H239622   0.583   3.279   9.247  0.3264 -0.2743  0.7464
 5143TIP3   OH239623   4.776   6.499  11.430  0.5176 -0.2838 -0.0816
 5143TIP3    H139624   4.833   6.462  11.362  1.1008 -1.1181  0.8440
 5143TIP3    H239625   4.785   6.440  11.504 -1.4947 -0.3818  0.1310
 5144TIP3   OH239626   2.970   2.964  11.140  0.1943  0.1281  0.2482
 5144TIP3    H139627   3.004   3.027  11.076 -1.2425  1.2606  0.5447
 5144TIP3    H239628   2.884   2.940  11.106  0.7673 -1.8083  0.0866
 5145TIP3   OH239629   6.143   3.719  12.280  0.0635 -0.2476  0.1084
 5145TIP3    H139630   6.158   3.652  12.214  0.6544 -0.1566  0.1503
 5145TIP3    H239631   6.047   3.725  12.285 -0.0544 -2.1380  1.1681
 5146TIP3   OH239632   3.982   3.049   9.450  0.4377 -0.5457 -0.0498
 5146TIP3    H139633   3.988   3.020   9.359  0.0761  0.4684 -0.4049
 5146TIP3    H239634   3.941   2.976   9.496 -1.6355 -0.1441 -1.1573
 5147TIP3   OH239635   4.825   2.779   9.176  0.4399 -0.0389 -0.8349
 5147TIP3    H139636   4.750   2.728   9.145 -1.0887  1.6211 -0.0474
 5147TIP3    H239637   4.803   2.870   9.155  1.4954  0.6535  0.8389
 5148TIP3   OH239638   0.078   1.188   9.508  0.2870  0.2977 -0.3668
 5148TIP3    H139639   0.024   1.266   9.517 -0.0638  0.2203 -1.6140
 5148TIP3    H239640   0.032   1.121   9.559  0.9430  1.0434  1.2735
 5149TIP3   OH239641   1.986   1.056   9.229  0.1553  0.5188  0.1911
 5149TIP3    H139642   2.052   0.987   9.215  1.2516  1.5695  0.0096
 5149TIP3    H239643   1.961   1.083   9.141  0.7206  1.2507  0.2439
 5150TIP3   OH239644   3.108   4.237  12.054 -0.0591  0.4747  0.4618
 5150TIP3    H139645   3.073   4.148  12.046 -0.0461  0.3710  1.5028
 5150TIP3    H239646   3.203   4.225  12.059 -0.0858  0.5032  1.1111
 5151TIP3   OH239647   0.948   3.097  11.503 -0.4123 -0.2806  0.0457
 5151TIP3    H139648   0.911   3.164  11.445 -1.8574 -0.2626  0.9308
 5151TIP3    H239649   0.961   3.021  11.447 -0.7600  0.0730 -0.5256
 5152TIP3   OH239650   1.822   3.381   8.482  0.1784  0.1764  0.5132
 5152TIP3    H139651   1.911   3.396   8.450  0.4689  0.8836  1.5839
 5152TIP3    H239652   1.784   3.319   8.420  1.0262  0.7470 -0.6225
 5153TIP3   OH239653   2.201   2.069  11.203 -0.3080  0.1931  0.3745
 5153TIP3    H139654   2.177   1.976  11.199  1.4497 -0.2654 -1.0409
 5153TIP3    H239655   2.125   2.112  11.241 -2.2030 -1.5047 -1.2292
 5154TIP3   OH239656   2.676   3.441   9.685 -0.0689  0.5035  0.0626
 5154TIP3    H139657   2.700   3.483   9.767 -1.3023 -2.5401  2.1356
 5154TIP3    H239658   2.645   3.354   9.710  0.7162 -1.0799 -3.7639
 5155TIP3   OH239659   2.938   2.439   9.875 -0.1250  0.0550 -0.6557
 5155TIP3    H139660   2.971   2.370   9.818  0.7135  0.5727 -0.8140
 5155TIP3    H239661   2.844   2.443   9.856 -0.2296 -1.1514 -0.5059
 5156TIP3   OH239662   3.196   3.918  12.236 -0.4729  0.1598  0.3661
 5156TIP3    H139663   3.277   3.885  12.273  0.3565  2.2659  0.5746
 5156TIP3    H239664   3.138   3.842  12.232  1.2872 -1.2562  0.7864
 5157TIP3   OH239665   5.768   5.396  11.998 -0.3637 -0.4586 -0.1561
 5157TIP3    H139666   5.700   5.464  11.997  1.2496  1.2482  0.9955
 5157TIP3    H239667   5.787   5.380  11.905 -1.1402  0.2763 -0.4535
 5158TIP3   OH239668   3.846   0.964   9.462  0.2534  0.1274  0.2834
 5158TIP3    H139669   3.871   1.055   9.451  2.5621 -0.3324  1.0681
 5158TIP3    H239670   3.753   0.966   9.485 -0.3193  2.0886 -1.8551
 5159TIP3   OH239671   3.763   3.266  11.244  0.1318 -0.6295  0.2632
 5159TIP3    H139672   3.778   3.172  11.254  1.7895 -0.2355  2.1539
 5159TIP3    H239673   3.827   3.293  11.177 -1.2321 -1.0043 -1.2487
 5160TIP3   OH239674   2.746   5.186  11.090 -0.2561  0.0430  0.0812
 5160TIP3    H139675   2.823   5.205  11.144 -1.0099  2.8074  0.3380
 5160TIP3    H239676   2.757   5.242  11.013 -0.3342 -2.1473 -1.6228
 5161TIP3   OH239677   3.419   4.387  11.199 -0.7395 -0.1918 -0.2344
 5161TIP3    H139678   3.465   4.312  11.238 -1.7465  0.2769  2.0126
 5161TIP3    H239679   3.326   4.370  11.215 -0.9715  1.7433  0.8542
 5162TIP3   OH239680   0.334   2.663  10.734 -0.2027 -0.3131 -0.2245
 5162TIP3    H139681   0.316   2.571  10.716 -3.3815  0.4887 -1.8935
 5162TIP3    H239682   0.300   2.677  10.823  3.6800 -1.4121  1.6382
 5163TIP3   OH239683   2.684   3.457   9.958 -0.4145  0.0615 -0.1493
 5163TIP3    H139684   2.736   3.529   9.993 -0.1246  0.3483 -1.1168
 5163TIP3    H239685   2.726   3.378   9.991 -0.9010  0.3224  1.1510
 5164TIP3   OH239686   5.315   5.542  11.820 -0.1870  0.2789  0.4841
 5164TIP3    H139687   5.256   5.612  11.792  1.4787  0.9478 -1.6550
 5164TIP3    H239688   5.375   5.530  11.746  2.4881 -0.2251  2.5797
 5165TIP3   OH239689   2.485   0.401  10.935 -0.2790  0.1465 -0.0180
 5165TIP3    H139690   2.478   0.436  10.847  1.5925 -3.0467 -1.6056
 5165TIP3    H239691   2.401   0.357  10.951 -0.4387  0.3212 -0.3762
 5166TIP3   OH239692   1.814   6.590   9.644  0.0533 -0.3524 -0.1677
 5166TIP3    H139693   1.726   6.567   9.674  0.2141 -0.3350  0.3315
 5166TIP3    H239694   1.863   6.608   9.725 -0.0580  1.7413 -0.4948
 5167TIP3   OH239695   0.733   5.769  11.516 -0.4070  0.0436  0.4848
 5167TIP3    H139696   0.650   5.756  11.469 -0.6933 -0.7360  1.1896
 5167TIP3    H239697   0.710   5.757  11.608  0.8986 -2.4368  0.5689
 5168TIP3   OH239698   0.153   2.567   8.638 -0.3774 -0.0740  0.3484
 5168TIP3    H139699   0.097   2.567   8.716 -0.9434  0.4821 -0.0462
 5168TIP3    H239700   0.220   2.501   8.657  0.4693  1.1847  2.0074
 5169TIP3   OH239701   5.775   1.227  10.448  0.3108 -0.0666 -0.0201
 5169TIP3    H139702   5.852   1.248  10.394  1.1253 -2.9584 -0.1608
 5169TIP3    H239703   5.810   1.176  10.521 -1.3211 -0.0867  0.8014
 5170TIP3   OH239704   5.054   5.946  12.389 -0.2184 -0.1604 -0.6730
 5170TIP3    H139705   5.141   5.983  12.374 -1.5189  2.5966 -2.2220
 5170TIP3    H239706   5.028   5.911  12.304 -0.6881 -0.8487 -0.2566
 5171TIP3   OH239707   3.157   3.756  11.801  0.2491 -0.3444 -0.5140
 5171TIP3    H139708   3.188   3.785  11.887  0.3491 -0.4646 -0.5085
 5171TIP3    H239709   3.231   3.707  11.764  0.8539  1.1778 -1.4094
 5172TIP3   OH239710   1.522   0.409   9.619 -0.0004  0.2849 -0.2939
 5172TIP3    H139711   1.574   0.336   9.652  0.0127  1.1268  1.7412
 5172TIP3    H239712   1.556   0.485   9.666 -1.5407  1.2193 -0.6264
 5173TIP3   OH239713   6.334   1.664  12.227  0.5939 -0.3929 -0.0877
 5173TIP3    H139714   6.242   1.660  12.253  0.8135  0.3626  0.8482
 5173TIP3    H239715   6.373   1.728  12.287  1.3643  0.5878 -1.5788
 5174TIP3   OH239716   1.474   4.423  10.662 -0.3627  0.5458  0.4294
 5174TIP3    H139717   1.540   4.483  10.627 -0.1104  0.7305  1.2001
 5174TIP3    H239718   1.451   4.461  10.747 -0.4800 -0.2408  0.7502
 5175TIP3   OH239719   5.015   4.506  10.858 -0.2789  0.3421  0.3834
 5175TIP3    H139720   5.023   4.562  10.781  0.5098  0.9340  0.8763
 5175TIP3    H239721   5.018   4.567  10.932  2.8846 -0.4517  1.0493
 5176TIP3   OH239722   0.954   5.013  10.905  0.3896 -0.1710  0.0445
 5176TIP3    H139723   0.920   4.947  10.966  0.7992 -1.8415 -1.4440
 5176TIP3    H239724   1.037   5.040  10.945 -0.0311 -0.1413  0.9384
 5177TIP3   OH239725   4.577   1.275  12.300 -0.3735 -0.3826  0.1871
 5177TIP3    H139726   4.489   1.312  12.291 -0.6213 -1.2651 -1.2881
 5177TIP3    H239727   4.566   1.200  12.358 -0.7067 -0.8019 -0.4069
 5178TIP3   OH239728   3.156   6.382   9.983 -0.0110 -0.6275 -0.0872
 5178TIP3    H139729   3.096   6.309   9.970  0.5639 -1.3764  1.3326
 5178TIP3    H239730   3.212   6.382   9.905  1.9324 -3.6082  1.1407
 5179TIP3   OH239731   4.790   3.778  10.017  0.0431  0.2489  0.2717
 5179TIP3    H139732   4.706   3.734  10.000  0.5249 -0.3462 -0.6540
 5179TIP3    H239733   4.856   3.719   9.981  1.0411 -0.1787  2.6144
 5180TIP3   OH239734   6.602   5.936  12.217 -0.1185  0.3957 -0.2362
 5180TIP3    H139735   6.590   5.842  12.202 -0.1252  0.5270 -1.0735
 5180TIP3    H239736   6.515   5.973  12.207 -0.5047  0.2577  2.0610
 5181TIP3   OH239737   4.683   4.801  11.036 -0.0378 -0.2164  0.0099
 5181TIP3    H139738   4.636   4.882  11.053  1.0826  0.4853 -0.1235
 5181TIP3    H239739   4.622   4.732  11.062 -1.3622  0.6229 -0.7505
 5182TIP3   OH239740   0.792   0.811  10.772  0.2277 -0.1134 -0.4543
 5182TIP3    H139741   0.737   0.768  10.838  0.0236  1.2577  0.3256
 5182TIP3    H239742   0.878   0.771  10.782  0.1119 -0.1589  0.4372
 5183TIP3   OH239743   1.992   3.468  11.173 -0.0190 -0.0901 -0.1022
 5183TIP3    H139744   2.076   3.509  11.195 -0.5075  2.1241 -1.9848
 5183TIP3    H239745   1.927   3.528  11.208 -0.8212 -0.8616 -0.2436
 5184TIP3   OH239746   3.593   5.608   9.340  0.7325 -0.2398 -0.6167
 5184TIP3    H139747   3.670   5.551   9.345  0.0609 -1.3235 -2.1135
 5184TIP3    H239748   3.519   5.548   9.337 -0.3736  0.7911  2.4300
 5185TIP3   OH239749   0.389   5.071   9.380  0.1557  0.2575  0.4883
 5185TIP3    H139750   0.340   4.999   9.419 -0.2460 -0.6994 -1.6853
 5185TIP3    H239751   0.481   5.043   9.384  0.0091 -0.3456 -0.2594
 5186TIP3   OH239752   0.177   0.363   9.868 -0.1088 -0.0693  0.0803
 5186TIP3    H139753   0.085   0.336   9.867  0.3320 -1.6502 -1.0469
 5186TIP3    H239754   0.183   0.425   9.941 -2.1693  0.4922 -0.1685
 5187TIP3   OH239755   1.979   5.093  10.734  0.4787  0.4080  0.3530
 5187TIP3    H139756   1.905   5.043  10.699  1.7176 -0.9071 -0.5583
 5187TIP3    H239757   2.038   5.026  10.769  1.8206  1.2878 -0.1264
 5188TIP3   OH239758   1.775   6.467  12.233 -0.3760 -0.3541 -0.4377
 5188TIP3    H139759   1.738   6.511  12.156 -1.4032  0.1776  0.3312
 5188TIP3    H239760   1.862   6.438  12.205  0.4522  2.3262 -0.9648
 5189TIP3   OH239761   3.064   3.209  12.114  0.2572 -0.0273 -0.1203
 5189TIP3    H139762   3.140   3.239  12.065  0.5283 -1.4070 -0.5876
 5189TIP3    H239763   2.991   3.260  12.078  0.6961  0.0983 -0.8498
 5190TIP3   OH239764   4.454   2.076   8.876 -0.3652  0.6128 -0.0688
 5190TIP3    H139765   4.505   2.001   8.906 -0.9327  0.6763  1.1114
 5190TIP3    H239766   4.366   2.041   8.861 -0.3592  0.8167 -0.5853
 5191TIP3   OH239767   4.455   2.455  10.811 -0.5069 -0.2645  0.1683
 5191TIP3    H139768   4.520   2.453  10.881 -0.8471 -0.0741  0.4933
 5191TIP3    H239769   4.432   2.364  10.797 -0.4228 -0.3054  0.2907
 5192TIP3   OH239770   3.584   2.704  11.108  0.4994  0.7009 -0.0220
 5192TIP3    H139771   3.537   2.650  11.044  0.4642  1.0080 -0.2613
 5192TIP3    H239772   3.515   2.736  11.167  0.3362  1.5150 -0.6395
 5193TIP3   OH239773   4.487   0.967  12.710  0.3003  0.3465 -0.3282
 5193TIP3    H139774   4.474   1.021  12.632  1.2578  0.6247 -0.3031
 5193TIP3    H239775   4.581   0.964  12.722  0.2265 -0.8139  0.0535
 5194TIP3   OH239776   1.762   6.296   9.208  0.0214  0.0194  0.0544
 5194TIP3    H139777   1.682   6.274   9.161  0.8566 -0.8270 -1.0260
 5194TIP3    H239778   1.798   6.371   9.162 -0.3330  0.6479  0.7773
 5195TIP3   OH239779   4.351   3.261  10.609 -0.3397 -0.4610  0.2806
 5195TIP3    H139780   4.403   3.184  10.631  1.5951  0.5903 -0.3111
 5195TIP3    H239781   4.337   3.254  10.514 -0.8601 -0.4973  0.3597
 5196TIP3   OH239782   2.111   6.525  11.055  0.2052 -0.7602 -0.5116
 5196TIP3    H139783   2.132   6.450  11.111  0.0370 -0.9613 -0.7131
 5196TIP3    H239784   2.182   6.528  10.992  1.3189  0.5244  0.7444
 5197TIP3   OH239785   4.887   3.020  11.317  0.0296 -0.1455  0.0741
 5197TIP3    H139786   4.889   2.925  11.334  0.3755 -0.0905  0.3599
 5197TIP3    H239787   4.838   3.056  11.391 -0.2712 -0.1195 -0.1357
 5198TIP3   OH239788   6.177   3.650  11.203  0.0700 -0.0410 -0.7126
 5198TIP3    H139789   6.175   3.556  11.183  1.5915 -0.2204 -0.1785
 5198TIP3    H239790   6.241   3.686  11.141 -1.6894  0.9756 -2.0259
 5199TIP3   OH239791   6.469   5.757  10.653  0.2930  0.1119  0.2605
 5199TIP3    H139792   6.393   5.809  10.681  0.1234 -0.1442  0.2801
 5199TIP3    H239793   6.525   5.755  10.730 -0.8476 -1.8372  1.1181
 5200TIP3   OH239794   6.063   4.626  12.085  0.1937  0.5605  0.3760
 5200TIP3    H139795   6.043   4.719  12.074 -1.1857  0.3918  1.2478
 5200TIP3    H239796   5.986   4.590  12.128  1.1988 -0.7622  1.1400
 5201TIP3   OH239797   0.113   3.543  11.829 -0.0051 -0.1564  0.5817
 5201TIP3    H139798   0.124   3.473  11.765 -0.4310 -0.1433  0.4867
 5201TIP3    H239799   0.047   3.509  11.890 -1.1791  0.6498 -0.1972
 5202TIP3   OH239800   0.185   1.992  12.167 -0.9160 -0.2985 -0.3159
 5202TIP3    H139801   0.106   1.991  12.112 -0.9411  0.2246 -0.2944
 5202TIP3    H239802   0.172   2.066  12.226 -0.3248 -0.0949 -0.4335
 5203TIP3   OH239803   4.641   1.170   8.985 -0.1218  0.2505 -0.3405
 5203TIP3    H139804   4.616   1.232   9.053  0.8918 -0.4008  0.6681
 5203TIP3    H239805   4.722   1.130   9.018 -0.1584 -0.8068 -1.4705
 5204TIP3   OH239806   1.216   4.282   9.887  0.5750  0.0562  0.4979
 5204TIP3    H139807   1.195   4.190   9.902  0.0837 -0.1425 -1.1655
 5204TIP3    H239808   1.196   4.325   9.970  0.3038 -1.2516  1.1357
 5205TIP3   OH239809   2.362   5.284  11.207 -0.0611  0.1012 -0.6803
 5205TIP3    H139810   2.377   5.332  11.289 -0.7158 -0.1090 -0.4245
 5205TIP3    H239811   2.445   5.288  11.161  0.4918 -0.2416  0.2441
 5206TIP3   OH239812   1.377   1.790  10.812  0.2484 -0.5252 -0.3786
 5206TIP3    H139813   1.468   1.784  10.839  0.1633 -0.7716 -0.1353
 5206TIP3    H239814   1.379   1.783  10.717  0.7228  2.4068 -0.6513
 5207TIP3   OH239815   2.235   4.738  10.425  0.1576  0.8293 -0.2907
 5207TIP3    H139816   2.234   4.710  10.333  0.4552  1.2169 -0.4176
 5207TIP3    H239817   2.231   4.834  10.420 -0.9140  0.8182  0.1292
 5208TIP3   OH239818   3.015   4.472   9.848  0.3133  0.4998  0.0438
 5208TIP3    H139819   3.002   4.539   9.915  1.1240 -1.1168  1.9072
 5208TIP3    H239820   2.939   4.414   9.856  1.1898 -0.5908  0.6886
 5209TIP3   OH239821   2.729   6.331  11.235  0.8000 -0.0946 -0.2994
 5209TIP3    H139822   2.787   6.360  11.165  0.5561 -0.4302 -0.6492
 5209TIP3    H239823   2.655   6.290  11.189 -0.9159  2.4474  0.0200
 5210TIP3   OH239824   2.927   0.017  11.763 -0.4080 -0.5495  0.0487
 5210TIP3    H139825   3.013  -0.016  11.790  0.2960  0.4796 -0.8591
 5210TIP3    H239826   2.865  -0.045  11.802  0.7482 -1.4992  0.4643
 5211TIP3   OH239827   0.134   5.297  11.055  0.1371  0.4295  0.5872
 5211TIP3    H139828   0.222   5.262  11.041  0.5670  1.6775  0.0563
 5211TIP3    H239829   0.077   5.220  11.052  1.0190 -0.2166 -0.7955
 5212TIP3   OH239830   2.525   5.183  12.319 -0.4061 -0.0066  0.1901
 5212TIP3    H139831   2.442   5.200  12.274 -0.4180 -0.5783 -0.0199
 5212TIP3    H239832   2.537   5.088  12.311  0.5080  0.1352 -0.2149
 5213TIP3   OH239833   5.723   3.681  11.122  0.0757 -0.6105  0.4055
 5213TIP3    H139834   5.700   3.682  11.029 -0.8282 -1.6340  0.5992
 5213TIP3    H239835   5.720   3.589  11.147 -1.9889 -0.2023  1.9830
 5214TIP3   OH239836   6.592   4.680  10.499  0.4333  0.0355  0.0690
 5214TIP3    H139837   6.668   4.714  10.545  0.0651  0.5767  0.2861
 5214TIP3    H239838   6.620   4.595  10.465  1.1663  0.2812  0.0460
 5215TIP3   OH239839   6.011   3.561   9.984  0.5043 -0.1855 -0.6688
 5215TIP3    H139840   5.991   3.648  10.019  4.4912 -0.6102  3.5910
 5215TIP3    H239841   6.072   3.577   9.913 -0.3761  0.4743 -1.3050
 5216TIP3   OH239842   3.027   6.138   9.939 -0.1488 -0.2352  0.0477
 5216TIP3    H139843   2.934   6.121   9.953 -0.7142  0.8947 -1.9190
 5216TIP3    H239844   3.046   6.103   9.852  0.6092  1.6869 -0.6325
 5217TIP3   OH239845   2.443   3.512   8.977 -0.0449  0.1285  0.1649
 5217TIP3    H139846   2.431   3.518   8.882  0.7985  2.4692  0.1466
 5217TIP3    H239847   2.356   3.529   9.013 -0.1210  0.5026 -0.1827
 5218TIP3   OH239848   1.169   2.422   8.912 -0.1591  0.5224  0.1016
 5218TIP3    H139849   1.102   2.465   8.859  0.0663  0.4458 -0.2466
 5218TIP3    H239850   1.121   2.353   8.959 -0.2004 -0.0289 -0.7191
 5219TIP3   OH239851   4.414   2.141  12.207 -0.1017 -0.0273 -0.6157
 5219TIP3    H139852   4.440   2.186  12.288 -1.3880  0.2366 -0.3374
 5219TIP3    H239853   4.428   2.207  12.139  2.0337 -0.5916 -0.8130
 5220TIP3   OH239854   0.606   2.768  10.692  0.3940  0.1522 -0.4441
 5220TIP3    H139855   0.670   2.735  10.756  0.6787  0.2409 -0.6793
 5220TIP3    H239856   0.524   2.725  10.716 -0.1195  2.0847  1.5845
 5221TIP3   OH239857   3.219   4.878  12.214  0.0473 -0.1122 -1.1221
 5221TIP3    H139858   3.201   4.809  12.277  4.8269 -1.5513 -0.9586
 5221TIP3    H239859   3.179   4.847  12.133 -0.7998 -1.3752 -0.2633
 5222TIP3   OH239860   5.522   2.412  12.065 -0.5257  0.5582 -0.1537
 5222TIP3    H139861   5.482   2.492  12.098 -0.8665  0.1085  0.5413
 5222TIP3    H239862   5.589   2.443  12.003  1.6777  1.5681  2.4884
 5223TIP3   OH239863   5.035   3.772  10.451  0.1726 -0.5110  0.6528
 5223TIP3    H139864   4.979   3.778  10.528 -0.6924  0.0876 -0.0087
 5223TIP3    H239865   4.984   3.723  10.387 -0.1550  1.1547 -0.4150
 5224TIP3   OH239866   3.086   3.183  10.299  0.1514 -0.2287 -0.2274
 5224TIP3    H139867   3.126   3.096  10.308  1.6242  0.5837  1.6440
 5224TIP3    H239868   3.045   3.199  10.384 -0.2221  0.8554 -0.6054
 5225TIP3   OH239869   5.320   0.569   9.841 -0.4463 -0.0959  0.0703
 5225TIP3    H139870   5.226   0.554   9.856 -0.0671 -1.2807  1.5666
 5225TIP3    H239871   5.347   0.494   9.787 -0.1438 -0.4041  0.6406
 5226TIP3   OH239872   4.823   2.191   9.798 -0.1636 -0.1388 -0.5660
 5226TIP3    H139873   4.778   2.111   9.769  0.3290 -1.1803  1.3870
 5226TIP3    H239874   4.762   2.231   9.859 -0.0064  0.4863 -0.8178
 5227TIP3   OH239875   4.864   4.457  12.096 -0.1692  0.3137 -0.5362
 5227TIP3    H139876   4.787   4.431  12.046 -1.1209  1.3285  0.3751
 5227TIP3    H239877   4.925   4.383  12.085 -1.7158 -1.0519 -0.2886
 5228TIP3   OH239878   4.626   5.927  11.385  0.6963 -0.4390  0.2139
 5228TIP3    H139879   4.689   5.998  11.398  0.3350 -0.1365  0.3516
 5228TIP3    H239880   4.662   5.853  11.433  1.8599 -0.8321 -1.1825
 5229TIP3   OH239881   1.719   4.969   9.179 -0.6681 -0.2113  0.9490
 5229TIP3    H139882   1.650   5.032   9.200  0.5829  0.8107  2.2112
 5229TIP3    H239883   1.798   5.023   9.167 -0.4183 -1.1217 -2.6159
 5230TIP3   OH239884   1.429   2.301  11.215  0.0708 -0.1290 -0.5521
 5230TIP3    H139885   1.398   2.258  11.295 -2.2587 -0.1514 -1.4045
 5230TIP3    H239886   1.479   2.233  11.170 -0.6658 -0.8919 -0.2577
 5231TIP3   OH239887   0.933   5.488  11.412 -0.1026  0.2160  0.1191
 5231TIP3    H139888   0.873   5.519  11.344 -0.5078 -0.3589  0.2120
 5231TIP3    H239889   1.007   5.548  11.407  0.4300 -0.4974 -1.6548
 5232TIP3   OH239890   3.900   0.822   9.225 -0.7695 -0.5647  0.8309
 5232TIP3    H139891   3.978   0.768   9.236  1.4170  2.0777 -0.3437
 5232TIP3    H239892   3.884   0.859   9.311  2.4019  2.5555  0.3358
 5233TIP3   OH239893   3.278   3.234  11.208 -0.2669  0.0394 -0.2894
 5233TIP3    H139894   3.348   3.183  11.167 -0.0012  0.8418 -0.8792
 5233TIP3    H239895   3.298   3.232  11.301  0.1089 -0.3953 -0.3755
 5234TIP3   OH239896   2.785   4.300   9.841 -0.1418 -0.0336  0.5385
 5234TIP3    H139897   2.734   4.278   9.919 -0.5103  2.1023  0.9774
 5234TIP3    H239898   2.825   4.218   9.814 -1.0749 -1.0892  2.2021
 5235TIP3   OH239899   2.100   0.864   8.486  0.3609  0.0711 -0.4597
 5235TIP3    H139900   2.183   0.851   8.532 -1.1633 -0.7500  2.3316
 5235TIP3    H239901   2.096   0.793   8.422  1.2389 -0.6836  0.2955
 5236TIP3   OH239902   4.982   2.429  11.751 -0.0461 -0.4589 -0.1216
 5236TIP3    H139903   4.944   2.507  11.790  0.4426 -0.3391  0.1271
 5236TIP3    H239904   4.921   2.358  11.774 -0.7708 -0.0739 -0.8033
 5237TIP3   OH239905   3.792   0.811  11.764 -0.2043 -0.7496  0.1273
 5237TIP3    H139906   3.850   0.786  11.837 -1.2980 -1.5119  0.7651
 5237TIP3    H239907   3.748   0.889  11.794 -1.2416 -1.5096  0.6338
 5238TIP3   OH239908   1.992   1.831   9.930  0.4181  0.5230  0.0885
 5238TIP3    H139909   2.065   1.878   9.970 -0.0585  1.8946 -0.5461
 5238TIP3    H239910   1.914   1.875   9.963 -0.1640 -1.1647  1.0536
 5239TIP3   OH239911   4.674   5.445  11.086  0.7791  0.0485 -0.4298
 5239TIP3    H139912   4.597   5.442  11.143 -1.3796  1.6084 -3.0135
 5239TIP3    H239913   4.725   5.519  11.117  0.0520  0.3946 -0.0469
 5240TIP3   OH239914   2.568   4.983   9.298  0.2863 -0.0847 -0.2536
 5240TIP3    H139915   2.519   4.938   9.229  1.6569 -0.8556 -0.7707
 5240TIP3    H239916   2.639   5.028   9.252 -0.5008  1.9014  0.3554
 5241TIP3   OH239917   0.310   0.943  12.098 -0.8935 -0.1572  0.1394
 5241TIP3    H139918   0.222   0.977  12.116 -0.8851  0.2162 -0.4627
 5241TIP3    H239919   0.369   1.016  12.119 -0.8008 -0.1039 -0.2827
 5242TIP3   OH239920   2.395   3.672  12.331  0.2231 -0.2346  0.0485
 5242TIP3    H139921   2.351   3.616  12.394 -2.2960  0.8898 -0.5951
 5242TIP3    H239922   2.392   3.624  12.248 -0.7456  0.2571 -0.2136
 5243TIP3   OH239923   2.463   3.625   9.662  0.3484 -0.3241  0.4184
 5243TIP3    H139924   2.475   3.532   9.643  0.3474 -0.3023  0.3088
 5243TIP3    H239925   2.550   3.663   9.652  0.2813 -0.2505  0.1057
 5244TIP3   OH239926   0.089   3.445  10.272 -0.5521 -0.4367 -0.7579
 5244TIP3    H139927   0.029   3.519  10.267 -1.1241 -0.7956  0.4853
 5244TIP3    H239928   0.044   3.375  10.223 -0.8748 -0.5250 -0.3388
 5245TIP3   OH239929   2.020   6.183   9.275 -0.0546  0.3279  0.1826
 5245TIP3    H139930   2.016   6.089   9.295  0.4082 -0.1425 -1.7740
 5245TIP3    H239931   1.928   6.212   9.280 -0.3021 -0.4036 -0.0171
 5246TIP3   OH239932   1.772   6.442  10.493 -0.2386  0.2543 -0.3530
 5246TIP3    H139933   1.834   6.385  10.538  0.3845  0.1802 -1.2821
 5246TIP3    H239934   1.687   6.416  10.528 -0.0589 -1.8207 -1.3007
 5247TIP3   OH239935   4.328   3.952  11.458  0.0165 -0.0073 -0.0750
 5247TIP3    H139936   4.407   4.007  11.457  0.9912 -1.3258 -1.8385
 5247TIP3    H239937   4.257   4.013  11.439  0.7121  1.0283  0.4561
 5248TIP3   OH239938   2.555   5.969   9.472  0.1454 -0.2933 -0.0849
 5248TIP3    H139939   2.499   5.971   9.549  0.0929 -0.7398 -0.1119
 5248TIP3    H239940   2.494   5.973   9.398  0.2524  3.1473 -0.1556
 5249TIP3   OH239941   4.882   4.066  11.335 -0.1334  0.1632 -0.2251
 5249TIP3    H139942   4.949   4.058  11.267 -0.9827 -2.0037 -0.9137
 5249TIP3    H239943   4.930   4.054  11.417  0.6757  1.2285 -0.5202
 5250TIP3   OH239944   4.342   5.630  12.145  0.6766  0.4207 -0.4763
 5250TIP3    H139945   4.379   5.702  12.093  1.3900  0.0435 -0.4971
 5250TIP3    H239946   4.377   5.551  12.104  2.5601  0.1311  1.5159
 5251TIP3   OH239947   2.816   0.721   9.767  0.4889 -0.0517 -0.6576
 5251TIP3    H139948   2.762   0.798   9.753 -0.6355 -0.3064  1.8257
 5251TIP3    H239949   2.851   0.731   9.855  2.5090 -1.1293 -1.2556
 5252TIP3   OH239950   1.664   3.145   8.408 -0.7691 -0.4693 -0.0923
 5252TIP3    H139951   1.615   3.062   8.406 -1.1768 -0.2745  0.9300
 5252TIP3    H239952   1.604   3.209   8.370 -1.9776  0.0606  2.4583
 5253TIP3   OH239953   4.206   1.927  12.253  0.0947 -0.5171  0.0577
 5253TIP3    H139954   4.250   2.005  12.219 -0.6598 -0.3068 -0.4631
 5253TIP3    H239955   4.259   1.854  12.221  0.6743 -0.2351  0.3522
 5254TIP3   OH239956   1.500   0.758   9.979 -0.0640  0.0862 -0.0486
 5254TIP3    H139957   1.507   0.842  10.025  1.1370  0.0485 -0.1398
 5254TIP3    H239958   1.406   0.747   9.964 -0.4292  0.4853  1.6939
 5255TIP3   OH239959   0.044   5.813  11.822 -0.0593 -0.1177  0.1143
 5255TIP3    H139960   0.130   5.853  11.834  1.0151 -1.5196 -2.3850
 5255TIP3    H239961  -0.000   5.869  11.758 -0.2810 -0.4713 -0.0426
 5256TIP3   OH239962   1.787   4.783  10.076  0.3863  0.2092 -0.0258
 5256TIP3    H139963   1.802   4.773   9.982  3.4836 -1.6630  0.5221
 5256TIP3    H239964   1.704   4.737  10.092 -0.2424  0.6488 -1.7987
 5257TIP3   OH239965   6.223   2.187   8.772 -0.5181  0.5013  0.3345
 5257TIP3    H139966   6.245   2.256   8.708 -0.4119 -1.1938 -1.5676
 5257TIP3    H239967   6.288   2.198   8.841 -0.3262  2.1152 -0.0508
 5258TIP3   OH239968   6.013   5.655  11.321  0.6031 -0.3729  0.5330
 5258TIP3    H139969   5.955   5.689  11.253  0.9949  1.3771  1.0087
 5258TIP3    H239970   6.022   5.562  11.301 -2.3133 -0.7341  0.4216
 5259TIP3   OH239971   3.315   1.558  12.422 -0.4634 -0.4933 -0.1538
 5259TIP3    H139972   3.335   1.651  12.423 -0.9224 -0.3861 -0.7407
 5259TIP3    H239973   3.309   1.533  12.514 -3.0006  0.6217  0.0397
 5260TIP3   OH239974   4.146   4.971   9.386  0.1342 -0.3969  0.2800
 5260TIP3    H139975   4.127   5.058   9.420 -0.2966 -0.5880  0.5469
 5260TIP3    H239976   4.079   4.956   9.320  1.8822  0.5886 -1.8267
 5261TIP3   OH239977   0.161   4.827  10.693 -0.2193 -0.4922  0.3025
 5261TIP3    H139978   0.168   4.740  10.732  1.1987 -1.2478 -1.4794
 5261TIP3    H239979   0.244   4.839  10.647 -1.5857  0.4573 -2.1314
 5262TIP3   OH239980   5.915   5.206  10.302 -0.1747 -0.3132  0.3537
 5262TIP3    H139981   5.890   5.172  10.216 -2.3953  0.3764  0.6589
 5262TIP3    H239982   5.890   5.137  10.364  0.6422 -0.4678  0.5131
 5263TIP3   OH239983   3.698   0.716  10.338  0.4824  0.5107 -0.0086
 5263TIP3    H139984   3.700   0.790  10.399 -0.3468  2.6223 -2.3404
 5263TIP3    H239985   3.786   0.715  10.299 -0.0063  1.4319 -1.1941
 5264TIP3   OH239986   3.272   4.812  11.623  0.2254 -0.7918  0.2795
 5264TIP3    H139987   3.306   4.848  11.541  0.7393 -0.4512  0.6365
 5264TIP3    H239988   3.228   4.731  11.597 -1.6869  0.4710 -0.6426
 5265TIP3   OH239989   1.489   5.609  10.994 -0.3775  0.7587 -0.0501
 5265TIP3    H139990   1.394   5.620  11.001 -0.8946 -3.1877  2.0673
 5265TIP3    H239991   1.503   5.576  10.906 -1.3104 -0.5230  0.2518
 5266TIP3   OH239992   1.714   3.790  11.706  0.3788  0.0239  0.5521
 5266TIP3    H139993   1.791   3.779  11.650 -0.7661 -1.0862 -0.8828
 5266TIP3    H239994   1.669   3.866  11.670 -0.5741 -0.9371 -0.3347
 5267TIP3   OH239995   3.233   5.598   9.201 -0.4815 -0.0400  0.3214
 5267TIP3    H139996   3.307   5.569   9.149  0.2481 -0.9945  1.8166
 5267TIP3    H239997   3.215   5.525   9.260 -0.7035  1.3079  1.9988
 5268TIP3   OH239998   3.637   5.945  12.410  0.2523  0.0600 -0.0515
 5268TIP3    H139999   3.616   5.980  12.323  0.4271 -0.1017 -0.1590
 5268TIP3    H240000   3.558   5.899  12.438 -0.1702  0.9845  0.3163
 5269TIP3   OH240001   6.344   1.812   9.167 -0.0126 -0.0743  0.4855
 5269TIP3    H140002   6.276   1.863   9.211 -0.7980 -0.2373 -0.5071
 5269TIP3    H240003   6.372   1.867   9.094  2.0742  0.6808  1.7635
 5270TIP3   OH240004   2.079   1.412   9.703 -0.1504  0.0106  0.0979
 5270TIP3    H140005   2.004   1.364   9.667 -0.3278  0.4198 -0.0909
 5270TIP3    H240006   2.104   1.363   9.782 -1.8822  0.9953  1.3071
 5271TIP3   OH240007   2.359   0.764   9.784  0.1553 -0.5198  0.8854
 5271TIP3    H140008   2.442   0.810   9.795 -0.6838  1.4041 -0.2575
 5271TIP3    H240009   2.294   0.834   9.771 -1.2018 -2.0011 -0.9412
 5272TIP3   OH240010   1.866   5.071  12.360  0.2173  0.1595 -0.0644
 5272TIP3    H140011   1.917   5.000  12.321 -0.4688 -0.7628  0.6651
 5272TIP3    H240012   1.775   5.040  12.358 -0.4425  1.9654 -1.7880
 5273TIP3   OH240013   3.602   4.805  11.999 -0.5217 -0.0569 -0.6985
 5273TIP3    H140014   3.533   4.864  12.029 -0.0759  0.0395  0.1687
 5273TIP3    H240015   3.557   4.743  11.942 -1.2117  0.3975 -0.6599
 5274TIP3   OH240016   5.413   6.156  10.888  0.1329 -0.2837  0.2411
 5274TIP3    H140017   5.343   6.219  10.905 -0.2943 -0.7197  0.1300
 5274TIP3    H240018   5.480   6.207  10.842 -0.2760  0.0573  0.0106
 5275TIP3   OH240019   0.630   3.840  11.394  0.1351 -0.0510 -0.5040
 5275TIP3    H140020   0.723   3.821  11.404  0.1069  0.7101  1.7580
 5275TIP3    H240021   0.589   3.799  11.469 -1.1005  1.2331 -0.4380
 5276TIP3   OH240022   3.227   4.315   9.863  0.2633 -0.8629  0.4648
 5276TIP3    H140023   3.236   4.310   9.768  2.1094  0.7871  0.4822
 5276TIP3    H240024   3.154   4.374   9.877  0.6905 -0.2265  0.0447
 5277TIP3   OH240025   5.795   1.438  11.903 -0.4792  0.2221  0.2540
 5277TIP3    H140026   5.713   1.473  11.938 -1.7562 -1.3740 -0.9855
 5277TIP3    H240027   5.781   1.435  11.808  0.7866 -0.6717  0.0722
 5278TIP3   OH240028   5.798   1.128  11.868  0.1834 -0.5884  0.5672
 5278TIP3    H140029   5.721   1.184  11.857  0.9696  0.1484 -2.0033
 5278TIP3    H240030   5.837   1.156  11.951 -1.2614  0.3544  0.9667
 5279TIP3   OH240031   1.215   6.203   9.511 -0.1722 -0.3748  0.4843
 5279TIP3    H140032   1.240   6.136   9.447  2.8903  1.3734 -0.3737
 5279TIP3    H240033   1.156   6.261   9.463  1.1137  0.2243 -0.4378
 5280TIP3   OH240034   3.690   1.583   8.568  0.5918 -0.6089  0.2016
 5280TIP3    H140035   3.674   1.586   8.474 -0.5312  0.7998  0.3959
 5280TIP3    H240036   3.648   1.502   8.597  0.4994 -0.7900 -0.4305
 5281TIP3   OH240037   3.762   2.971   8.471  0.1220 -0.3223  0.4577
 5281TIP3    H140038   3.718   3.056   8.483 -0.2220 -0.4868  0.3853
 5281TIP3    H240039   3.854   2.993   8.457 -0.1206  0.1030 -0.5387
 5282TIP3   OH240040   0.874   3.518  11.893  0.1328 -0.2397  0.1511
 5282TIP3    H140041   0.947   3.518  11.831 -0.8158  0.0684 -1.0052
 5282TIP3    H240042   0.838   3.607  11.888 -1.9116 -1.0434 -1.3038
 5283TIP3   OH240043   4.011   3.234  10.122 -0.3381 -0.1388  0.2652
 5283TIP3    H140044   4.043   3.149  10.092 -0.8524  0.2954 -1.6176
 5283TIP3    H240045   3.923   3.217  10.154  0.6063 -0.8105  2.7726
 5284TIP3   OH240046   3.471   1.752   8.590  0.1225 -0.1282 -0.0073
 5284TIP3    H140047   3.409   1.695   8.545  0.5345  1.0788 -2.2146
 5284TIP3    H240048   3.557   1.715   8.569  0.3238  0.3995 -0.1134
 5285TIP3   OH240049   2.465   2.931   9.382 -0.3129 -0.0412 -0.3390
 5285TIP3    H140050   2.431   2.960   9.297  1.8339  1.0990 -0.8850
 5285TIP3    H240051   2.483   3.013   9.429  3.6116 -0.3806 -0.9604
 5286TIP3   OH240052   3.068   2.283  10.639  0.0334 -0.1635 -0.1703
 5286TIP3    H140053   3.150   2.281  10.689 -0.8991  0.7634  1.4781
 5286TIP3    H240054   3.063   2.371  10.604 -0.1376 -0.3012 -0.4928
 5287TIP3   OH240055   6.395   5.114  10.649  0.2865  0.6652 -0.3123
 5287TIP3    H140056   6.315   5.110  10.596 -0.1578  3.3837  0.0244
 5287TIP3    H240057   6.466   5.122  10.585  0.1457 -0.0626 -0.5693
 5288TIP3   OH240058   5.178   6.338  10.680 -0.4175  0.2653 -0.1776
 5288TIP3    H140059   5.101   6.285  10.700  1.0750 -1.1252  2.4244
 5288TIP3    H240060   5.199   6.382  10.763  0.5058  2.1392 -1.3262
 5289TIP3   OH240061   0.491   3.070   9.627 -0.4460  0.7361 -0.0306
 5289TIP3    H140062   0.472   3.021   9.707  3.5203  1.1518  1.4160
 5289TIP3    H240063   0.441   3.151   9.636  0.0225  0.8392  2.1619
 5290TIP3   OH240064   1.004   0.647  10.808 -0.1149  0.3757 -0.1779
 5290TIP3    H140065   0.940   0.578  10.823  0.4769 -0.6231 -1.9987
 5290TIP3    H240066   1.079   0.602  10.768  0.7675  1.8859 -0.3003
 5291TIP3   OH240067   2.787   5.234   9.521  0.0757  0.0169  0.3032
 5291TIP3    H140068   2.692   5.227   9.515  0.0407 -1.1454  1.6460
 5291TIP3    H240069   2.814   5.269   9.436 -1.4920 -0.3266 -0.3691
 5292TIP3   OH240070   0.024   0.898  10.448 -0.4985  0.3246 -0.6255
 5292TIP3    H140071   0.062   0.980  10.419 -1.7433  0.9972 -0.4202
 5292TIP3    H240072   0.041   0.837  10.376  1.4518  0.4076 -0.3021
 5293TIP3   OH240073   1.320   1.767   9.966 -0.0958  0.0311 -0.0255
 5293TIP3    H140074   1.281   1.852   9.946  0.1909  0.4611  1.1409
 5293TIP3    H240075   1.246   1.707   9.974 -0.2282 -0.2197 -2.3774
 5294TIP3   OH240076   4.450   3.790  11.998  0.3759  0.3803 -0.2941
 5294TIP3    H140077   4.387   3.759  12.064 -2.2178  1.4353 -2.0867
 5294TIP3    H240078   4.517   3.836  12.049 -0.0749 -1.0780  1.7558
 5295TIP3   OH240079   3.060   1.507   9.598 -0.1978 -0.2297 -0.2755
 5295TIP3    H140080   3.006   1.430   9.615  0.4532 -0.9128 -1.1983
 5295TIP3    H240081   3.017   1.551   9.524  0.6845 -1.0101 -1.3019
 5296TIP3   OH240082   0.834   3.255  10.282 -0.3124 -0.1926 -0.1165
 5296TIP3    H140083   0.814   3.163  10.263 -0.1559 -0.1559 -0.4741
 5296TIP3    H240084   0.867   3.255  10.372 -0.6479 -0.4381  0.0064
 5297TIP3   OH240085   4.697   0.423  12.293  0.0390 -0.1607 -0.6329
 5297TIP3    H140086   4.788   0.411  12.320  0.5982  1.7415 -1.4837
 5297TIP3    H240087   4.679   0.349  12.236  0.6792 -1.1401  0.3924
 5298TIP3   OH240088   6.360   3.078  11.665  0.5161 -0.4310  0.2435
 5298TIP3    H140089   6.401   3.165  11.659  0.4900 -0.4041  0.4664
 5298TIP3    H240090   6.433   3.018  11.675  0.4572 -0.2657  2.0241
 5299TIP3   OH240091   6.254   5.400  12.101  0.5811  0.0508 -0.2706
 5299TIP3    H140092   6.246   5.312  12.065 -0.8696  0.7301 -1.7650
 5299TIP3    H240093   6.166   5.437  12.093  0.7600  1.0895  1.8664
 5300TIP3   OH240094   4.671   5.983  11.852 -0.3974  0.3238 -0.0735
 5300TIP3    H140095   4.638   6.072  11.839 -2.5875 -0.4441 -0.2783
 5300TIP3    H240096   4.691   5.978  11.945  1.5858  1.5672 -0.3906
 5301TIP3   OH240097   2.362   5.624  10.448 -0.4920  0.0183  0.2467
 5301TIP3    H140098   2.385   5.653  10.536  0.0416 -1.4753  0.6297
 5301TIP3    H240099   2.275   5.584  10.458 -0.9582  0.8943 -0.1551
 5302TIP3   OH240100   3.722   6.536  12.393 -0.1078  0.2020 -0.7891
 5302TIP3    H140101   3.632   6.508  12.378  0.4243 -3.3092  1.5322
 5302TIP3    H240102   3.773   6.492  12.325  0.0447  1.4952 -1.5618
 5303TIP3   OH240103   4.505   2.093   9.163  1.1817 -0.1058 -0.0788
 5303TIP3    H140104   4.424   2.104   9.114  0.5974  2.0887  1.2500
 5303TIP3    H240105   4.538   2.006   9.137  0.1580  0.3198 -3.1393
 5304TIP3   OH240106   5.671   4.073   9.405 -0.6195  0.6087  0.3414
 5304TIP3    H140107   5.580   4.098   9.419 -0.8332  0.0650 -0.0421
 5304TIP3    H240108   5.698   4.124   9.328 -0.2551  1.5900  1.0916
 5305TIP3   OH240109   0.012   4.630  11.879 -0.1124  0.2215 -0.4134
 5305TIP3    H140110   0.086   4.651  11.936 -0.1112  2.4512 -1.1188
 5305TIP3    H240111   0.050   4.577  11.809  0.4623 -0.1094  0.1358
 5306TIP3   OH240112   2.442   0.865  12.550  0.3132 -0.2407 -0.3664
 5306TIP3    H140113   2.352   0.885  12.523  0.4141 -0.4100 -0.8398
 5306TIP3    H240114   2.469   0.941  12.601 -0.0836 -0.1712 -0.2528
 5307TIP3   OH240115   1.601   1.243  10.846 -0.3300  0.1941  0.5359
 5307TIP3    H140116   1.618   1.181  10.775 -0.1285  0.0545  0.7068
 5307TIP3    H240117   1.669   1.226  10.910 -0.7744  0.0171  0.9691
 5308TIP3   OH240118   0.492   2.372  11.827 -0.2142  0.5161 -0.0874
 5308TIP3    H140119   0.469   2.389  11.918  1.1151  0.2754  0.3250
 5308TIP3    H240120   0.467   2.452  11.780 -2.4089  0.0364  0.1564
 5309TIP3   OH240121   5.123   2.517   9.710 -0.2767 -0.5392  0.0211
 5309TIP3    H140122   5.071   2.442   9.680 -0.9052 -0.1208  0.0532
 5309TIP3    H240123   5.068   2.560   9.776  0.3360 -0.3978  0.4560
 5310TIP3   OH240124   1.525   2.344   9.455 -0.0660 -0.2565  0.4439
 5310TIP3    H140125   1.434   2.321   9.474 -0.7151  2.2868  0.7949
 5310TIP3    H240126   1.576   2.297   9.520 -1.4453  0.6699  2.2848
 5311TIP3   OH240127   1.600   1.438  10.139 -0.5034  0.6473 -0.1618
 5311TIP3    H140128   1.565   1.457  10.226  0.0347 -2.3907  0.8585
 5311TIP3    H240129   1.690   1.471  10.141 -0.5748  0.8114  0.3310
 5312TIP3   OH240130   5.148   5.344   9.395 -0.2066  0.8521 -0.3041
 5312TIP3    H140131   5.079   5.370   9.334  1.0818  1.1317 -1.7090
 5312TIP3    H240132   5.186   5.427   9.424  0.7406  0.6824 -1.0077
 5313TIP3   OH240133   3.802   0.210   9.340  0.0771  0.1071  0.1533
 5313TIP3    H140134   3.796   0.268   9.263  0.0306  0.0944  0.1477
 5313TIP3    H240135   3.895   0.192   9.349  0.1980  0.9717  0.7413
 5314TIP3   OH240136   1.710   4.682  11.180 -0.2775 -0.3952 -0.0934
 5314TIP3    H140137   1.704   4.647  11.269  0.6037  0.9636  0.5227
 5314TIP3    H240138   1.694   4.606  11.123 -0.3602 -1.3793  1.2050
 5315TIP3   OH240139   2.747   3.437  12.340 -0.1424 -0.3369  0.1994
 5315TIP3    H140140   2.793   3.484  12.270 -0.6634 -0.9508 -0.5803
 5315TIP3    H240141   2.759   3.491  12.418  0.5301  0.3168 -0.3431
 5316TIP3   OH240142   4.462   6.019  10.237  0.0399 -0.6551  0.0807
 5316TIP3    H140143   4.433   6.066  10.315 -1.1377 -0.2855 -0.5503
 5316TIP3    H240144   4.470   6.087  10.170  1.6363 -0.8752  0.0204
 5317TIP3   OH240145   4.793   5.847  10.886  0.2082 -0.1275 -0.0071
 5317TIP3    H140146   4.829   5.864  10.973  1.8685 -1.3688 -0.4167
 5317TIP3    H240147   4.802   5.753  10.873 -1.0093 -0.1325 -1.1227
 5318TIP3   OH240148   4.773   1.449  10.081  0.0689 -0.5374 -0.7086
 5318TIP3    H140149   4.816   1.427  10.163  0.7351  1.1908 -0.5600
 5318TIP3    H240150   4.844   1.478  10.023 -0.6773  0.7360 -1.0272
 5319TIP3   OH240151   4.834   5.029  11.512 -0.0559 -0.3747  0.0043
 5319TIP3    H140152   4.749   5.073  11.506 -0.1270 -0.2073  1.6666
 5319TIP3    H240153   4.827   4.955  11.451 -0.5037  0.9675 -1.6442
 5320TIP3   OH240154   6.331   0.567   9.865  0.0563 -0.0473  0.4636
 5320TIP3    H140155   6.350   0.575   9.959 -0.5139  0.0289  0.5790
 5320TIP3    H240156   6.251   0.514   9.862 -1.0151  1.5139  0.1303
 5321TIP3   OH240157   3.641   0.443   9.915 -0.1236  0.2526  0.4545
 5321TIP3    H140158   3.621   0.439   9.822  0.1419 -2.3279  0.4352
 5321TIP3    H240159   3.721   0.496   9.920  0.5542 -0.5715 -0.9517
 5322TIP3   OH240160   2.735   2.871  10.513  0.0383  0.0219  0.2265
 5322TIP3    H140161   2.808   2.911  10.559 -1.2883 -0.4043  2.8999
 5322TIP3    H240162   2.660   2.927  10.533 -0.7417 -0.5501 -0.9396
 5323TIP3   OH240163   5.950   5.294  10.860  0.2169 -0.1076  0.2056
 5323TIP3    H140164   6.017   5.290  10.928  0.6517 -0.7829 -0.2519
 5323TIP3    H240165   5.867   5.286  10.907  0.4582  0.6715  0.7668
 5324TIP3   OH240166   4.002   4.136  10.667 -0.3318 -0.2190  0.4671
 5324TIP3    H140167   3.999   4.078  10.743  1.0481 -0.3659  0.4360
 5324TIP3    H240168   3.939   4.100  10.605  0.6927 -1.8562  0.3335
 5325TIP3   OH240169   1.175   1.304  11.898  0.3656  0.5897  0.6087
 5325TIP3    H140170   1.258   1.351  11.886 -0.1091  1.5701  1.0729
 5325TIP3    H240171   1.110   1.373  11.911 -0.5957 -0.1502 -0.1040
 5326TIP3   OH240172   1.625   6.584   9.319  0.0181 -0.7977  0.3061
 5326TIP3    H140173   1.648   6.676   9.328  0.1255 -0.8327  0.4007
 5326TIP3    H240174   1.646   6.563   9.227 -1.0549 -0.4501 -0.0258
 5327TIP3   OH240175   3.283   0.510   9.491  0.0453  0.3678  0.1938
 5327TIP3    H140176   3.254   0.490   9.579  1.6143  1.3953  0.9859
 5327TIP3    H240177   3.211   0.560   9.453 -0.9736 -0.7551  0.5749
 5328TIP3   OH240178   6.239   1.152  10.546  0.0572  0.3976 -0.4517
 5328TIP3    H140179   6.279   1.086  10.603 -0.7489 -0.9754 -1.4080
 5328TIP3    H240180   6.226   1.228  10.603 -1.1793 -1.0685  1.3543
 5329TIP3   OH240181   1.032   5.312  11.896  0.5033 -0.4113  0.4982
 5329TIP3    H140182   1.056   5.391  11.944  1.1118  0.0306 -0.4815
 5329TIP3    H240183   0.986   5.345  11.818 -2.4798 -1.1931  1.7989
 5330TIP3   OH240184   2.990   5.192   9.951  0.2189  0.0505  0.2693
 5330TIP3    H140185   3.042   5.146  10.018 -1.0826 -0.2403  1.1091
 5330TIP3    H240186   3.005   5.142   9.871  0.0761 -0.9085  0.8259
 5331TIP3   OH240187   3.516   2.753  12.122 -0.2644  0.1739 -0.0343
 5331TIP3    H140188   3.479   2.713  12.201 -0.4050 -1.5064 -0.9186
 5331TIP3    H240189   3.443   2.802  12.084 -0.2017  0.9780  0.8429
 5332TIP3   OH240190   0.786   2.499  12.199 -0.5519 -0.5246  0.0723
 5332TIP3    H140191   0.716   2.437  12.218  0.9491 -2.6468 -0.8551
 5332TIP3    H240192   0.758   2.544  12.119 -1.6099 -0.0691  0.6867
 5333TIP3   OH240193   4.195   1.263  11.445  0.3766 -0.9117 -0.0787
 5333TIP3    H140194   4.242   1.180  11.457  0.4258 -0.8717  0.0073
 5333TIP3    H240195   4.198   1.305  11.531  0.6811 -0.6442 -0.2212
 5334TIP3   OH240196   2.613   4.165  10.031  0.0118 -0.1952 -0.2307
 5334TIP3    H140197   2.528   4.160   9.986 -0.3507  1.2409  0.2095
 5334TIP3    H240198   2.600   4.118  10.113 -0.3966  0.0920 -0.1279
 5335TIP3   OH240199   0.276   2.051   9.215  0.2150 -0.2883  0.5334
 5335TIP3    H140200   0.335   2.076   9.286  0.9717  1.0243 -0.5222
 5335TIP3    H240201   0.330   2.001   9.155 -0.1496 -0.4381  0.3250
 5336TIP3   OH240202   3.134   1.890   8.657  0.2861  0.1226 -0.0437
 5336TIP3    H140203   3.078   1.883   8.734  0.5959 -0.4445  0.1358
 5336TIP3    H240204   3.206   1.830   8.674  0.3701  0.0050 -0.7640
 5337TIP3   OH240205   2.977   6.253  11.312  0.0382 -0.7078 -0.5794
 5337TIP3    H140206   2.962   6.162  11.284  2.0306 -1.2151 -0.1499
 5337TIP3    H240207   2.890   6.293  11.309 -1.8880 -3.7935  3.3916
 5338TIP3   OH240208   1.864   0.597  10.608 -0.1012 -0.2598 -0.1801
 5338TIP3    H140209   1.853   0.684  10.645 -0.8096  0.2004 -1.4359
 5338TIP3    H240210   1.849   0.538  10.682  0.5678  0.6577  0.7307
 5339TIP3   OH240211   0.904   0.411  12.548  0.1193  0.0197 -0.0794
 5339TIP3    H140212   0.887   0.318  12.531  0.2593  0.1706 -1.0832
 5339TIP3    H240213   0.991   0.412  12.587  0.8599 -0.1475 -1.6480
 5340TIP3   OH240214   5.388   6.181  11.516 -0.2830 -0.1621 -0.2030
 5340TIP3    H140215   5.313   6.239  11.529 -0.9147 -0.8428 -0.7395
 5340TIP3    H240216   5.439   6.222  11.447 -1.5304 -0.9971 -1.6667
 5341TIP3   OH240217   5.684   6.031  11.607 -0.2838 -0.0364  0.5198
 5341TIP3    H140218   5.619   6.003  11.543  0.0269  1.9242 -0.7395
 5341TIP3    H240219   5.766   6.036  11.558  0.3599 -0.3037  1.5346
 5342TIP3   OH240220   6.269   4.470   9.563 -0.6659 -0.3208  0.1852
 5342TIP3    H140221   6.257   4.539   9.629  1.3325  0.6296 -0.3637
 5342TIP3    H240222   6.181   4.440   9.544 -1.7365  2.5879 -0.0430
 5343TIP3   OH240223   1.014   2.979  10.201  0.1920  0.1527 -0.1538
 5343TIP3    H140224   0.961   2.945  10.273  0.1830 -1.5239 -0.8912
 5343TIP3    H240225   1.096   2.929  10.206  1.2488  1.8176  0.1980
 5344TIP3   OH240226   0.274   4.175  10.070 -0.0814  0.4160 -0.2848
 5344TIP3    H140227   0.304   4.122  10.144 -1.0503  1.5265  0.9633
 5344TIP3    H240228   0.352   4.189  10.017  0.1999 -2.2309 -0.6827
 5345TIP3   OH240229   1.801   1.575  11.264  0.1053  0.2526 -0.2749
 5345TIP3    H140230   1.720   1.549  11.221 -0.3349 -0.3074  0.8611
 5345TIP3    H240231   1.800   1.671  11.261 -0.1825  0.2362 -0.9874
 5346TIP3   OH240232   3.845   2.206   9.204 -0.0848 -0.1799  0.0238
 5346TIP3    H140233   3.913   2.142   9.227 -1.9904 -1.5868  2.2649
 5346TIP3    H240234   3.857   2.278   9.266 -1.0813 -0.8403  1.0362
 5347TIP3   OH240235   4.783   5.569  11.731 -0.7213 -0.2623  0.6007
 5347TIP3    H140236   4.738   5.491  11.764  0.3522 -1.3529 -0.3996
 5347TIP3    H240237   4.797   5.623  11.808  1.1803 -2.4334  1.9148
 5348TIP3   OH240238   1.477   6.332   9.076 -0.1596  0.1415  0.1363
 5348TIP3    H140239   1.401   6.353   9.131 -0.0552 -1.2946  0.8579
 5348TIP3    H240240   1.526   6.414   9.071 -0.4086  0.4313  1.8267
 5349TIP3   OH240241   4.162   4.247  10.097  0.2412  0.5010  0.2396
 5349TIP3    H140242   4.075   4.274  10.126  0.2236  0.3669  0.3127
 5349TIP3    H240243   4.156   4.151  10.088  0.7651  0.3310  1.5600
 5350TIP3   OH240244   2.792   4.628  10.626 -0.0964 -0.3742 -0.1942
 5350TIP3    H140245   2.841   4.551  10.598 -0.0619  0.0743 -1.4410
 5350TIP3    H240246   2.826   4.648  10.713  0.4739 -1.2735 -0.1976
 5351TIP3   OH240247   5.159   5.593  10.633 -0.0720 -0.8413 -0.2732
 5351TIP3    H140248   5.147   5.553  10.719 -0.8400  0.1170  0.0897
 5351TIP3    H240249   5.080   5.645  10.620 -0.1025 -1.2216 -1.7083
 5352TIP3   OH240250   2.302   1.279  10.081  0.4943 -0.0521 -0.2877
 5352TIP3    H140251   2.357   1.263  10.157 -0.2460 -0.9648  0.0770
 5352TIP3    H240252   2.331   1.365  10.048  0.5267  0.5725  1.2679
 5353TIP3   OH240253   4.524   5.489  10.852  0.5608 -0.3013  0.5358
 5353TIP3    H140254   4.583   5.460  10.922  0.5649  0.4394  0.8447
 5353TIP3    H240255   4.454   5.535  10.898  1.4890  1.7968 -0.0517
 5354TIP3   OH240256   6.381   1.341  11.795  0.2925  0.4059 -0.4995
 5354TIP3    H140257   6.450   1.343  11.729  1.2790 -1.1369  0.4173
 5354TIP3    H240258   6.394   1.421  11.846  1.5672  0.0185 -0.1983
 5355TIP3   OH240259   2.651   1.080  11.379  0.4785  0.0604 -0.4524
 5355TIP3    H140260   2.698   0.999  11.400  1.4838 -0.1022 -2.9217
 5355TIP3    H240261   2.679   1.141  11.447  2.6975 -0.6379 -0.6269
 5356TIP3   OH240262   1.550   2.771  10.073  0.7361  0.3003 -0.0560
 5356TIP3    H140263   1.628   2.826  10.078  1.4961 -0.5116 -2.0718
 5356TIP3    H240264   1.581   2.688  10.037 -0.6823 -0.8717  1.2747
 5357TIP3   OH240265   3.317   5.562  10.907  0.0916 -0.1584 -0.0829
 5357TIP3    H140266   3.325   5.650  10.870  0.0872  0.7655  1.9712
 5357TIP3    H240267   3.297   5.577  10.999 -0.5932 -2.3391  0.1685
 5358TIP3   OH240268   3.497   3.144  11.003  0.4319  0.1197 -0.1505
 5358TIP3    H140269   3.568   3.080  11.009 -0.7456 -1.2897 -0.5372
 5358TIP3    H240270   3.435   3.105  10.941 -1.2340  0.7339  1.0501
 5359TIP3   OH240271   0.888   1.750  11.265  1.1064 -0.1289 -0.3812
 5359TIP3    H140272   0.902   1.664  11.225 -1.2304 -0.1420 -1.3080
 5359TIP3    H240273   0.816   1.789  11.216  0.4690  1.3687  1.5687
 5360TIP3   OH240274   4.492   4.202  11.185 -0.1934 -0.8351  0.3703
 5360TIP3    H140275   4.469   4.293  11.171 -0.5291 -0.9507  0.1654
 5360TIP3    H240276   4.588   4.200  11.179 -0.0733 -0.2726  1.7278
 5361TIP3   OH240277   1.893   1.129  11.200 -0.2491 -0.0845 -0.2726
 5361TIP3    H140278   1.912   1.223  11.202 -0.3161 -0.0395 -1.2673
 5361TIP3    H240279   1.965   1.090  11.151 -0.4054 -0.5166 -0.1706
 5362TIP3   OH240280   6.125   1.799  10.214  0.0501  0.3438  0.1309
 5362TIP3    H140281   6.184   1.724  10.205  0.2924  0.5254  0.2258
 5362TIP3    H240282   6.085   1.808  10.127 -0.7362 -0.5253  0.3834
 5363TIP3   OH240283   0.208   4.415  11.549  0.0350  0.2940 -0.9491
 5363TIP3    H140284   0.160   4.497  11.550 -0.0501  0.2431 -0.6810
 5363TIP3    H240285   0.291   4.436  11.506  0.1779  0.6137 -0.5227
 5364TIP3   OH240286   4.843   4.417  12.538 -0.2450 -0.1058  0.0593
 5364TIP3    H140287   4.866   4.510  12.528 -0.0603 -0.1555  0.0085
 5364TIP3    H240288   4.872   4.395  12.627  0.7975 -0.4181 -0.3456
 5365TIP3   OH240289   3.673   1.771  11.510  0.7976 -0.1520 -0.3443
 5365TIP3    H140290   3.652   1.863  11.494 -0.7645 -0.4731 -0.2979
 5365TIP3    H240291   3.609   1.743  11.575  0.2277 -1.6748 -1.5086
 5366TIP3   OH240292   4.979   3.439  10.834 -0.0467  0.1563 -0.1756
 5366TIP3    H140293   4.938   3.501  10.895  1.6144  0.1130  1.0401
 5366TIP3    H240294   4.990   3.359  10.885 -2.2797 -1.2757 -1.7591
 5367TIP3   OH240295   2.529   4.713  11.992  0.4341  0.3439  0.0015
 5367TIP3    H140296   2.443   4.748  12.016 -0.4293 -1.2240 -0.6067
 5367TIP3    H240297   2.580   4.790  11.967 -1.0046  1.2748 -0.2298
 5368TIP3   OH240298   4.943   6.585  10.209 -0.2747 -0.6856  0.6982
 5368TIP3    H140299   5.018   6.631  10.245 -0.7136  1.5368 -1.0103
 5368TIP3    H240300   4.920   6.634  10.130 -1.6040 -3.1227 -0.5640
 5369TIP3   OH240301   4.464   0.527  12.261 -0.4681  0.2816  0.3835
 5369TIP3    H140302   4.436   0.544  12.351 -0.3045 -0.2692  0.5413
 5369TIP3    H240303   4.552   0.491  12.269  0.6141  2.5853 -0.1446
 5370TIP3   OH240304   1.111   3.325  10.707 -0.1804  0.6963  0.2924
 5370TIP3    H140305   1.110   3.401  10.649 -2.1035  0.3947 -0.1372
 5370TIP3    H240306   1.125   3.362  10.794 -0.2350  1.4596 -0.0107
 5371TIP3   OH240307   3.276   0.737   9.756 -0.0721  0.2416  0.1822
 5371TIP3    H140308   3.189   0.722   9.719 -0.8092  1.1650  1.4828
 5371TIP3    H240309   3.261   0.744   9.850  1.6852 -1.5246  0.6569
 5372TIP3   OH240310   6.417   6.340  11.638  0.4768 -0.2120  0.1429
 5372TIP3    H140311   6.365   6.412  11.674  0.8912 -0.3442  1.0328
 5372TIP3    H240312   6.402   6.344  11.544  0.5820  1.1186  0.1666
 5373TIP3   OH240313   0.393   4.869  10.442  0.2032 -0.8179  0.1951
 5373TIP3    H140314   0.369   4.868  10.349 -2.8366 -0.0233  0.8722
 5373TIP3    H240315   0.430   4.956  10.456 -1.4006 -0.1171  0.1686
 5374TIP3   OH240316   4.823   2.745  11.364 -0.1599  0.0436  0.3231
 5374TIP3    H140317   4.794   2.674  11.307  0.0440  0.0655  0.1902
 5374TIP3    H240318   4.859   2.701  11.441 -1.5453  0.0310  0.9950
 5375TIP3   OH240319   5.972   3.514  11.021  0.4420  0.5651 -0.2063
 5375TIP3    H140320   5.935   3.602  11.029  3.6706  2.2775 -1.8533
 5375TIP3    H240321   5.967   3.494  10.927  1.9193  0.1059 -0.2198
 5376TIP3   OH240322   1.758   0.884  10.579  0.6224  0.6456  0.0225
 5376TIP3    H140323   1.674   0.890  10.534  0.6798  2.1642  0.0629
 5376TIP3    H240324   1.736   0.893  10.672  0.8458  1.4110  0.0096
 5377TIP3   OH240325   1.452   0.320  12.075 -0.7319  0.1386  0.0525
 5377TIP3    H140326   1.521   0.279  12.022 -1.5630 -0.2755 -0.7430
 5377TIP3    H240327   1.392   0.358  12.010 -0.8748  1.1310  0.7472
 5378TIP3   OH240328   1.835   1.192   9.671  0.7069 -0.3282  0.5151
 5378TIP3    H140329   1.881   1.165   9.750 -1.6947 -0.9329  1.8071
 5378TIP3    H240330   1.797   1.277   9.693  0.0305 -0.4925  0.0117
 5379TIP3   OH240331   3.291   2.712   9.379 -0.4007  0.3455  0.3556
 5379TIP3    H140332   3.290   2.780   9.312 -2.0921 -0.1949 -0.2228
 5379TIP3    H240333   3.213   2.660   9.361  1.2417 -2.2731  0.2668
 5380TIP3   OH240334   5.938   3.449  12.045 -0.2320  0.2295 -0.0287
 5380TIP3    H140335   6.009   3.498  12.087 -0.0036 -0.0896 -0.0404
 5380TIP3    H240336   5.864   3.509  12.047  0.3700  1.0639 -1.1379
 5381TIP3   OH240337   2.498   0.992   9.284 -0.2762  0.0499  0.0014
 5381TIP3    H140338   2.576   1.039   9.312 -0.2784 -0.4803  0.9386
 5381TIP3    H240339   2.467   1.040   9.207  0.7802  0.4532 -0.1838
 5382TIP3   OH240340   0.803   3.564   9.642 -0.3877 -0.1993 -0.1024
 5382TIP3    H140341   0.767   3.573   9.730 -0.4977 -0.5473 -0.1098
 5382TIP3    H240342   0.754   3.491   9.603 -0.5833  0.1783 -0.5740
 5383TIP3   OH240343   6.478   1.741  11.027 -0.3852 -0.4413  0.1644
 5383TIP3    H140344   6.555   1.760  10.973 -1.2357  0.3488 -0.8070
 5383TIP3    H240345   6.502   1.662  11.076  0.2133 -1.5190 -1.7690
 5384TIP3   OH240346   2.569   1.851  10.072  0.0086  0.2290 -0.0588
 5384TIP3    H140347   2.652   1.837  10.025  0.4869  1.7132  0.3007
 5384TIP3    H240348   2.578   1.938  10.111 -1.5084  0.1773  0.4556
 5385TIP3   OH240349   5.457   4.364  11.248  0.4565  0.1468 -0.6456
 5385TIP3    H140350   5.443   4.270  11.237 -2.5824  0.1134  1.9598
 5385TIP3    H240351   5.546   4.372  11.280  0.8017 -1.8074 -0.9935
 5386TIP3   OH240352   5.619   2.677  11.326 -0.3672  0.3550 -0.0142
 5386TIP3    H140353   5.531   2.700  11.356 -1.5226 -2.5555 -0.7925
 5386TIP3    H240354   5.640   2.596  11.373 -0.1467 -1.5597 -3.0888
 5387TIP3   OH240355   3.776   2.185  11.043 -0.2190 -0.6897 -0.4620
 5387TIP3    H140356   3.774   2.105  11.095 -1.4847 -1.0258 -0.9840
 5387TIP3    H240357   3.688   2.221  11.051  0.1796  0.3720 -0.6764
 5388TIP3   OH240358   4.237   5.038  10.532  0.2548 -0.3398  0.3069
 5388TIP3    H140359   4.261   4.945  10.533  0.4710 -0.3197 -1.0908
 5388TIP3    H240360   4.320   5.085  10.540  0.0383 -0.2313  2.3952
 5389TIP3   OH240361   5.123   1.645  10.439  0.0171 -0.3897 -0.2413
 5389TIP3    H140362   5.164   1.577  10.491 -0.6889 -0.6103  0.0348
 5389TIP3    H240363   5.196   1.700  10.409  0.5265 -0.9016  0.0503
 5390TIP3   OH240364   2.540   3.986   8.757 -0.4820 -0.6765  0.2778
 5390TIP3    H140365   2.579   3.954   8.675 -2.4619  1.6697 -1.7509
 5390TIP3    H240366   2.605   4.047   8.792 -0.5731  0.0955 -0.8525
 5391TIP3   OH240367   6.034   5.917   2.799 -0.0568  0.1130  0.0176
 5391TIP3    H140368   6.015   5.875   2.883  2.8732  0.5471  0.9925
 5391TIP3    H240369   6.120   5.884   2.773  0.3576  2.0849 -1.4246
 5392TIP3   OH240370   4.262   3.671   2.602 -0.0558  0.0700 -0.3608
 5392TIP3    H140371   4.176   3.711   2.618 -0.4100 -0.6802 -0.3341
 5392TIP3    H240372   4.250   3.622   2.520 -0.1973 -1.4995  0.5589
 5393TIP3   OH240373   4.924   0.087   1.221 -0.0578 -0.1746  0.0999
 5393TIP3    H140374   4.942   0.081   1.315  0.0580 -1.3983  0.0091
 5393TIP3    H240375   4.841   0.135   1.216 -0.3999 -0.6720  0.8606
 5394TIP3   OH240376   2.690   0.992   1.940 -0.4057 -0.2323 -0.3684
 5394TIP3    H140377   2.760   1.013   2.001 -0.5300  0.9887 -0.6140
 5394TIP3    H240378   2.735   0.953   1.864 -0.4266 -3.8508  1.2757
 5395TIP3   OH240379   2.387   5.437   2.642 -0.0757  0.0721  0.2829
 5395TIP3    H140380   2.402   5.399   2.728 -0.4580 -0.1627  0.2522
 5395TIP3    H240381   2.292   5.427   2.629  0.0884 -0.5859 -0.4816
 5396TIP3   OH240382   6.329   6.532   1.498  0.0969  0.5248 -0.2254
 5396TIP3    H140383   6.392   6.567   1.435  0.2520  0.4510 -0.1130
 5396TIP3    H240384   6.255   6.593   1.495  1.3168  2.2375  1.6718
 5397TIP3   OH240385   2.170   2.835   1.187 -0.1980  0.4326  0.1382
 5397TIP3    H140386   2.245   2.791   1.147  1.2562  1.6064  1.4352
 5397TIP3    H240387   2.198   2.853   1.277 -2.5606 -0.2782  1.0913
 5398TIP3   OH240388   3.431   2.926   1.157 -0.3042 -0.0066  0.5113
 5398TIP3    H140389   3.377   2.870   1.212 -1.2690  0.9450  0.5733
 5398TIP3    H240390   3.376   2.948   1.082  1.1664 -1.6860 -1.1548
 5399TIP3   OH240391   4.341   0.684   2.182  0.4191 -0.3870  0.3423
 5399TIP3    H140392   4.375   0.631   2.110  1.5660  0.8761 -0.0969
 5399TIP3    H240393   4.419   0.728   2.217 -0.0890 -1.0546  2.4529
 5400TIP3   OH240394   6.554   5.489   2.406 -0.0901  0.5281 -0.0692
 5400TIP3    H140395   6.585   5.579   2.417  1.5198 -0.1454  1.3455
 5400TIP3    H240396   6.547   5.455   2.495 -1.4701 -0.5220 -0.5456
 5401TIP3   OH240397   5.038   4.131   0.901 -0.4593  0.6420 -0.1881
 5401TIP3    H140398   4.982   4.100   0.973  2.0693 -0.7476  1.3209
 5401TIP3    H240399   5.027   4.065   0.833  1.4236 -1.3216  1.2525
 5402TIP3   OH240400   6.351   5.036   2.510  0.1351 -0.5328 -0.2953
 5402TIP3    H140401   6.297   4.964   2.545 -1.6124  0.6185 -0.4712
 5402TIP3    H240402   6.289   5.108   2.498  1.4744  0.4344 -1.8531
 5403TIP3   OH240403   6.318   1.207   2.258  0.7232 -0.2836  0.7128
 5403TIP3    H140404   6.267   1.235   2.182 -0.6013  0.3291  1.7993
 5403TIP3    H240405   6.343   1.117   2.239  0.2256 -0.2047 -0.3469
 5404TIP3   OH240406   4.891   2.042   3.663  0.1067  0.2662 -0.2714
 5404TIP3    H140407   4.909   1.987   3.739  1.2863  0.8171 -0.1205
 5404TIP3    H240408   4.975   2.086   3.646 -0.5262  1.2024 -1.0332
 5405TIP3   OH240409   2.097   6.358   2.072 -0.5633  0.0337 -0.5183
 5405TIP3    H140410   2.077   6.379   2.163 -0.8462  0.5022 -0.6876
 5405TIP3    H240411   2.158   6.426   2.044  0.1548 -0.5661 -0.4394
 5406TIP3   OH240412   0.786   6.601   1.361  0.7083  0.2754  0.4143
 5406TIP3    H140413   0.869   6.584   1.405  0.8590  2.3380  1.0434
 5406TIP3    H240414   0.757   6.685   1.397 -0.6141  0.6098 -1.2991
 5407TIP3   OH240415   1.406   2.777   1.191 -0.4553 -0.7535 -0.4806
 5407TIP3    H140416   1.434   2.771   1.099  1.3950  2.9846 -0.3690
 5407TIP3    H240417   1.310   2.780   1.186 -0.3977 -0.3468 -2.3560
 5408TIP3   OH240418   3.968   0.098   1.098 -0.0498  0.5752 -0.1008
 5408TIP3    H140419   3.918   0.017   1.092  0.1895  0.3582  0.7533
 5408TIP3    H240420   4.022   0.100   1.019 -1.1642  0.6541 -0.8807
 5409TIP3   OH240421   2.204   0.959   1.391  1.0817  0.3102  0.0549
 5409TIP3    H140422   2.169   1.020   1.456  2.0036  0.1058  0.7625
 5409TIP3    H240423   2.181   0.997   1.307 -0.7375  0.2308  0.4853
 5410TIP3   OH240424   2.151   3.115   1.036  0.3976 -0.1695 -0.0155
 5410TIP3    H140425   2.212   3.049   1.068  0.1656 -0.4912 -0.2184
 5410TIP3    H240426   2.126   3.165   1.114  1.3424  0.3310 -0.0192
 5411TIP3   OH240427   3.858   0.461   2.233  0.3496 -0.0965 -0.0806
 5411TIP3    H140428   3.774   0.498   2.207  1.0039  1.4962 -0.0750
 5411TIP3    H240429   3.895   0.425   2.153  0.2046  0.3284 -0.3389
 5412TIP3   OH240430   2.711   6.071   2.016  0.5099  0.4843 -0.2829
 5412TIP3    H140431   2.721   6.165   1.997 -1.6646  0.7748 -0.1888
 5412TIP3    H240432   2.649   6.040   1.950  0.0722 -0.5612  0.5906
 5413TIP3   OH240433   2.299   0.701   1.052 -0.1262 -0.3342  0.2247
 5413TIP3    H140434   2.261   0.627   1.005  0.8681 -0.4299 -0.4466
 5413TIP3    H240435   2.226   0.760   1.067 -0.9637 -1.4910  0.8681
 5414TIP3   OH240436   3.695   1.605   2.515 -0.3631  0.3321  0.1825
 5414TIP3    H140437   3.701   1.510   2.512 -1.8213  0.2530 -1.4037
 5414TIP3    H240438   3.720   1.634   2.427  0.4697  1.4721  0.7636
 5415TIP3   OH240439   4.801   1.576   0.713 -0.3405 -0.0851 -0.2281
 5415TIP3    H140440   4.863   1.569   0.785 -2.2315 -2.6598  1.3403
 5415TIP3    H240441   4.745   1.651   0.736 -0.5743 -0.5403  0.7166
 5416TIP3   OH240442   5.841   4.272   3.588 -0.4563 -0.4505  0.3365
 5416TIP3    H140443   5.752   4.257   3.619 -1.7772  2.6370 -1.3904
 5416TIP3    H240444   5.829   4.298   3.496  1.5668  4.3259  1.1011
 5417TIP3   OH240445   2.248   2.312   2.943 -0.3649  0.7588 -0.1532
 5417TIP3    H140446   2.237   2.220   2.918 -1.3938  1.0476 -0.7889
 5417TIP3    H240447   2.331   2.337   2.901 -0.4863  0.3472 -0.6628
 5418TIP3   OH240448   0.344   6.194   3.658 -0.1837  0.1850 -0.2630
 5418TIP3    H140449   0.286   6.239   3.596 -0.3809  1.4657  0.8007
 5418TIP3    H240450   0.355   6.107   3.621 -1.3067  0.5061 -1.4460
 5419TIP3   OH240451   5.037   0.797   2.965  0.0867  0.0848  0.1807
 5419TIP3    H140452   5.035   0.745   3.046 -0.8645 -2.7277 -1.5133
 5419TIP3    H240453   5.130   0.802   2.942  0.2928  0.2188  0.9977
 5420TIP3   OH240454   3.066   6.406   0.796 -0.2001 -0.1133 -0.4638
 5420TIP3    H140455   2.972   6.404   0.812 -0.6799  1.3331 -2.6683
 5420TIP3    H240456   3.092   6.495   0.819  0.4620 -0.2272 -0.7474
 5421TIP3   OH240457   1.117   6.035   1.184  0.3580 -0.1811  0.2398
 5421TIP3    H140458   1.203   5.997   1.203  0.8622  0.9848  0.3259
 5421TIP3    H240459   1.063   5.959   1.160  1.2110 -1.0135  0.8595
 5422TIP3   OH240460   6.386   2.655   1.050 -0.0022  0.0469  0.3047
 5422TIP3    H140461   6.389   2.589   0.981 -4.2400 -0.7185  0.5891
 5422TIP3    H240462   6.311   2.710   1.027 -0.2596  1.0703  3.1709
 5423TIP3   OH240463   5.911   0.635   3.387 -0.0810 -0.2113 -0.7268
 5423TIP3    H140464   5.981   0.700   3.379 -0.9621  0.5442 -3.4009
 5423TIP3    H240465   5.946   0.556   3.346 -0.2320 -0.3379 -0.6154
 5424TIP3   OH240466   3.751   0.880   2.044  0.3712  0.5587 -0.1641
 5424TIP3    H140467   3.722   0.847   2.129 -0.5144 -0.2625 -0.7638
 5424TIP3    H240468   3.690   0.841   1.981  0.0853  2.3402 -1.0425
 5425TIP3   OH240469   6.580   3.786   1.563  0.3839 -0.3645  0.2956
 5425TIP3    H140470   6.623   3.837   1.494  0.5289  1.4577  1.6653
 5425TIP3    H240471   6.487   3.787   1.540  0.3523  0.7657  0.4177
 5426TIP3   OH240472   2.691   3.053   2.725  0.0888 -0.0173 -0.8216
 5426TIP3    H140473   2.649   3.061   2.639 -0.8174  1.8120 -0.2458
 5426TIP3    H240474   2.784   3.040   2.704  0.0765  1.6022 -2.1134
 5427TIP3   OH240475   1.742   4.709   3.624  0.5401 -0.4401 -0.4625
 5427TIP3    H140476   1.824   4.668   3.597  0.1306 -2.4545  1.1321
 5427TIP3    H240477   1.730   4.681   3.715 -1.3196  0.8009 -0.2696
 5428TIP3   OH240478   5.307   6.375   0.801 -0.0089 -0.1078 -0.7021
 5428TIP3    H140479   5.336   6.447   0.856 -0.2401 -2.0503  2.1631
 5428TIP3    H240480   5.347   6.392   0.716  0.3748  3.0398 -0.0012
 5429TIP3   OH240481   6.269   5.217   1.802  0.1697 -0.6637 -0.2662
 5429TIP3    H140482   6.196   5.172   1.759 -0.0647  1.7996 -2.7073
 5429TIP3    H240483   6.331   5.236   1.731  0.6212  2.0274  0.7305
 5430TIP3   OH240484   3.582   2.736   1.465  0.2441 -0.3107  0.1508
 5430TIP3    H140485   3.563   2.828   1.487  0.6652  0.1551 -1.3121
 5430TIP3    H240486   3.674   2.725   1.488 -0.0252 -0.6163  1.0959
 5431TIP3   OH240487   2.433   5.280   0.491  0.0801  0.0365 -0.2360
 5431TIP3    H140488   2.342   5.309   0.492  0.3322  0.9796 -1.3940
 5431TIP3    H240489   2.428   5.185   0.482 -0.7964  0.1051 -0.5668
 5432TIP3   OH240490   1.672   1.653   0.943  0.3302 -0.2420  0.2499
 5432TIP3    H140491   1.742   1.607   0.990  2.0769  0.2748 -1.6804
 5432TIP3    H240492   1.652   1.596   0.869 -3.9649 -2.1498  2.5578
 5433TIP3   OH240493   2.079   6.296   2.638 -0.3490 -0.6123  0.1148
 5433TIP3    H140494   2.173   6.287   2.622 -0.3067 -0.1565  0.1056
 5433TIP3    H240495   2.055   6.217   2.686  0.3554  0.0134  1.5327
 5434TIP3   OH240496   5.870   2.028   3.261  0.1035  0.1981  0.2716
 5434TIP3    H140497   5.788   2.023   3.212  0.5558 -0.3366 -0.4563
 5434TIP3    H240498   5.904   1.938   3.260  1.2247  0.6069 -0.3902
 5435TIP3   OH240499   2.148   2.124   3.777 -0.3349 -0.1509 -1.0147
 5435TIP3    H140500   2.207   2.198   3.789  0.8004 -1.0932 -0.5004
 5435TIP3    H240501   2.198   2.061   3.725 -0.9112 -0.9413 -0.6466
 5436TIP3   OH240502   2.054   1.408   3.355  0.0021 -0.5301  0.0315
 5436TIP3    H140503   2.043   1.502   3.362 -2.1906 -0.7787  0.6012
 5436TIP3    H240504   2.135   1.389   3.402  0.6183  1.0764 -0.3355
 5437TIP3   OH240505   3.025   3.606   1.081  0.2752  0.1385 -0.1440
 5437TIP3    H140506   2.931   3.598   1.093  0.3758 -0.0104  0.6041
 5437TIP3    H240507   3.062   3.583   1.166  1.1132 -2.2373 -1.0742
 5438TIP3   OH240508   3.553   5.015   3.403 -0.1845  0.0780 -0.7284
 5438TIP3    H140509   3.597   5.072   3.467 -1.4767  1.2399 -0.8217
 5438TIP3    H240510   3.562   5.063   3.320  2.3530 -1.8722 -1.7147
 5439TIP3   OH240511   0.484   1.234   1.220 -0.2759 -0.2638 -0.1005
 5439TIP3    H140512   0.458   1.248   1.311 -1.6268 -2.1559 -0.1349
 5439TIP3    H240513   0.555   1.297   1.205 -0.5075  0.5823  2.0175
 5440TIP3   OH240514   5.742   1.847   1.802 -0.9935  0.0284  1.0810
 5440TIP3    H140515   5.706   1.778   1.858 -0.7256  0.6369  2.0384
 5440TIP3    H240516   5.693   1.840   1.720  0.2485 -2.4558  0.4648
 5441TIP3   OH240517   0.292   4.758   2.580 -0.4936 -0.3267 -0.2075
 5441TIP3    H140518   0.260   4.676   2.543 -0.3629 -1.0205  1.1510
 5441TIP3    H240519   0.289   4.745   2.675 -0.1949  1.1379  0.0365
 5442TIP3   OH240520   5.476   5.622   0.734  0.5088 -0.2069  0.0260
 5442TIP3    H140521   5.523   5.553   0.780  0.2028 -3.3094 -3.7214
 5442TIP3    H240522   5.386   5.591   0.729  0.2989  0.5491 -1.5619
 5443TIP3   OH240523   0.624   5.078   1.472 -0.3635 -0.0512  0.1090
 5443TIP3    H140524   0.703   5.067   1.419  0.0304 -1.1545  0.8899
 5443TIP3    H240525   0.552   5.058   1.413  0.1017 -1.9838  0.1275
 5444TIP3   OH240526   4.056   0.325   3.352  0.0435  0.3607 -0.2644
 5444TIP3    H140527   3.979   0.306   3.298  0.8982  0.1653 -1.4435
 5444TIP3    H240528   4.115   0.252   3.336 -0.5456 -0.9373  2.7121
 5445TIP3   OH240529   0.376   3.033   3.069 -0.0369 -0.0716 -0.1921
 5445TIP3    H140530   0.306   3.093   3.093 -0.4719 -1.0517  1.1092
 5445TIP3    H240531   0.376   3.033   2.973 -1.0814  0.7628 -0.2092
 5446TIP3   OH240532   4.646   5.921   0.903 -0.0380  0.0357  0.1366
 5446TIP3    H140533   4.634   5.928   0.998  1.6626  0.9480  0.3344
 5446TIP3    H240534   4.566   5.959   0.866 -0.0318  1.2044  1.2337
 5447TIP3   OH240535   3.689   2.594   1.723  0.9396  0.0091  0.0618
 5447TIP3    H140536   3.777   2.629   1.730  1.0152 -0.1958  0.1457
 5447TIP3    H240537   3.700   2.508   1.681  0.8161 -0.1468  0.3390
 5448TIP3   OH240538   2.955   6.517   1.507  0.5144 -0.3654  0.2015
 5448TIP3    H140539   3.012   6.594   1.505 -0.2847  0.2395 -0.4473
 5448TIP3    H240540   2.996   6.458   1.569  0.5513  1.0817  1.6436
 5449TIP3   OH240541   5.421   4.795   1.761 -0.1008  0.1898  0.0224
 5449TIP3    H140542   5.463   4.765   1.842  3.2586  2.2216 -0.7576
 5449TIP3    H240543   5.456   4.737   1.693 -0.1324  0.6845 -0.4170
 5450TIP3   OH240544   0.886   3.514   1.351 -0.3173 -0.4102 -0.3254
 5450TIP3    H140545   0.840   3.468   1.421  1.5533 -1.1606  0.4770
 5450TIP3    H240546   0.969   3.540   1.390  0.9728 -1.2143 -2.3570
 5451TIP3   OH240547   4.984   5.227   3.879  0.2581 -0.2877  0.5265
 5451TIP3    H140548   5.078   5.209   3.870  0.3922  0.2822  0.7434
 5451TIP3    H240549   4.962   5.198   3.967 -0.3596 -2.8737 -0.3901
 5452TIP3   OH240550   4.274   4.965   1.579 -0.4384  0.3961 -0.3386
 5452TIP3    H140551   4.227   4.885   1.555  0.5528 -0.5375  0.7550
 5452TIP3    H240552   4.263   4.973   1.673  0.3307  0.9842 -0.2864
 5453TIP3   OH240553   6.057   3.738   0.624 -0.2185  0.1089 -0.1032
 5453TIP3    H140554   6.135   3.694   0.658 -0.5958  0.6347  1.4832
 5453TIP3    H240555   6.007   3.763   0.701 -2.2202 -0.6299 -1.0731
 5454TIP3   OH240556   6.382   3.449   1.822  0.0981  0.4895  0.1976
 5454TIP3    H140557   6.437   3.470   1.746  0.5738 -0.3556  0.2960
 5454TIP3    H240558   6.356   3.358   1.808 -0.8205  0.7018  0.4432
 5455TIP3   OH240559   2.167   5.619   3.695 -0.4616 -0.3723 -0.4070
 5455TIP3    H140560   2.144   5.579   3.779  1.9369  1.1823  1.1313
 5455TIP3    H240561   2.114   5.699   3.691 -1.2437 -0.8997 -0.8502
 5456TIP3   OH240562   4.043   0.675   0.872 -0.6311  0.0803 -0.0577
 5456TIP3    H140563   4.136   0.661   0.888 -0.6152 -0.6357 -0.7404
 5456TIP3    H240564   4.005   0.684   0.959 -0.3708 -2.5529  0.4115
 5457TIP3   OH240565   2.824   3.754   2.005 -0.3594  0.3907  0.1159
 5457TIP3    H140566   2.749   3.813   1.994 -0.7861 -0.0838  0.4403
 5457TIP3    H240567   2.794   3.670   1.971 -0.1455  0.0677  0.7119
 5458TIP3   OH240568   1.248   3.566   4.295 -0.5595  0.1753  0.2634
 5458TIP3    H140569   1.174   3.541   4.239  0.0842 -1.4386  0.0693
 5458TIP3    H240570   1.226   3.654   4.326 -1.9950  0.2070 -0.7228
 5459TIP3   OH240571   5.833   5.197   3.116 -0.6675  0.3067  0.0205
 5459TIP3    H140572   5.860   5.139   3.045 -1.5790  0.8372 -0.7909
 5459TIP3    H240573   5.784   5.142   3.176 -2.2965  0.3617 -1.1889
 5460TIP3   OH240574   4.540   5.256   2.033  0.1445  0.6940  0.2788
 5460TIP3    H140575   4.515   5.348   2.039  0.4106  0.8876 -1.2332
 5460TIP3    H240576   4.568   5.244   1.942 -1.5679 -1.3179 -0.0510
 5461TIP3   OH240577   0.525   6.119   1.202  0.7463  0.0383 -0.3586
 5461TIP3    H140578   0.573   6.145   1.123  0.8930  0.0377 -0.2691
 5461TIP3    H240579   0.449   6.071   1.168  0.5308  0.4898 -0.5191
 5462TIP3   OH240580   4.337   5.300   3.088  0.7575 -0.3045 -0.2812
 5462TIP3    H140581   4.388   5.370   3.047  1.4347 -1.5724 -1.7356
 5462TIP3    H240582   4.403   5.242   3.126  0.3181 -0.9881 -0.5441
 5463TIP3   OH240583   5.658   6.529   1.994  1.0974 -0.2960 -0.0856
 5463TIP3    H140584   5.699   6.442   1.990 -1.1706 -1.4433 -0.1615
 5463TIP3    H240585   5.618   6.540   1.908 -1.9517 -1.0024  1.1055
 5464TIP3   OH240586   5.453   2.683   3.419 -0.1454  0.0557  0.3270
 5464TIP3    H140587   5.421   2.623   3.486  1.1144  0.5489  1.4138
 5464TIP3    H240588   5.380   2.743   3.404 -0.3961  0.0387  1.3761
 5465TIP3   OH240589   5.331   6.089   1.759  0.2951  0.1666 -0.0373
 5465TIP3    H140590   5.353   6.101   1.851  0.0416  0.2785  0.0087
 5465TIP3    H240591   5.282   6.006   1.757  0.0963  0.2849 -0.0387
 5466TIP3   OH240592   6.572   6.184   2.670 -0.5112  0.1597  0.1602
 5466TIP3    H140593   6.664   6.208   2.659 -0.3077 -0.1767  1.0420
 5466TIP3    H240594   6.527   6.227   2.598  0.5188 -0.7420 -1.0549
 5467TIP3   OH240595   3.083   0.851   3.608 -0.2195  0.3412  0.1053
 5467TIP3    H140596   3.034   0.806   3.677  1.3506 -1.4823  0.1133
 5467TIP3    H240597   3.116   0.930   3.649 -1.4947  0.6057  0.6569
 5468TIP3   OH240598   3.585   5.031   2.549 -1.1488 -0.2120  0.2262
 5468TIP3    H140599   3.648   4.974   2.506 -0.3143  1.9754 -1.6503
 5468TIP3    H240600   3.616   5.039   2.639  1.0536  0.4256 -0.5260
 5469TIP3   OH240601   1.760   6.358   2.766 -0.6440  0.2652  0.0117
 5469TIP3    H140602   1.834   6.386   2.820 -1.1560  0.4965  0.6042
 5469TIP3    H240603   1.686   6.353   2.827 -1.5051  1.6331 -0.8657
 5470TIP3   OH240604   5.571   2.541   1.880 -0.9330 -0.2332  0.3778
 5470TIP3    H140605   5.647   2.530   1.937 -1.1261 -1.0688  0.4880
 5470TIP3    H240606   5.515   2.466   1.900 -2.5221  1.1454  1.4398
 5471TIP3   OH240607   4.393   1.640   1.864 -0.2863 -0.0323 -0.3142
 5471TIP3    H140608   4.476   1.593   1.857 -1.2235 -1.8823  0.1562
 5471TIP3    H240609   4.327   1.570   1.871 -1.7432  1.3788  0.7163
 5472TIP3   OH240610   1.443   6.338   1.726  0.0506  0.2536 -0.5233
 5472TIP3    H140611   1.442   6.266   1.789  1.5007 -0.3006 -1.0884
 5472TIP3    H240612   1.356   6.336   1.686 -0.4233 -0.2515  0.4908
 5473TIP3   OH240613   3.486   2.675   1.016  0.4442  0.0965 -0.1426
 5473TIP3    H140614   3.511   2.623   1.093 -3.4576 -0.9257  0.6711
 5473TIP3    H240615   3.460   2.760   1.052  0.0790  0.1472 -0.5187
 5474TIP3   OH240616   0.531   0.932   1.560 -0.5888  0.5147  0.1469
 5474TIP3    H140617   0.441   0.965   1.555 -0.4643  0.7005 -1.8646
 5474TIP3    H240618   0.584   1.005   1.528 -0.0148 -0.5044 -1.3350
 5475TIP3   OH240619   4.520   3.751   2.137  0.1071 -0.3795  0.5923
 5475TIP3    H140620   4.451   3.761   2.202 -0.4573 -0.6931  0.0542
 5475TIP3    H240621   4.487   3.684   2.076  0.5902 -0.0487 -0.0518
 5476TIP3   OH240622   2.201   2.216   1.758 -0.3444  0.3337 -0.0693
 5476TIP3    H140623   2.165   2.270   1.828 -0.6290 -1.0981  0.9299
 5476TIP3    H240624   2.256   2.152   1.803 -1.8639 -1.7090 -0.9349
 5477TIP3   OH240625   5.016   3.157   2.711 -0.4376  0.4709 -0.0392
 5477TIP3    H140626   4.921   3.155   2.704 -0.4190  1.8005 -1.1799
 5477TIP3    H240627   5.036   3.244   2.744  0.3978  0.2913 -0.0416
 5478TIP3   OH240628   3.721   2.382   1.564 -0.1692  0.1229  0.4367
 5478TIP3    H140629   3.781   2.372   1.490  1.3058 -2.2552  1.8160
 5478TIP3    H240630   3.698   2.293   1.589 -0.5730  0.8081  2.8345
 5479TIP3   OH240631   2.375   2.192   2.204  0.1968  0.3781 -0.4013
 5479TIP3    H140632   2.302   2.203   2.265  1.0352  0.6556  0.5718
 5479TIP3    H240633   2.333   2.164   2.122 -1.0238  0.8325  0.0416
 5480TIP3   OH240634   5.787   2.097   1.870  0.1695  0.3175  0.4008
 5480TIP3    H140635   5.792   2.005   1.844 -0.2666 -0.2353  2.1562
 5480TIP3    H240636   5.732   2.097   1.948  0.6720  2.0075  0.7982
 5481TIP3   OH240637   4.751   3.213   3.636 -0.4501 -0.1530  0.2321
 5481TIP3    H140638   4.816   3.158   3.680  0.4596 -1.4994 -2.5612
 5481TIP3    H240639   4.801   3.257   3.567 -2.4282 -0.9386 -1.7797
 5482TIP3   OH240640   2.141   2.251   0.970  0.3307 -0.0307 -0.1434
 5482TIP3    H140641   2.216   2.232   0.914 -0.0884  1.3661 -1.2436
 5482TIP3    H240642   2.117   2.341   0.947 -1.2372 -0.2098  0.7039
 5483TIP3   OH240643   1.854   2.359   2.286  0.3129  0.0165 -0.2629
 5483TIP3    H140644   1.862   2.298   2.213 -1.1098 -0.2793 -0.2030
 5483TIP3    H240645   1.905   2.435   2.259  0.3729 -0.3645 -1.2738
 5484TIP3   OH240646   1.111   1.322   1.499 -0.1406  0.4309  0.8921
 5484TIP3    H140647   1.168   1.383   1.545  0.5452  0.6017 -0.1494
 5484TIP3    H240648   1.126   1.238   1.541  0.5626  0.5622  0.9164
 5485TIP3   OH240649   4.858   6.346   2.361 -0.7175 -0.6558  0.7474
 5485TIP3    H140650   4.887   6.397   2.285 -1.7675 -0.7469  0.2670
 5485TIP3    H240651   4.918   6.271   2.363 -0.2016 -0.2604  0.4698
 5486TIP3   OH240652   0.618   5.773   4.289 -0.4330  0.2776  0.3871
 5486TIP3    H140653   0.535   5.762   4.243  0.0473  0.4198 -0.5236
 5486TIP3    H240654   0.681   5.725   4.236  0.3269  1.3073  0.3398
 5487TIP3   OH240655   5.060   1.661   3.800  0.1810  0.1335  0.0026
 5487TIP3    H140656   4.996   1.723   3.836  1.0253  0.8611  0.3048
 5487TIP3    H240657   5.081   1.695   3.713 -1.1838 -1.1246 -0.8574
 5488TIP3   OH240658   4.653   0.727   1.957  0.1004 -0.0866 -0.7166
 5488TIP3    H140659   4.688   0.647   1.997 -0.2296 -0.2711 -0.7961
 5488TIP3    H240660   4.652   0.707   1.863 -0.1683 -0.0625 -0.7193
 5489TIP3   OH240661   2.351   1.276   0.419  0.1761 -0.1818  0.3215
 5489TIP3    H140662   2.279   1.259   0.480 -0.8544 -0.4315 -0.9353
 5489TIP3    H240663   2.313   1.330   0.350  1.4784  0.6008  0.1801
 5490TIP3   OH240664   2.844   1.724   3.206 -0.1156 -0.2797 -0.2543
 5490TIP3    H140665   2.932   1.761   3.201  0.1077 -0.5427  1.1664
 5490TIP3    H240666   2.812   1.723   3.116  0.3846  2.0931 -0.5037
 5491TIP3   OH240667   4.070   4.460   2.909 -0.3239 -0.4990  0.2256
 5491TIP3    H140668   4.053   4.383   2.964 -1.0371  0.1364  0.9209
 5491TIP3    H240669   3.983   4.497   2.894  0.1398  1.0870  1.2587
 5492TIP3   OH240670   4.231   0.264   2.011  0.7394 -0.4688  0.5397
 5492TIP3    H140671   4.160   0.204   1.987  0.2195 -0.0830  1.0677
 5492TIP3    H240672   4.188   0.333   2.062  1.6523 -0.7649  1.7499
 5493TIP3   OH240673   3.945   4.966   2.395  0.4808  0.4414 -0.4765
 5493TIP3    H140674   3.931   5.053   2.432  2.3300 -0.1679  1.9133
 5493TIP3    H240675   4.010   4.978   2.327  2.0234  0.7900  0.9837
 5494TIP3   OH240676   6.303   3.318   0.638 -0.2445  0.3019 -0.1045
 5494TIP3    H140677   6.244   3.356   0.573 -2.9274 -2.7473  0.2961
 5494TIP3    H240678   6.270   3.348   0.722 -2.1135 -2.2412  0.1893
 5495TIP3   OH240679   0.545   6.181   3.843 -0.1375 -0.5006  0.1398
 5495TIP3    H140680   0.597   6.122   3.788 -0.7780 -0.4941 -0.4968
 5495TIP3    H240681   0.466   6.198   3.791 -0.9621 -0.8350  1.2546
 5496TIP3   OH240682   2.874   6.111   1.512 -0.5633 -0.4198 -0.0328
 5496TIP3    H140683   2.793   6.073   1.546  0.2573 -5.1711 -2.5460
 5496TIP3    H240684   2.943   6.072   1.566  0.2386  0.9902  0.0070
 5497TIP3   OH240685   5.410   1.166   2.733  0.6703  0.2006  0.2351
 5497TIP3    H140686   5.464   1.240   2.761  1.1721  0.1755 -0.6145
 5497TIP3    H240687   5.372   1.132   2.814 -0.0908  1.7737  0.5835
 5498TIP3   OH240688   1.782   1.316   1.605  0.3369 -0.5575 -0.4198
 5498TIP3    H140689   1.779   1.341   1.698 -2.2067 -0.4406 -0.4529
 5498TIP3    H240690   1.693   1.287   1.586  0.9124 -0.9595 -2.7451
 5499TIP3   OH240691   4.058   0.925   1.354 -0.0344 -0.1232  0.5646
 5499TIP3    H140692   4.039   0.837   1.385  0.2378  0.4991  2.6008
 5499TIP3    H240693   4.143   0.946   1.393  1.4244 -0.0507 -2.3427
 5500TIP3   OH240694   3.015   1.090   1.681 -0.5111  0.2563  0.2987
 5500TIP3    H140695   2.993   1.183   1.685  1.5534  0.8841 -1.0958
 5500TIP3    H240696   3.107   1.087   1.708 -0.2198 -1.2069 -0.7630
 5501TIP3   OH240697   4.924   6.444   2.665 -0.3620 -0.2719  0.3845
 5501TIP3    H140698   4.978   6.491   2.602 -0.7656 -0.8422 -0.4044
 5501TIP3    H240699   4.858   6.508   2.692  0.6366  0.4117  1.3085
 5502TIP3   OH240700   1.467   1.332   0.824 -0.2724  0.1594  0.1588
 5502TIP3    H140701   1.404   1.395   0.859 -1.3146 -0.4713 -0.5431
 5502TIP3    H240702   1.514   1.381   0.756  1.0555  1.0779  1.6839
 5503TIP3   OH240703   2.455   5.396   3.771  0.2183 -0.6860 -0.6179
 5503TIP3    H140704   2.361   5.411   3.775  0.3181 -0.3029  0.5291
 5503TIP3    H240705   2.494   5.482   3.788  0.7771 -0.9450 -0.5598
 5504TIP3   OH240706   3.335   5.534   0.862  0.1735  0.2889  0.2069
 5504TIP3    H140707   3.353   5.627   0.874 -1.7997  0.6111  0.9813
 5504TIP3    H240708   3.322   5.524   0.768  2.1437  0.4178 -0.1149
 5505TIP3   OH240709   0.752   6.163   1.329 -0.4800  0.0482  0.0137
 5505TIP3    H140710   0.746   6.215   1.409 -0.0587 -3.1006  2.3057
 5505TIP3    H240711   0.661   6.142   1.307 -0.5422 -1.2124  1.3045
 5506TIP3   OH240712   5.139   6.099   4.492 -0.2885 -0.2003  0.0923
 5506TIP3    H140713   5.126   6.186   4.455 -1.1275 -0.5377 -0.4424
 5506TIP3    H240714   5.229   6.076   4.471  0.1663  0.8267  0.8645
 5507TIP3   OH240715   3.618   4.114   1.036  0.2072  0.0730 -0.1458
 5507TIP3    H140716   3.624   4.028   1.076 -0.3376  0.0318 -0.1463
 5507TIP3    H240717   3.692   4.118   0.975  1.0317  0.1262  0.8342
 5508TIP3   OH240718   0.206   1.737   2.914 -0.1367  0.3712 -0.1243
 5508TIP3    H140719   0.195   1.807   2.850 -1.3436 -0.7454 -1.2043
 5508TIP3    H240720   0.295   1.704   2.900  0.0427  0.9570 -0.3574
 5509TIP3   OH240721   4.172   1.420   1.692  0.3265 -0.6218 -0.1283
 5509TIP3    H140722   4.129   1.422   1.777  0.1741 -0.7869 -0.2016
 5509TIP3    H240723   4.263   1.399   1.711  1.1778  2.8228  0.3679
 5510TIP3   OH240724   1.958   1.752   3.452  0.2827  0.2190 -0.1760
 5510TIP3    H140725   1.872   1.764   3.491  1.6541  0.4089  3.1193
 5510TIP3    H240726   1.948   1.780   3.361 -3.4969 -1.4676 -0.4182
 5511TIP3   OH240727   5.103   4.733   0.992  0.7883 -0.0567  0.1771
 5511TIP3    H140728   5.179   4.712   1.046  3.2944  0.1328 -3.0488
 5511TIP3    H240729   5.046   4.656   1.001  2.9180 -1.7263  0.1293
 5512TIP3   OH240730   2.843   3.073   0.897 -0.0527  0.1838  0.4141
 5512TIP3    H140731   2.753   3.082   0.866 -0.2163  0.4725  0.9656
 5512TIP3    H240732   2.879   3.162   0.891  0.6533 -0.1603 -1.1499
 5513TIP3   OH240733   1.711   1.899   2.701  0.5990 -0.0150 -0.3298
 5513TIP3    H140734   1.654   1.870   2.772 -0.3806  1.1267 -0.6073
 5513TIP3    H240735   1.799   1.873   2.727  0.0539 -1.0340  0.5324
 5514TIP3   OH240736   2.918   1.411   2.508  0.8114  0.0730  0.5429
 5514TIP3    H140737   2.916   1.462   2.590 -0.2267  0.4168  0.3217
 5514TIP3    H240738   2.830   1.375   2.501  0.9217 -0.0275 -0.3889
 5515TIP3   OH240739   4.606   4.062   1.343 -0.0720 -0.6532  0.6184
 5515TIP3    H140740   4.580   3.981   1.299 -0.1138  0.1314 -0.8643
 5515TIP3    H240741   4.549   4.129   1.305  1.3322  0.4037  0.3062
 5516TIP3   OH240742   6.189   1.232   1.963  0.4059  0.0672 -0.1287
 5516TIP3    H140743   6.255   1.162   1.955  1.1332  0.6834  0.4157
 5516TIP3    H240744   6.115   1.201   1.910  1.6762  0.0120 -1.9514
 5517TIP3   OH240745   2.535   4.296  10.790 -0.2963  0.1324  0.4373
 5517TIP3    H140746   2.553   4.311  10.698  0.5870  1.3442  0.7894
 5517TIP3    H240747   2.461   4.354  10.810 -1.6537 -1.3895  0.1214
 5518TIP3   OH240748   3.831   6.479   1.981 -0.2973 -0.5464  0.4674
 5518TIP3    H140749   3.739   6.503   1.968 -0.4186 -1.4973 -0.6386
 5518TIP3    H240750   3.841   6.397   1.932  1.1094 -0.5234  0.6781
 5519TIP3   OH240751   3.889   2.298   1.298 -0.6169 -0.7136  0.2513
 5519TIP3    H140752   3.881   2.393   1.299  1.1128 -0.5383  0.3075
 5519TIP3    H240753   3.841   2.271   1.219 -0.9971  0.2022  0.1498
 5520TIP3   OH240754   2.223   0.140   3.370  0.2712 -0.0636 -0.5624
 5520TIP3    H140755   2.303   0.112   3.414  0.7389  2.6364  0.4403
 5520TIP3    H240756   2.230   0.101   3.282  2.0440 -0.9042 -0.1073
 5521TIP3   OH240757   3.466   1.711   1.847 -0.6587 -0.2045 -0.6046
 5521TIP3    H140758   3.517   1.631   1.839 -0.1357  0.0697 -0.0603
 5521TIP3    H240759   3.501   1.769   1.779  0.1538  0.1872  0.1280
 5522TIP3   OH240760   6.455   4.857   3.028 -0.1796 -0.6053 -1.2553
 5522TIP3    H140761   6.495   4.776   2.995  0.2583 -0.9243  0.0171
 5522TIP3    H240762   6.513   4.885   3.098 -1.2683 -0.1195 -0.5334
 5523TIP3   OH240763   4.715   4.803   0.881 -0.8221  0.3038 -0.4426
 5523TIP3    H140764   4.779   4.747   0.925 -0.9076  0.4509 -0.1223
 5523TIP3    H240765   4.636   4.750   0.876 -0.9328  0.4202 -0.0506
 5524TIP3   OH240766   1.628   3.547   1.882 -0.0614  0.0058 -0.0770
 5524TIP3    H140767   1.652   3.507   1.965 -0.7007  1.7242  0.9881
 5524TIP3    H240768   1.701   3.528   1.823 -0.6058 -3.2520  0.0982
 5525TIP3   OH240769   1.750   2.455   1.478 -0.1717 -0.1955  0.3502
 5525TIP3    H140770   1.723   2.480   1.390 -0.8082 -1.8830  0.0373
 5525TIP3    H240771   1.718   2.527   1.534 -0.7373  0.3591 -0.6556
 5526TIP3   OH240772   4.991   4.402   3.378  0.0300 -0.1848 -0.2051
 5526TIP3    H140773   4.958   4.317   3.348  0.4773 -0.3002 -0.3811
 5526TIP3    H240774   5.069   4.417   3.324 -1.2689  1.3740 -1.7445
 5527TIP3   OH240775   1.004   4.053   2.148 -0.8177  0.2431 -0.3052
 5527TIP3    H140776   1.083   4.000   2.163  0.9355  2.8816  0.5816
 5527TIP3    H240777   0.950   4.037   2.225 -0.5126 -0.5831 -0.2573
 5528TIP3   OH240778   4.433   1.633   2.481 -0.2206 -0.2298 -0.4675
 5528TIP3    H140779   4.404   1.542   2.485 -0.2996 -0.1679  1.8320
 5528TIP3    H240780   4.366   1.682   2.528  0.5072  0.8141 -0.4776
 5529TIP3   OH240781   4.824   3.402  11.120 -0.1579  0.2512  0.5526
 5529TIP3    H140782   4.747   3.347  11.134 -0.0063 -0.2137 -0.3534
 5529TIP3    H240783   4.788   3.486  11.088 -0.2775 -0.2141 -0.6043
 5530TIP3   OH240784   4.640   4.289   0.997 -0.3722  0.5317 -0.2802
 5530TIP3    H140785   4.723   4.292   0.949 -0.2238 -0.1841 -0.0897
 5530TIP3    H240786   4.650   4.353   1.067 -0.7922  1.9806 -1.5050
 5531TIP3   OH240787   3.569   4.650   3.062  0.6741 -0.4055  0.5289
 5531TIP3    H140788   3.615   4.709   3.001 -0.3057  0.0229  0.1746
 5531TIP3    H240789   3.580   4.692   3.148  1.0430 -0.3748  0.4700
 5532TIP3   OH240790   2.623   2.607   2.911  0.1062 -0.0957  0.3439
 5532TIP3    H140791   2.578   2.658   2.843  0.0164 -1.0435 -0.3280
 5532TIP3    H240792   2.713   2.601   2.880  0.1215 -0.3170  0.4274
 5533TIP3   OH240793   2.693   3.511   2.941  0.7385 -0.3443  0.3701
 5533TIP3    H140794   2.690   3.536   2.849  1.8163 -0.4133  0.3099
 5533TIP3    H240795   2.669   3.591   2.988  1.3164  0.0128  0.0681
 5534TIP3   OH240796   3.758   3.118   0.684  0.4705  0.0041  0.0395
 5534TIP3    H140797   3.740   3.193   0.741  1.5582  0.3004  0.0141
 5534TIP3    H240798   3.674   3.073   0.676  0.0388  0.6325  0.9080
 5535TIP3   OH240799   3.244   0.153   2.495  0.3443  0.4308 -0.3043
 5535TIP3    H140800   3.301   0.076   2.494 -0.3101 -0.0546 -0.8982
 5535TIP3    H240801   3.304   0.226   2.513  1.1006 -0.1108 -0.5507
 5536TIP3   OH240802   5.044   1.353   1.747  0.9012 -0.1514  0.0952
 5536TIP3    H140803   5.094   1.427   1.781  0.1648  0.4830 -0.1497
 5536TIP3    H240804   4.978   1.336   1.814  1.6256 -1.1879  0.5611
 5537TIP3   OH240805   4.479   2.055   3.434 -0.0554 -0.0990 -0.0228
 5537TIP3    H140806   4.469   2.148   3.417 -5.0167 -0.3576 -0.1071
 5537TIP3    H240807   4.478   2.047   3.529  0.3875 -0.0672 -0.0152
 5538TIP3   OH240808   1.999   4.283   1.424  0.2911 -0.1756 -0.5536
 5538TIP3    H140809   1.989   4.208   1.482 -2.1525  0.4386 -0.0584
 5538TIP3    H240810   1.915   4.290   1.379  0.7254  1.7655 -1.1735
 5539TIP3   OH240811   1.216   1.640   3.630  0.1428  0.0755 -0.0923
 5539TIP3    H140812   1.292   1.594   3.666 -0.9557 -0.8218  1.2129
 5539TIP3    H240813   1.189   1.587   3.555  0.9967  0.5975 -0.7844
 5540TIP3   OH240814   3.637   0.968   0.621 -0.3279  0.4545 -0.4435
 5540TIP3    H140815   3.549   0.933   0.634 -0.5593  1.0865 -0.2491
 5540TIP3    H240816   3.695   0.892   0.626 -0.7303  0.2038  0.8671
 5541TIP3   OH240817   2.523   2.987   2.533 -0.7242 -0.2251  0.1682
 5541TIP3    H140818   2.537   2.981   2.438 -0.4279  0.4911  0.1596
 5541TIP3    H240819   2.450   3.048   2.542  0.5633  1.3484  0.4596
 5542TIP3   OH240820   5.840   6.130   1.753 -0.0988 -0.2632  0.4898
 5542TIP3    H140821   5.829   6.167   1.665  0.1754  0.1507  0.6271
 5542TIP3    H240822   5.803   6.042   1.747 -0.3903 -0.1112  0.0511
 5543TIP3   OH240823   3.733   4.186   2.624 -0.1013 -0.1857  0.6533
 5543TIP3    H140824   3.711   4.269   2.583 -0.3640 -0.5084  0.1262
 5543TIP3    H240825   3.650   4.139   2.629  0.1118 -0.5785  0.5682
 5544TIP3   OH240826   4.295   5.783   1.515 -0.7502  0.5923  0.0317
 5544TIP3    H140827   4.347   5.791   1.595 -2.1726  0.0892  1.0644
 5544TIP3    H240828   4.322   5.699   1.477  0.3797  1.1286 -0.3655
 5545TIP3   OH240829   6.058   2.856   4.216 -0.1452  0.6500  0.0926
 5545TIP3    H140830   5.973   2.813   4.205  0.3812 -0.7073  1.0621
 5545TIP3    H240831   6.042   2.923   4.282 -1.1414  2.5465 -1.9402
 5546TIP3   OH240832   3.413   0.834   3.701 -0.2557  0.4076 -0.4776
 5546TIP3    H140833   3.468   0.877   3.768 -0.5998 -0.1311  0.1611
 5546TIP3    H240834   3.362   0.770   3.750 -0.9039  0.3721 -1.1857
 5547TIP3   OH240835   5.818   4.438   3.861  0.3321  0.0739 -0.1991
 5547TIP3    H140836   5.816   4.350   3.824  0.5361  1.7630 -4.9414
 5547TIP3    H240837   5.904   4.444   3.904 -0.0774 -2.2044  1.1241
 5548TIP3   OH240838   3.784   0.295   0.801 -0.1973 -0.8418  0.5155
 5548TIP3    H140839   3.792   0.228   0.734 -0.0939  2.2224 -2.8686
 5548TIP3    H240840   3.874   0.311   0.830  0.5492  1.0004 -2.3347
 5549TIP3   OH240841   2.133   1.306   0.594 -0.1183  0.2401 -0.2643
 5549TIP3    H140842   2.099   1.269   0.676 -0.8727  0.3274 -0.5373
 5549TIP3    H240843   2.066   1.366   0.564  0.0595  0.0546 -1.0617
 5550TIP3   OH240844   2.918   4.938   2.557  0.2664 -0.2396  0.1658
 5550TIP3    H140845   2.851   4.995   2.519 -2.3172 -2.7355  0.6045
 5550TIP3    H240846   2.966   4.994   2.617 -1.5172  1.6669 -0.0649
 5551TIP3   OH240847   1.574   1.230   1.102 -0.7052 -0.2195 -0.5462
 5551TIP3    H140848   1.602   1.145   1.068 -0.7765 -0.2008 -0.6531
 5551TIP3    H240849   1.522   1.268   1.031  0.2020  0.3655 -0.9031
 5552TIP3   OH240850   5.940   6.352   0.806  0.2875  0.3220  0.0570
 5552TIP3    H140851   5.975   6.406   0.735 -1.1280 -1.2775 -1.9877
 5552TIP3    H240852   5.847   6.372   0.807  0.4295  1.1286  2.2983
 5553TIP3   OH240853   1.007   1.518   2.399  0.3359 -0.3166 -0.3566
 5553TIP3    H140854   0.995   1.584   2.467  1.4656 -0.7075  0.2439
 5553TIP3    H240855   0.934   1.533   2.338  0.7779  1.7440 -0.4577
 5554TIP3   OH240856   2.882   0.884   3.060  0.4189 -0.0828  0.2801
 5554TIP3    H140857   2.910   0.836   2.982 -1.7336  0.1490 -0.7353
 5554TIP3    H240858   2.926   0.969   3.052  1.7336 -0.7297  0.3793
 5555TIP3   OH240859   3.135   4.551   3.064  0.6591  0.0317  0.1803
 5555TIP3    H140860   3.126   4.642   3.038  1.1375 -0.0547 -0.2927
 5555TIP3    H240861   3.114   4.501   2.986 -0.9322 -0.3150  0.7867
 5556TIP3   OH240862   5.206   0.472   1.129  0.0965 -0.0698 -0.1734
 5556TIP3    H140863   5.293   0.435   1.112 -0.2448 -1.5283  0.9525
 5556TIP3    H240864   5.220   0.536   1.198  0.1423 -1.3162  1.0335
 5557TIP3   OH240865   3.580   3.464   3.270 -0.6282  0.0324 -0.2860
 5557TIP3    H140866   3.637   3.457   3.346 -2.2032  2.5715  1.2929
 5557TIP3    H240867   3.493   3.442   3.303 -1.1210 -0.4878 -1.8157
 5558TIP3   OH240868   5.870   5.167   2.429  1.2314  0.3480 -0.3486
 5558TIP3    H140869   5.777   5.187   2.441  1.1975  1.3511 -1.9307
 5558TIP3    H240870   5.879   5.075   2.454 -0.1223  0.3176  0.0948
 5559TIP3   OH240871   1.138   4.894   0.824  0.7002  0.3524 -0.1987
 5559TIP3    H140872   1.143   4.799   0.809  0.2744  0.3661 -0.4498
 5559TIP3    H240873   1.227   4.919   0.848  0.5746 -0.3003  1.0374
 5560TIP3   OH240874   0.485   5.246   1.134  0.0112  0.0759 -0.4019
 5560TIP3    H140875   0.512   5.156   1.152  2.1016  0.3752 -1.6947
 5560TIP3    H240876   0.411   5.261   1.192 -0.0002 -2.2692  0.2836
 5561TIP3   OH240877   2.908   5.684   3.324 -0.1781  0.0110  0.3512
 5561TIP3    H140878   2.837   5.636   3.281 -2.3972  2.6666  0.7562
 5561TIP3    H240879   2.880   5.693   3.415  0.6967  1.0680  0.5430
 5562TIP3   OH240880   4.274   0.369   1.773  0.1151 -0.2575  0.1320
 5562TIP3    H140881   4.180   0.377   1.754 -0.1495  0.6825  1.5782
 5562TIP3    H240882   4.277   0.321   1.856  0.8913 -0.0667  0.2208
 5563TIP3   OH240883   2.529   0.121   3.387 -0.7542 -0.0431 -0.2510
 5563TIP3    H140884   2.517   0.216   3.378 -3.7418 -0.2812  0.0897
 5563TIP3    H240885   2.573   0.094   3.307 -1.2604  1.4461 -1.0731
 5564TIP3   OH240886   5.721   2.874   1.020 -0.3076  0.0979 -0.2445
 5564TIP3    H140887   5.636   2.832   1.028 -0.3096  0.3531  1.4925
 5564TIP3    H240888   5.751   2.884   1.111  1.0105  1.1399 -0.7675
 5565TIP3   OH240889   4.693   1.602   2.754  0.1347  0.3401  0.7263
 5565TIP3    H140890   4.607   1.642   2.742  0.2682  0.4642  0.0943
 5565TIP3    H240891   4.750   1.675   2.777  0.1916  0.3666  0.5089
 5566TIP3   OH240892   4.323   0.728   0.887 -0.8852  0.4425  0.2263
 5566TIP3    H140893   4.308   0.822   0.894  0.7677  0.7167  0.4462
 5566TIP3    H240894   4.322   0.696   0.977  0.1230  0.5364  0.2838
 5567TIP3   OH240895   4.171   1.097   2.912  0.3232  0.1916  0.1360
 5567TIP3    H140896   4.169   1.047   2.993  1.7433 -1.1397 -0.5819
 5567TIP3    H240897   4.252   1.069   2.869  0.8041  2.5972 -0.6687
 5568TIP3   OH240898   1.955   4.503   0.623 -0.0310 -0.0558  0.2407
 5568TIP3    H140899   2.001   4.467   0.547 -1.9558  1.0852 -1.5780
 5568TIP3    H240900   1.918   4.427   0.666  0.1766 -0.6564 -0.6072
 5569TIP3   OH240901   3.283   6.260   2.455  1.3931  0.0315  0.0580
 5569TIP3    H140902   3.310   6.182   2.407  1.6583  0.2696 -0.1881
 5569TIP3    H240903   3.216   6.300   2.400  0.3033 -0.7170  0.8096
 5570TIP3   OH240904   1.872   1.105   3.724  0.4086  0.2517 -0.0136
 5570TIP3    H140905   1.858   1.036   3.789 -0.1571  0.7716  0.4295
 5570TIP3    H240906   1.815   1.082   3.651  0.6515 -0.0558 -0.1049
 5571TIP3   OH240907   5.524   3.493   1.049  0.0090  0.2747  0.1667
 5571TIP3    H140908   5.508   3.402   1.025 -0.6242  0.5907 -0.6426
 5571TIP3    H240909   5.609   3.514   1.009 -0.6194  0.5282 -1.0746
 5572TIP3   OH240910   3.578   5.939   2.108 -0.0243 -0.5262  0.1565
 5572TIP3    H140911   3.629   5.961   2.186 -1.5225 -0.2050  1.0745
 5572TIP3    H240912   3.632   5.971   2.035  1.2377 -0.5217  1.0574
 5573TIP3   OH240913   2.451   2.649   3.142 -0.0448 -0.3603  0.0789
 5573TIP3    H140914   2.513   2.662   3.214  0.3740 -0.5850 -0.2315
 5573TIP3    H240915   2.506   2.620   3.068 -0.4976 -0.3849 -0.2551
 5574TIP3   OH240916   4.599   2.407   3.968  0.1050 -0.4730 -0.2417
 5574TIP3    H140917   4.597   2.313   3.984  0.4153 -0.6285 -1.0577
 5574TIP3    H240918   4.560   2.446   4.046  1.6851 -1.1543  0.9181
 5575TIP3   OH240919   4.024   5.408   2.600 -0.0955  0.4897  0.0267
 5575TIP3    H140920   3.984   5.494   2.597  0.8039  0.9340  0.2855
 5575TIP3    H240921   4.097   5.412   2.538  0.0974 -0.0056  0.2108
 5576TIP3   OH240922   5.658   5.823   2.896 -0.0526  0.1555 -0.3434
 5576TIP3    H140923   5.611   5.742   2.918 -0.5872  0.9866  1.8481
 5576TIP3    H240924   5.750   5.797   2.893 -0.3703 -0.9493 -1.9530
 5577TIP3   OH240925   4.904   0.065   1.806 -0.8796 -0.3209  0.1635
 5577TIP3    H140926   4.916   0.074   1.900 -0.0040 -0.8951  0.1166
 5577TIP3    H240927   4.885   0.154   1.776  2.8379  0.7249  0.3694
 5578TIP3   OH240928   2.175   5.343   0.613  0.0473  0.4639  0.5078
 5578TIP3    H140929   2.096   5.289   0.621 -0.0367  0.5241  0.1307
 5578TIP3    H240930   2.154   5.404   0.542  1.1966 -0.8382 -1.0120
 5579TIP3   OH240931   5.475   5.135   0.900  0.7190  0.5026 -0.2592
 5579TIP3    H140932   5.445   5.082   0.973  0.4439  0.0111 -0.7184
 5579TIP3    H240933   5.395   5.170   0.861  0.9269  1.6902  0.3531
 5580TIP3   OH240934   0.709   0.900   2.910  0.3179 -0.2410  0.1661
 5580TIP3    H140935   0.628   0.872   2.953  0.1596  1.4236  1.0440
 5580TIP3    H240936   0.680   0.936   2.826  0.3281 -1.0210 -0.1787
 5581TIP3   OH240937   2.225   5.368   1.127  0.3799  0.3647  0.4868
 5581TIP3    H140938   2.280   5.341   1.201  1.1665  1.0449  0.1739
 5581TIP3    H240939   2.277   5.435   1.082 -0.4305  0.5418 -0.2168
 5582TIP3   OH240940   3.665   3.046   2.357 -0.0990  0.5120  0.2231
 5582TIP3    H140941   3.684   2.960   2.320 -0.4344  0.5850 -0.1247
 5582TIP3    H240942   3.622   3.093   2.286  3.6300  2.4037 -1.0569
 5583TIP3   OH240943   1.530   6.552   0.652  0.2440 -0.1836  0.0812
 5583TIP3    H140944   1.440   6.518   0.657  0.2001  0.0697  1.3871
 5583TIP3    H240945   1.534   6.598   0.568 -1.0290  0.2763  0.2500
 5584TIP3   OH240946   4.279   4.385   3.213  0.5294 -0.1012  0.2332
 5584TIP3    H140947   4.220   4.369   3.286  0.5191 -1.7436 -0.0973
 5584TIP3    H240948   4.238   4.339   3.139  0.9375  0.8718 -0.6314
 5585TIP3   OH240949   3.578   4.853   3.793 -0.0249 -0.7027  0.3881
 5585TIP3    H140950   3.488   4.822   3.788 -0.3976  0.1940  1.1270
 5585TIP3    H240951   3.580   4.908   3.871  0.7851  0.4879 -0.4323
 5586TIP3   OH240952   0.013   0.238   2.587  0.5345  0.5145 -0.1741
 5586TIP3    H140953  -0.054   0.241   2.519  0.3636  0.6440 -0.0013
 5586TIP3    H240954   0.051   0.150   2.579 -0.4204  0.0241  0.4550
 5587TIP3   OH240955   3.898   1.946   3.742  0.5745 -0.3684  0.4721
 5587TIP3    H140956   3.815   1.900   3.726 -0.3314  1.0227  0.9204
 5587TIP3    H240957   3.966   1.884   3.717 -0.6194 -0.8161 -1.9325
 5588TIP3   OH240958   2.552   0.398   3.376 -0.1272  0.4821  0.3295
 5588TIP3    H140959   2.472   0.410   3.324 -0.3560  1.2506  0.8363
 5588TIP3    H240960   2.583   0.487   3.393 -0.6162  0.3004  2.3563
 5589TIP3   OH240961   5.252   2.120   1.737  0.3277 -0.5043 -0.7354
 5589TIP3    H140962   5.279   2.166   1.658 -0.7537  0.9285 -0.3234
 5589TIP3    H240963   5.157   2.130   1.739  0.1173 -2.2608 -0.2923
 5590TIP3   OH240964   2.638   0.418   1.652 -0.1283 -0.8610  0.8005
 5590TIP3    H140965   2.611   0.507   1.675 -0.1059 -0.6431  0.0084
 5590TIP3    H240966   2.559   0.365   1.665 -0.6199 -0.4338 -0.3285
 5591TIP3   OH240967   2.421   0.661   0.526  0.6799 -0.2335 -0.2425
 5591TIP3    H140968   2.397   0.662   0.619  1.0336 -0.7246 -0.1403
 5591TIP3    H240969   2.398   0.572   0.498 -0.1750  0.1585 -0.8285
 5592TIP3   OH240970   2.767   1.709   2.928  0.0245  0.2716  0.1639
 5592TIP3    H140971   2.782   1.657   2.849 -1.3216 -1.4147  0.9647
 5592TIP3    H240972   2.791   1.798   2.902 -0.4644 -0.2081 -2.1723
 5593TIP3   OH240973   4.901   3.366   3.476  0.5643  0.5030 -0.3086
 5593TIP3    H140974   4.993   3.392   3.481  0.5718  1.0621 -2.3816
 5593TIP3    H240975   4.853   3.448   3.462 -0.2589  0.2126  0.6874
 5594TIP3   OH240976   2.942   0.486   2.183 -0.1874 -0.3843 -0.1715
 5594TIP3    H140977   3.014   0.498   2.121 -0.4950  2.7305 -0.1019
 5594TIP3    H240978   2.974   0.422   2.246  1.8092 -0.4163 -1.1481
 5595TIP3   OH240979   2.077   2.304   4.065  0.5915 -0.2047 -0.5305
 5595TIP3    H140980   2.057   2.316   4.158  2.2811  0.6324 -0.2340
 5595TIP3    H240981   1.999   2.263   4.029 -0.3481  0.0265  1.1303
 5596TIP3   OH240982   1.914   5.702   2.816  0.5550 -0.2372  0.1105
 5596TIP3    H140983   1.901   5.607   2.822  0.9920 -0.2051  3.3274
 5596TIP3    H240984   1.845   5.731   2.756  0.9030 -2.6245 -1.6102
 5597TIP3   OH240985   4.906   4.859   2.335 -0.1004 -0.0137 -0.5772
 5597TIP3    H140986   4.952   4.791   2.385 -1.6188  0.1699  1.1559
 5597TIP3    H240987   4.908   4.936   2.391 -1.9216  0.1894 -0.7294
 5598TIP3   OH240988   6.486   6.129   3.938  0.2962  0.4521  0.2334
 5598TIP3    H140989   6.410   6.175   3.974 -0.2650  0.6038 -1.0841
 5598TIP3    H240990   6.457   6.097   3.853  1.7461  0.5906 -0.3459
 5599TIP3   OH240991   3.011   3.332   2.396  0.3138 -0.2321 -0.6018
 5599TIP3    H140992   3.086   3.293   2.439  1.1419  2.6443  0.8488
 5599TIP3    H240993   3.048   3.392   2.332 -0.6694  1.1562  0.0544
 5600TIP3   OH240994   0.511   3.055   3.544 -0.2546  0.4691  0.0868
 5600TIP3    H140995   0.469   2.990   3.488  1.1995 -0.8562  0.4675
 5600TIP3    H240996   0.515   3.014   3.631  1.2616  0.7452  0.1851
 5601TIP3   OH240997   2.063   0.633   2.845  0.1003  0.3129 -0.0564
 5601TIP3    H140998   2.040   0.710   2.897  0.4690  0.2619  0.1852
 5601TIP3    H240999   2.158   0.639   2.834 -0.0796  0.8748 -1.5926
 5602TIP3   OH241000   4.963   5.246   0.705  0.2651 -0.0530  0.0870
 5602TIP3    H141001   5.007   5.301   0.770 -0.0883 -0.1578  0.4180
 5602TIP3    H241002   4.873   5.279   0.702  0.0994 -0.4968  0.1576
 5603TIP3   OH241003   5.411   1.476   1.875 -0.0774  0.6606 -0.0706
 5603TIP3    H141004   5.454   1.562   1.884  0.1322  0.3589  2.3571
 5603TIP3    H241005   5.417   1.437   1.962 -2.8964 -0.5600 -0.3315
 5604TIP3   OH241006   2.609   5.177   1.081 -0.8352 -0.2132 -0.4822
 5604TIP3    H141007   2.581   5.215   1.165 -0.6208 -0.1648 -0.4322
 5604TIP3    H241008   2.555   5.098   1.072  1.6490 -2.3252  1.5117
 5605TIP3   OH241009   0.844   3.932   3.457 -0.1614 -0.2138 -0.3173
 5605TIP3    H141010   0.787   3.881   3.515  0.6491 -1.5015 -0.6139
 5605TIP3    H241011   0.877   3.868   3.394  1.4080  0.5514 -0.3084
 5606TIP3   OH241012   0.325   0.400   1.729  0.1075 -0.2059 -0.0449
 5606TIP3    H141013   0.238   0.408   1.689 -0.4292 -0.2015  1.0677
 5606TIP3    H241014   0.319   0.454   1.808  1.4489  0.5809 -0.4520
 5607TIP3   OH241015   0.576   2.194   3.235 -0.0049  0.1455  0.3684
 5607TIP3    H141016   0.494   2.145   3.244 -0.2425  0.1877 -1.2364
 5607TIP3    H241017   0.568   2.266   3.297 -1.9225  1.0889 -0.8719
 5608TIP3   OH241018   3.350   4.107   2.090 -0.0399  0.2545 -0.1089
 5608TIP3    H141019   3.282   4.169   2.117  0.5216  0.4491  0.9091
 5608TIP3    H241020   3.309   4.055   2.021 -0.9860  0.8317 -0.0013
 5609TIP3   OH241021   2.721   4.503   4.117 -0.3427  0.5245 -0.3060
 5609TIP3    H141022   2.737   4.588   4.075 -3.3075  0.9625 -0.7463
 5609TIP3    H241023   2.676   4.525   4.198  0.8787 -0.5800  0.7029
 5610TIP3   OH241024   2.240   4.304   1.304  0.5233  0.1685 -0.2122
 5610TIP3    H141025   2.292   4.224   1.314 -0.0137 -0.0377  1.0419
 5610TIP3    H241026   2.152   4.278   1.330 -0.0043  0.7886 -1.2937
 5611TIP3   OH241027   1.143   4.153   0.538 -0.2777  0.0904  0.4358
 5611TIP3    H141028   1.232   4.181   0.515 -0.6305  0.3865 -0.6205
 5611TIP3    H241029   1.090   4.233   0.531 -0.6453 -0.0918  1.0283
 5612TIP3   OH241030   2.052   2.899   1.838 -0.1679 -0.2397  0.4677
 5612TIP3    H141031   2.024   2.886   1.747 -0.1233  0.2784  0.3779
 5612TIP3    H241032   2.023   2.820   1.883 -2.4230  0.5275  0.5272
 5613TIP3   OH241033   0.143   4.757   1.474 -0.0549 -0.1279  0.1056
 5613TIP3    H141034   0.073   4.822   1.465 -0.5836 -0.8539 -1.4616
 5613TIP3    H241035   0.163   4.755   1.567 -0.2443  2.0351  0.2230
 5614TIP3   OH241036   5.589   1.830   1.568 -0.0319  0.2754 -0.3718
 5614TIP3    H141037   5.521   1.895   1.553 -0.0781  0.2518 -0.2658
 5614TIP3    H241038   5.570   1.760   1.505  0.3141  0.5918 -0.8308
 5615TIP3   OH241039   0.231   5.449   0.903 -0.7302 -0.0379  0.1563
 5615TIP3    H141040   0.257   5.520   0.961  0.4619 -0.9354  0.7679
 5615TIP3    H241041   0.232   5.488   0.815  3.9171 -0.1406 -0.0926
 5616TIP3   OH241042   0.663   1.928   1.129 -0.1558  0.4427 -0.6311
 5616TIP3    H141043   0.680   2.021   1.146  1.4156  0.1547 -0.4780
 5616TIP3    H241044   0.687   1.884   1.211 -1.7256 -0.0317 -0.4031
 5617TIP3   OH241045   5.606   4.551   2.422 -0.7979 -0.0681 -0.2344
 5617TIP3    H141046   5.584   4.460   2.403  0.5953 -0.2878 -0.8743
 5617TIP3    H241047   5.527   4.586   2.463 -0.5245 -2.2541  2.4574
 5618TIP3   OH241048   4.560   1.383   2.902  0.1628  0.6470  0.7570
 5618TIP3    H141049   4.617   1.313   2.935 -0.4057 -0.4047 -0.4221
 5618TIP3    H241050   4.618   1.437   2.847  0.2173  0.0482  0.2141
 5619TIP3   OH241051   1.396   0.073   3.765 -0.0166  0.2122 -0.3525
 5619TIP3    H141052   1.447   0.011   3.816  1.9302  0.3328 -2.0206
 5619TIP3    H241053   1.460   0.121   3.714 -1.7288  1.1725 -1.7288
 5620TIP3   OH241054   5.591   3.870   1.121  0.1460 -0.0575 -0.0727
 5620TIP3    H141055   5.598   3.779   1.091  0.4300 -0.3910  0.9469
 5620TIP3    H241056   5.499   3.880   1.146  0.5324 -0.7709  1.8457
 5621TIP3   OH241057   2.607   6.489   3.181  0.2645  0.8216 -0.7433
 5621TIP3    H141058   2.657   6.416   3.217 -1.2735  0.7486  1.4666
 5621TIP3    H241059   2.574   6.456   3.098 -0.8511 -1.2819  0.4397
 5622TIP3   OH241060   2.023   4.645   0.845 -0.7028  0.3851 -0.0087
 5622TIP3    H141061   2.050   4.579   0.909 -0.3221 -0.7133 -1.2593
 5622TIP3    H241062   2.028   4.600   0.761 -2.0250  1.5374 -0.7441
 5623TIP3   OH241063   4.936   4.734   2.922  0.3402 -0.1465 -0.4717
 5623TIP3    H141064   4.841   4.731   2.918  0.2221  0.6154  0.9253
 5623TIP3    H241065   4.957   4.827   2.912  0.7572 -0.0059  1.2785
 5624TIP3   OH241066   6.574   1.474   3.155 -0.1803 -0.2909  0.1141
 5624TIP3    H141067   6.638   1.408   3.128  0.2361  0.6988 -1.4410
 5624TIP3    H241068   6.620   1.557   3.147 -1.2281  0.3340  0.3331
 5625TIP3   OH241069   3.686   4.392   1.915 -0.5612 -0.0472  0.2175
 5625TIP3    H141070   3.762   4.373   1.860 -2.1650 -1.6782 -1.6260
 5625TIP3    H241071   3.683   4.487   1.922  0.5161  0.1351 -1.3936
 5626TIP3   OH241072   2.979   4.388   3.942 -0.1810  0.3992  0.6091
 5626TIP3    H141073   3.007   4.301   3.916  1.1823  0.3562  2.1205
 5626TIP3    H241074   2.917   4.374   4.013 -0.0314  0.6652  0.7945
 5627TIP3   OH241075   6.617   6.331   0.571  0.3787 -0.2094  0.2400
 5627TIP3    H141076   6.712   6.335   0.558  0.6087  1.9182  1.8710
 5627TIP3    H241077   6.590   6.423   0.571 -1.5455 -0.7341  0.7313
 5628TIP3   OH241078   5.519   2.965   3.590  0.0909  0.1230 -0.4820
 5628TIP3    H141079   5.473   3.045   3.565  1.1958  1.2275  0.8392
 5628TIP3    H241080   5.555   2.985   3.677 -2.7542 -3.1037  1.7193
 5629TIP3   OH241081   3.832   0.922   3.498  0.1224 -0.3649 -0.8636
 5629TIP3    H141082   3.862   1.006   3.533  2.3271 -0.3887 -2.4524
 5629TIP3    H241083   3.818   0.867   3.575  1.2010  0.6936  0.1184
 5630TIP3   OH241084   4.058   2.397   2.870 -0.0812 -0.2982  0.4796
 5630TIP3    H141085   3.991   2.355   2.924  0.1400 -1.8230 -0.3756
 5630TIP3    H241086   4.023   2.393   2.781 -1.1701  3.6150  0.5622
 5631TIP3   OH241087   4.798   5.880   2.482 -1.0268 -0.4003  0.6003
 5631TIP3    H141088   4.804   5.958   2.428  0.2021 -0.9721 -0.1602
 5631TIP3    H241089   4.744   5.819   2.432  1.6602 -1.6465 -1.0476
 5632TIP3   OH241090   2.559   3.597   1.828  0.5453 -0.6581 -0.4367
 5632TIP3    H141091   2.607   3.671   1.792  0.2174  0.4344  1.2894
 5632TIP3    H241092   2.516   3.631   1.906 -0.2944 -2.4658 -0.0515
 5633TIP3   OH241093   5.393   3.904   4.550  0.0914  0.1913 -0.2847
 5633TIP3    H141094   5.421   3.823   4.508 -0.9526 -0.8227  0.8811
 5633TIP3    H241095   5.328   3.941   4.490 -0.2704 -0.4373 -0.2845
 5634TIP3   OH241096   3.325   4.348   3.093 -0.1302 -0.2194  0.1617
 5634TIP3    H141097   3.275   4.427   3.114  1.1295  0.1326  2.1282
 5634TIP3    H241098   3.413   4.382   3.071  0.1610 -1.0136  0.0817
 5635TIP3   OH241099   2.544   3.980   1.099 -0.3772  0.5922 -0.3106
 5635TIP3    H141100   2.549   3.913   1.167  1.8242  0.4293 -0.5544
 5635TIP3    H241101   2.632   4.016   1.095 -1.1558  2.5202 -1.1941
 5636TIP3   OH241102   1.590   2.075   0.550  0.2335  0.1370 -0.0823
 5636TIP3    H141103   1.674   2.078   0.504  0.2306  4.1960 -0.1985
 5636TIP3    H241104   1.609   2.106   0.638 -1.0684  0.9080 -0.0385
 5637TIP3   OH241105   4.556   2.552   3.510 -0.4987  0.0415 -0.3978
 5637TIP3    H141106   4.529   2.463   3.488  0.8213 -0.3363 -0.5853
 5637TIP3    H241107   4.520   2.567   3.598 -1.3014 -0.4063 -0.6337
 5638TIP3   OH241108   2.632   4.944   3.107 -0.5879  0.3535 -0.8464
 5638TIP3    H141109   2.550   4.897   3.090 -1.4307  1.6240 -0.4458
 5638TIP3    H241110   2.676   4.947   3.022 -0.0814 -1.8845 -0.7172
 5639TIP3   OH241111   2.122   1.906   1.209  0.5160 -0.1946  0.1723
 5639TIP3    H141112   2.208   1.943   1.230  1.0354 -0.2198 -1.7050
 5639TIP3    H241113   2.060   1.976   1.229  1.0485  0.1120  0.7874
 5640TIP3   OH241114   4.881   0.670   1.568 -0.1036 -0.2852 -0.2471
 5640TIP3    H141115   4.972   0.656   1.543  0.3060  2.4290 -0.6097
 5640TIP3    H241116   4.883   0.748   1.624 -2.3236  0.6541 -1.3533
 5641TIP3   OH241117   5.182   0.150   4.528 -0.0597  0.0624  0.4132
 5641TIP3    H141118   5.239   0.098   4.585 -1.2159 -0.7172  0.8858
 5641TIP3    H241119   5.191   0.110   4.442 -0.3593 -0.4507  0.6171
 5642TIP3   OH241120   3.194   2.783   2.791 -0.2634  0.4464 -0.1325
 5642TIP3    H141121   3.258   2.838   2.837  0.0337 -0.5163  0.6487
 5642TIP3    H241122   3.145   2.741   2.861  1.6031 -2.7213 -0.5456
 5643TIP3   OH241123   1.255   1.465   1.683  0.7119  0.0208 -0.1721
 5643TIP3    H141124   1.269   1.463   1.777  2.7193  1.6920 -0.3514
 5643TIP3    H241125   1.183   1.528   1.670 -0.4858 -1.2174  0.2724
 5644TIP3   OH241126   2.859   4.381   1.733 -0.1101 -0.2525  0.3393
 5644TIP3    H141127   2.769   4.357   1.758  0.7804 -0.7724  3.4555
 5644TIP3    H241128   2.861   4.477   1.743 -1.1398  0.2845 -3.1517
 5645TIP3   OH241129   1.753   4.714   0.505  0.5281  0.1848 -0.2149
 5645TIP3    H141130   1.778   4.798   0.467 -0.1358  0.2595 -0.5034
 5645TIP3    H241131   1.835   4.665   0.512  0.6696  0.1506 -1.8142
 5646TIP3   OH241132   4.719   0.201   2.703 -0.7727 -0.5693  0.2347
 5646TIP3    H141133   4.703   0.111   2.731 -1.0288 -0.7209 -0.3814
 5646TIP3    H241134   4.653   0.217   2.635 -1.1162  0.2852  0.7498
 5647TIP3   OH241135   2.479   5.371   3.214 -0.1043 -0.0918 -0.0489
 5647TIP3    H141136   2.563   5.338   3.181 -0.2905  0.0891 -0.7154
 5647TIP3    H241137   2.451   5.306   3.278  2.0618  1.3735  2.5847
 5648TIP3   OH241138   4.712   3.327   2.706  0.2869 -0.2250  0.1459
 5648TIP3    H141139   4.782   3.371   2.657  0.2361  0.0594  0.3247
 5648TIP3    H241140   4.655   3.290   2.638  0.7975 -0.7616  0.0052
 5649TIP3   OH241141   1.984   4.337   2.639  0.3837 -0.0176 -0.0513
 5649TIP3    H141142   2.058   4.362   2.584  0.5167  1.2052  0.6466
 5649TIP3    H241143   2.009   4.252   2.675  1.4430  0.3515  0.1234
 5650TIP3   OH241144   1.590   3.749   1.329 -0.2985  0.2373  0.8346
 5650TIP3    H141145   1.570   3.711   1.415  0.6892 -0.7889  0.6452
 5650TIP3    H241146   1.651   3.820   1.348 -0.0537 -0.0107  0.9982
 5651TIP3   OH241147   0.540   0.238   1.738  0.0430  0.0479  0.2522
 5651TIP3    H141148   0.510   0.174   1.802  0.8886 -0.6486 -0.0251
 5651TIP3    H241149   0.470   0.303   1.734 -1.0495 -1.0962  0.1947
 5652TIP3   OH241150   6.265   6.232   2.320  0.0225 -0.0127 -0.1471
 5652TIP3    H141151   6.195   6.282   2.279 -0.3482 -0.3255  0.0998
 5652TIP3    H241152   6.259   6.145   2.280 -0.9025 -0.5905  1.1799
 5653TIP3   OH241153   5.203   2.752   3.335 -0.4613 -0.1764  0.0159
 5653TIP3    H141154   5.245   2.735   3.251 -1.3188 -0.2362 -0.4165
 5653TIP3    H241155   5.111   2.767   3.313 -0.4071  1.5412  0.7345
 5654TIP3   OH241156   4.025   5.914   1.028  0.8957 -0.1058 -0.6889
 5654TIP3    H141157   3.970   5.920   0.950  0.9179 -1.1750 -0.7886
 5654TIP3    H241158   4.105   5.871   0.998  1.0116 -0.2793 -0.1318
 5655TIP3   OH241159   5.161   3.162   3.590 -0.1983 -0.4285 -0.4906
 5655TIP3    H141160   5.124   3.191   3.507 -2.1824  2.2507  1.1331
 5655TIP3    H241161   5.087   3.162   3.651  1.1502 -2.3604  1.2949
 5656TIP3   OH241162   3.385   3.285   0.813  0.1135  0.0623  0.7754
 5656TIP3    H141163   3.321   3.302   0.744 -0.0898 -0.3589  0.8606
 5656TIP3    H241164   3.456   3.347   0.795 -0.2747  0.4696  0.6276
 5657TIP3   OH241165   2.696   3.542   2.654 -0.0441 -0.5595 -0.5202
 5657TIP3    H141166   2.652   3.599   2.591  0.1802 -1.1162 -1.1922
 5657TIP3    H241167   2.716   3.463   2.605  1.1116 -0.5829 -0.0446
 5658TIP3   OH241168   0.400   6.391   4.321  0.1300 -0.2258 -0.2391
 5658TIP3    H141169   0.305   6.400   4.327 -0.0566 -1.5998 -0.7152
 5658TIP3    H241170   0.421   6.317   4.378  1.2090  1.3926  1.5637
 5659TIP3   OH241171   5.502   4.855   4.182  0.1945  0.4563  0.3226
 5659TIP3    H141172   5.498   4.815   4.269 -1.9124  0.2441  0.1658
 5659TIP3    H241173   5.456   4.938   4.191 -2.4877 -0.7451 -1.1187
 5660TIP3   OH241174   4.008   5.698   1.870  0.6744  0.0318  0.6365
 5660TIP3    H141175   4.054   5.614   1.871 -1.5840 -1.3027  1.9541
 5660TIP3    H241176   3.954   5.695   1.790  0.9085  0.4418  0.4581
 5661TIP3   OH241177   0.936   2.489   2.795  0.5788 -0.0344  0.0229
 5661TIP3    H141178   0.914   2.505   2.887  1.3630 -0.2440  0.2596
 5661TIP3    H241179   0.918   2.396   2.782 -0.0540  0.1144 -0.1952
 5662TIP3   OH241180   3.751   1.485   1.051  0.0842 -0.3926 -0.0355
 5662TIP3    H141181   3.802   1.404   1.043  0.0060 -0.3708 -0.8395
 5662TIP3    H241182   3.663   1.455   1.077 -0.3476 -0.7188 -1.7234
 5663TIP3   OH241183   3.953   5.485   3.412 -0.2004 -0.1266 -0.3646
 5663TIP3    H141184   4.035   5.464   3.457 -0.2852  0.4715  0.0874
 5663TIP3    H241185   3.884   5.457   3.473 -0.3337 -0.5285 -0.6959
 5664TIP3   OH241186   4.288   0.359   1.387  0.2292  0.2575 -0.3126
 5664TIP3    H141187   4.285   0.420   1.313  1.0788  0.8753  0.1450
 5664TIP3    H241188   4.196   0.337   1.404 -0.0039  0.4999 -1.2243
 5665TIP3   OH241189   0.953   2.592   0.789  0.0463 -0.4029  0.7233
 5665TIP3    H141190   0.952   2.505   0.751  2.1177  0.1442 -0.7926
 5665TIP3    H241191   0.907   2.647   0.725  1.1113  0.0322  0.2878
 5666TIP3   OH241192   4.124   6.209   1.822 -0.2344  0.3885 -0.4340
 5666TIP3    H141193   4.199   6.164   1.783  0.9513  1.4483  0.5550
 5666TIP3    H241194   4.106   6.282   1.763 -0.4895  0.1625 -0.6451
 5667TIP3   OH241195   0.460   0.141   3.186 -0.2458 -0.4998 -0.3601
 5667TIP3    H141196   0.396   0.080   3.150 -2.3985  1.1485  0.4624
 5667TIP3    H241197   0.447   0.222   3.137  1.2303 -0.0873 -0.1427
 5668TIP3   OH241198   1.913   0.922   1.958 -1.0075  0.4270  0.8572
 5668TIP3    H141199   1.829   0.881   1.976 -1.2276  1.3651  2.0675
 5668TIP3    H241200   1.907   1.008   2.000  0.2726  0.8063  0.3049
 5669TIP3   OH241201   1.706   3.616   1.102  0.6067  0.2593 -0.2149
 5669TIP3    H141202   1.649   3.656   1.168 -0.3098  0.3369 -1.0261
 5669TIP3    H241203   1.788   3.664   1.108  0.1572  0.9997  0.1239
 5670TIP3   OH241204   5.865   3.599   2.224 -0.0608  0.1419  0.1217
 5670TIP3    H141205   5.889   3.510   2.250 -0.9919  0.1003  0.8898
 5670TIP3    H241206   5.862   3.596   2.128 -2.4097 -1.3380  0.1477
 5671TIP3   OH241207   1.419   0.691   2.993 -0.6231 -0.1217 -0.0700
 5671TIP3    H141208   1.357   0.718   3.062 -0.6672 -0.3567 -0.0130
 5671TIP3    H241209   1.405   0.596   2.986 -1.4687  0.0580 -1.2328
 5672TIP3   OH241210   5.587   1.749   1.190  0.2928  0.4800  0.4464
 5672TIP3    H141211   5.595   1.688   1.263 -0.4288 -0.0805  0.0666
 5672TIP3    H241212   5.647   1.715   1.123  0.0142  0.2798  0.2980
 5673TIP3   OH241213   5.906   4.723   1.199  0.1014  0.1627  0.2894
 5673TIP3    H141214   5.937   4.777   1.272  0.8106  0.4914 -0.2465
 5673TIP3    H241215   5.892   4.636   1.238  1.0484  0.1816  0.6975
 5674TIP3   OH241216   1.992   1.304   0.849  0.0349 -0.4096  0.0575
 5674TIP3    H141217   2.033   1.340   0.927 -0.4283 -2.7472  1.4910
 5674TIP3    H241218   1.948   1.225   0.880 -1.0795 -0.8330 -2.3933
 5675TIP3   OH241219   3.793   5.224   1.605 -0.2097 -0.1123 -0.2092
 5675TIP3    H141220   3.737   5.284   1.654 -1.3978 -0.8052 -0.6515
 5675TIP3    H241221   3.734   5.153   1.578  1.4410 -2.3483  1.6640
 5676TIP3   OH241222   0.317   0.079   2.220  0.3929 -0.3651 -0.1576
 5676TIP3    H141223   0.410   0.101   2.226  0.3306  0.1976 -1.0853
 5676TIP3    H241224   0.309  -0.001   2.272  1.2925 -0.1463  0.3569
 5677TIP3   OH241225   2.476   6.102   3.023 -0.2176  0.2142 -0.4932
 5677TIP3    H141226   2.473   6.072   2.933 -1.1986 -0.8412 -0.1425
 5677TIP3    H241227   2.490   6.022   3.074 -1.4918  0.5221  0.3888
 5678TIP3   OH241228   0.634   2.780   1.442 -0.4089 -0.4692  0.5363
 5678TIP3    H141229   0.596   2.858   1.402 -0.5797 -1.2840 -0.9627
 5678TIP3    H241230   0.700   2.814   1.503  1.0931  0.8563 -1.6464
 5679TIP3   OH241231   1.273   5.151   2.211 -0.1635 -0.2500  0.1951
 5679TIP3    H141232   1.305   5.080   2.155  0.2880  1.1741 -1.4491
 5679TIP3    H241233   1.337   5.221   2.200 -1.6456  1.1606  0.1355
 5680TIP3   OH241234   1.248   0.732   3.247 -0.4760  0.2895  0.0963
 5680TIP3    H141235   1.243   0.827   3.249 -0.7521  0.4595 -3.1197
 5680TIP3    H241236   1.167   0.705   3.202 -0.3133 -1.4598  0.7713
 5681TIP3   OH241237   1.956   6.416   0.797 -0.5205 -0.0982  0.2974
 5681TIP3    H141238   1.933   6.507   0.814  0.0110  0.0863  0.0707
 5681TIP3    H241239   2.023   6.421   0.729 -0.6626 -0.6733  0.1107
 5682TIP3   OH241240   1.164   5.365   1.094 -0.2463  0.6066  0.6885
 5682TIP3    H141241   1.147   5.273   1.074  0.3177  0.7035 -0.3032
 5682TIP3    H241242   1.139   5.375   1.186 -0.8482 -0.3971  0.6450
 5683TIP3   OH241243   0.084   2.945   1.413 -0.4039 -0.6899 -0.3466
 5683TIP3    H141244   0.073   3.035   1.384 -0.8409 -0.1056  1.4830
 5683TIP3    H241245  -0.005   2.913   1.429 -0.2267 -1.2779 -0.5080
 5684TIP3   OH241246   4.297   0.934   1.131  0.1936 -0.1957 -0.1467
 5684TIP3    H141247   4.214   0.967   1.165  1.6112  0.6102  2.8789
 5684TIP3    H241248   4.298   0.842   1.154  0.6794  0.1080  1.1489
 5685TIP3   OH241249   1.427   1.000   1.306 -1.0448  0.1697  0.9403
 5685TIP3    H141250   1.359   1.004   1.239 -0.6834  1.4131  0.6105
 5685TIP3    H241251   1.448   1.092   1.324  2.2497 -0.0709 -0.7790
 5686TIP3   OH241252   1.653   5.740   2.326  0.5691 -0.3782 -0.4341
 5686TIP3    H141253   1.623   5.813   2.272 -0.7973 -1.2941 -0.9616
 5686TIP3    H241254   1.680   5.780   2.409 -0.9776  0.6357 -0.4011
 5687TIP3   OH241255   4.359   1.443   1.280 -0.0592 -0.3555 -0.0999
 5687TIP3    H141256   4.378   1.520   1.226  0.8295 -1.4228 -1.3787
 5687TIP3    H241257   4.434   1.435   1.338  0.0962 -0.5488 -0.3258
 5688TIP3   OH241258   1.594   0.104   0.895 -0.6750  0.4281  0.1502
 5688TIP3    H141259   1.553   0.042   0.835 -0.0525 -0.5115  0.6799
 5688TIP3    H241260   1.577   0.190   0.855  0.1705 -0.1940 -1.6505
 5689TIP3   OH241261   1.633   4.476   0.779 -0.3716 -0.1380  0.2138
 5689TIP3    H141262   1.586   4.402   0.741  0.8335 -0.6410 -0.3457
 5689TIP3    H241263   1.713   4.483   0.727 -1.7075  3.3781 -1.6797
 5690TIP3   OH241264   3.611   5.398   2.021  0.2834  0.8071 -0.0872
 5690TIP3    H141265   3.531   5.347   2.031  0.2858  0.6728 -0.7186
 5690TIP3    H241266   3.606   5.464   2.090  1.5253 -1.5766  2.5097
 5691TIP3   OH241267   6.341   0.846   2.977  0.2685 -0.5366  0.0893
 5691TIP3    H141268   6.395   0.920   2.949 -0.8494 -0.3669 -1.8148
 5691TIP3    H241269   6.375   0.772   2.928 -0.7194 -0.5786 -0.5557
 5692TIP3   OH241270   0.152   2.779   1.863 -0.2813 -0.5563 -0.2083
 5692TIP3    H141271   0.082   2.725   1.900  0.2272 -3.3518 -2.8551
 5692TIP3    H241272   0.106   2.847   1.813 -0.9999 -0.1869  0.9222
 5693TIP3   OH241273   5.338   0.203   1.007 -0.6583  0.2419  0.8226
 5693TIP3    H141274   5.337   0.277   0.947 -2.6627 -0.3627  0.0446
 5693TIP3    H241275   5.358   0.242   1.093  1.2009  1.2404 -0.0019
 5694TIP3   OH241276   5.350   4.622   1.066  0.0962  0.1543  0.0413
 5694TIP3    H141277   5.441   4.618   1.036 -0.0475  0.7807 -0.5180
 5694TIP3    H241278   5.314   4.536   1.044  0.5321 -0.0711  0.1973
 5695TIP3   OH241279   5.603   2.568   2.513  0.0548 -0.0836  0.5180
 5695TIP3    H141280   5.683   2.564   2.461  0.3253  1.5480  0.7489
 5695TIP3    H241281   5.632   2.601   2.599 -0.9455  1.3289  0.3520
 5696TIP3   OH241282   1.448   5.243   2.786  0.1770  0.5666  0.0077
 5696TIP3    H141283   1.360   5.206   2.774  0.3526  0.0387  0.3069
 5696TIP3    H241284   1.496   5.217   2.707  0.5367 -0.5655  0.5751
 5697TIP3   OH241285   1.556   4.654   0.975  0.0013  0.3837 -0.0293
 5697TIP3    H141286   1.576   4.598   0.900  0.4173  1.7024 -0.9289
 5697TIP3    H241287   1.560   4.595   1.051  0.5325 -0.7679 -0.9258
 5698TIP3   OH241288   1.275   0.035   1.337 -0.7063 -0.2040 -0.2769
 5698TIP3    H141289   1.355   0.015   1.386 -0.1160  0.2859 -1.0342
 5698TIP3    H241290   1.245   0.119   1.372 -0.8931 -0.3812 -0.0027
 5699TIP3   OH241291   4.934   3.391   1.246 -0.8379 -0.6006 -0.0983
 5699TIP3    H141292   4.927   3.343   1.163  2.8362 -0.9396 -0.3485
 5699TIP3    H241293   4.928   3.324   1.314  2.6343 -1.3999 -0.4067
 5700TIP3   OH241294   6.307   2.104   0.481 -0.0378  0.0934  0.0913
 5700TIP3    H141295   6.231   2.109   0.422 -1.4778  0.5387  1.9121
 5700TIP3    H241296   6.332   2.195   0.495 -0.3525  0.0582  0.9377
 5701TIP3   OH241297   6.305   4.035   3.351 -0.5699  0.4799 -0.4613
 5701TIP3    H141298   6.361   4.044   3.274 -0.6696 -0.2015 -0.6203
 5701TIP3    H241299   6.366   4.033   3.425 -0.4157  0.2782 -0.5925
 5702TIP3   OH241300   5.546   1.001   1.820 -0.3554  0.4494 -0.0843
 5702TIP3    H141301   5.578   0.921   1.863 -0.4649  0.0011 -0.8087
 5702TIP3    H241302   5.462   1.019   1.862 -0.8590 -0.4622 -0.6600
 5703TIP3   OH241303   1.073   5.110   1.025 -0.1540 -0.3352  0.4467
 5703TIP3    H141304   1.084   5.115   0.930  2.5381  0.9084  0.7177
 5703TIP3    H241305   1.029   5.026   1.040  3.0554 -2.6304 -1.6913
 5704TIP3   OH241306   5.256   3.174   0.376 -0.0244  0.1901  0.1036
 5704TIP3    H141307   5.278   3.266   0.386  0.7976 -0.1775  2.3998
 5704TIP3    H241308   5.194   3.156   0.447  0.1812 -1.0927 -0.0144
 5705TIP3   OH241309   4.822   0.521   0.545  0.3325  0.6006  0.1154
 5705TIP3    H141310   4.735   0.517   0.505  1.5420 -3.9330 -2.8545
 5705TIP3    H241311   4.830   0.440   0.595  2.7823  0.9658  0.4536
 5706TIP3   OH241312   4.060   3.011   1.886  0.1937 -0.0483  0.0722
 5706TIP3    H141313   4.135   3.009   1.826 -0.7282 -0.5727 -1.1035
 5706TIP3    H241314   4.030   3.101   1.884 -0.1969 -0.1842 -0.7516
 5707TIP3   OH241315   6.080   2.139   1.627  0.1524  0.1196 -0.4255
 5707TIP3    H141316   6.077   2.233   1.647  0.0235 -0.2638  1.5832
 5707TIP3    H241317   6.035   2.131   1.543  0.3125  1.8685 -0.7205
 5708TIP3   OH241318   1.692   3.944   0.913  0.4417  0.0704 -0.2081
 5708TIP3    H141319   1.729   3.909   0.832  0.8445  0.4517 -0.1959
 5708TIP3    H241320   1.629   3.878   0.941  1.9188 -1.1713  0.3742
 5709TIP3   OH241321   5.293   5.637   1.535  0.5368 -0.3053 -0.2088
 5709TIP3    H141322   5.357   5.683   1.481 -1.0381  0.1942 -1.7274
 5709TIP3    H241323   5.318   5.545   1.528  0.2928 -0.2717 -1.9492
 5710TIP3   OH241324   0.177   2.469   1.015  0.9429 -0.0930 -0.4050
 5710TIP3    H141325   0.224   2.552   1.020 -0.3432  0.6313 -0.0217
 5710TIP3    H241326   0.169   2.441   1.106  1.0068 -0.4308 -0.5037
 5711TIP3   OH241327   2.490   0.089   2.547  0.3093 -0.3947  0.2110
 5711TIP3    H141328   2.563   0.044   2.587  1.1768  0.3648 -0.4668
 5711TIP3    H241329   2.439   0.124   2.621 -0.9482 -3.2240  0.7942
 5712TIP3   OH241330   1.629   2.744   1.339  0.1383  0.5211  0.5098
 5712TIP3    H141331   1.603   2.817   1.395  0.0432  1.7128 -1.0006
 5712TIP3    H241332   1.565   2.744   1.268 -0.2267 -1.4568  0.7871
 5713TIP3   OH241333   5.288   4.423   1.564 -0.1139  0.3901  0.4372
 5713TIP3    H141334   5.277   4.411   1.469 -0.6222  1.3594  0.3526
 5713TIP3    H241335   5.222   4.366   1.603  0.6518 -0.6557  0.2578
 5714TIP3   OH241336   5.119   1.887   0.836  0.1781 -0.1147  0.4524
 5714TIP3    H141337   5.131   1.811   0.778 -0.2706  1.4106 -1.7934
 5714TIP3    H241338   5.040   1.866   0.886  0.0785 -1.1564 -0.0988
 5715TIP3   OH241339   4.038   3.266   1.288  0.2432  0.1561  0.2085
 5715TIP3    H141340   4.113   3.285   1.232  0.3094  0.5672  0.4374
 5715TIP3    H241341   3.975   3.222   1.230  0.5865 -0.0333 -0.0222
 5716TIP3   OH241342   2.452   5.795   1.270  0.2105  0.0690 -0.2005
 5716TIP3    H141343   2.540   5.780   1.304  2.0241 -0.0322 -4.2984
 5716TIP3    H241344   2.450   5.888   1.247 -0.9409  0.1600  0.1709
 5717TIP3   OH241345   1.507   4.426   2.748 -0.0462 -0.7506 -0.7184
 5717TIP3    H141346   1.571   4.355   2.741 -1.2080 -1.8166 -0.9892
 5717TIP3    H241347   1.441   4.392   2.808  0.3021  0.8709  0.6588
 5718TIP3   OH241348   4.180   3.211   0.394 -0.3637  0.1817  0.5254
 5718TIP3    H141349   4.121   3.145   0.431  0.1420 -0.3049  0.4761
 5718TIP3    H241350   4.266   3.168   0.393 -0.2099  0.4997 -0.4083
 5719TIP3   OH241351   6.351   3.713   2.370 -0.3514 -0.0362 -0.2634
 5719TIP3    H141352   6.383   3.728   2.459 -0.9275 -1.5350  0.2226
 5719TIP3    H241353   6.267   3.758   2.366 -0.4243 -0.1470  0.0271
 5720TIP3   OH241354   5.588   5.564   2.960 -0.6806 -0.0115  0.4686
 5720TIP3    H141355   5.613   5.525   3.044 -0.8757  0.4715  0.7541
 5720TIP3    H241356   5.493   5.559   2.959 -0.6549 -0.4703  0.0516
 5721TIP3   OH241357   1.324   6.490   2.339 -0.0725 -0.2476 -0.0033
 5721TIP3    H141358   1.404   6.440   2.352  0.6290 -0.0649 -2.9419
 5721TIP3    H241359   1.351   6.582   2.350 -0.4719 -0.2744  1.4108
 5722TIP3   OH241360   5.613   5.255   2.503  0.2429 -0.1561  0.1134
 5722TIP3    H141361   5.672   5.281   2.573 -0.6791 -0.3303  0.9845
 5722TIP3    H241362   5.528   5.290   2.529 -0.2350 -0.7265 -0.6193
 5723TIP3   OH241363   4.002   1.197   3.894 -0.0698 -0.0033  0.2545
 5723TIP3    H141364   4.038   1.232   3.975  2.0737  1.2114 -1.1487
 5723TIP3    H241365   3.950   1.269   3.858  0.2414  0.0006 -0.1912
 5724TIP3   OH241366   6.007   0.293   0.565 -0.6179  0.6033  0.2905
 5724TIP3    H141367   5.946   0.366   0.556 -0.4989  0.9566  1.9893
 5724TIP3    H241368   5.952   0.215   0.560 -1.0891  0.8926  0.8647
 5725TIP3   OH241369   1.053   6.051   3.245  0.3077 -0.0926  0.2877
 5725TIP3    H141370   1.001   6.087   3.317  1.3782  0.7445  0.6694
 5725TIP3    H241371   0.990   6.041   3.173 -0.8851 -1.3973  1.4579
 5726TIP3   OH241372   3.930   5.529   2.194  0.3256 -0.0594 -0.4236
 5726TIP3    H141373   3.887   5.519   2.279 -1.1355 -0.1335 -1.1475
 5726TIP3    H241374   3.882   5.599   2.150  2.8581  2.0383 -0.1324
 5727TIP3   OH241375   0.630   3.341   1.521 -0.0342 -0.4130  0.4854
 5727TIP3    H141376   0.543   3.307   1.541 -0.2007  0.7200  1.8457
 5727TIP3    H241377   0.670   3.274   1.466 -1.9006 -0.7684 -0.5077
 5728TIP3   OH241378   5.234   5.829   2.820  0.0119 -0.9602  0.2604
 5728TIP3    H141379   5.223   5.762   2.752 -2.5547 -0.2935 -0.0641
 5728TIP3    H241380   5.232   5.780   2.903 -2.2619 -1.3211  0.0457
 5729TIP3   OH241381   6.245   4.178   3.040  0.3660 -0.9593 -0.1531
 5729TIP3    H141382   6.166   4.124   3.028 -0.0097 -0.3489 -0.4631
 5729TIP3    H241383   6.313   4.115   3.066 -0.6862 -1.2710  2.1587
 5730TIP3   OH241384   1.805   5.562   0.591 -0.3964  0.1956  0.2906
 5730TIP3    H141385   1.826   5.615   0.668  0.6397 -0.6053  0.5858
 5730TIP3    H241386   1.717   5.529   0.609  0.4536 -1.3541  1.9737
 5731TIP3   OH241387   0.147   5.712   3.020  0.0114  0.7065  0.2865
 5731TIP3    H141388   0.184   5.786   2.972 -1.2200  0.2729 -1.4342
 5731TIP3    H241389   0.088   5.751   3.084 -0.5949  1.2355 -0.5830
 5732TIP3   OH241390   3.078   1.525   3.884 -0.0099  0.0880 -0.4137
 5732TIP3    H141391   3.008   1.581   3.917 -0.2625 -1.0147  1.0367
 5732TIP3    H241392   3.038   1.439   3.874  0.8948 -0.3370 -0.5032
 5733TIP3   OH241393   5.152   6.471   1.477 -0.1027  0.0166 -0.3988
 5733TIP3    H141394   5.098   6.548   1.457  0.4727  0.3867 -0.5345
 5733TIP3    H241395   5.161   6.472   1.572 -1.1773 -0.6245 -0.2686
 5734TIP3   OH241396   0.152   3.834   1.738 -0.4712 -0.1699 -0.0972
 5734TIP3    H141397   0.077   3.807   1.685 -0.9885  2.6064 -0.9431
 5734TIP3    H241398   0.213   3.761   1.732 -2.5275 -1.9594 -0.4844
 5735TIP3   OH241399   3.158   2.566   3.931 -0.3185 -0.0405  0.4752
 5735TIP3    H141400   3.157   2.662   3.941  0.8053  0.1013 -0.5767
 5735TIP3    H241401   3.106   2.550   3.853  0.4276 -0.1795 -0.0057
 5736TIP3   OH241402   5.843   4.112   3.171  0.0844  0.1989  0.1412
 5736TIP3    H141403   5.879   4.077   3.252 -0.7792 -0.2238  0.3634
 5736TIP3    H241404   5.888   4.195   3.157  0.7053 -0.0406  0.7056
 5737TIP3   OH241405   1.846   4.101   2.113 -0.1794 -0.2377 -0.0158
 5737TIP3    H141406   1.869   4.041   2.041  0.8470  1.2908 -1.0103
 5737TIP3    H241407   1.750   4.108   2.108 -0.1097 -0.0072 -1.3849
 5738TIP3   OH241408   3.489   0.860   2.822  0.2474 -0.1151  0.0398
 5738TIP3    H141409   3.449   0.922   2.883  1.3661  0.7855 -0.0932
 5738TIP3    H241410   3.426   0.851   2.751 -0.5667 -0.2797  0.7788
 5739TIP3   OH241411   6.195   6.247   0.593  1.1213 -0.0890 -0.3208
 5739TIP3    H141412   6.143   6.177   0.553  2.0459  0.0915 -1.9569
 5739TIP3    H241413   6.140   6.325   0.586  1.4228  0.0259 -1.6980
 5740TIP3   OH241414   0.406   1.482   0.869  0.4075  0.0355 -0.0790
 5740TIP3    H141415   0.383   1.572   0.849  0.8065 -0.1030 -1.2799
 5740TIP3    H241416   0.332   1.431   0.835  0.6366 -0.1429 -0.3167
 5741TIP3   OH241417   6.016   5.354   3.436 -0.1061  0.0718 -0.2985
 5741TIP3    H141418   5.973   5.374   3.353  1.8216 -1.0151 -1.6459
 5741TIP3    H241419   5.950   5.309   3.488 -0.4889 -2.1269 -2.5299
 5742TIP3   OH241420   3.585   1.566   0.777 -0.5539 -0.3186  0.1592
 5742TIP3    H141421   3.547   1.617   0.706 -0.7755 -1.0957 -0.2939
 5742TIP3    H241422   3.649   1.624   0.818 -1.4400  0.6311  0.2327
 5743TIP3   OH241423   3.457   4.128  12.386 -0.2093  0.5603  0.8489
 5743TIP3    H141424   3.494   4.056  12.436 -0.0240 -1.5709 -2.1146
 5743TIP3    H241425   3.533   4.170  12.345 -0.4725  1.1704  0.9731
 5744TIP3   OH241426   3.712   1.471   2.017 -0.3887 -0.5683  0.3256
 5744TIP3    H141427   3.658   1.452   1.941  0.9564 -0.1154 -0.7787
 5744TIP3    H241428   3.756   1.389   2.037 -1.6031 -1.0102  1.3889
 5745TIP3   OH241429   0.369   0.065   0.721  0.1819  0.1901 -0.5462
 5745TIP3    H141430   0.279   0.052   0.691  0.4259  0.1660 -1.2957
 5745TIP3    H241431   0.372   0.156   0.749  0.0711  0.3515 -1.0554
 5746TIP3   OH241432   3.660   4.751   2.428 -0.2201  0.3058 -0.6169
 5746TIP3    H141433   3.744   4.764   2.473 -0.6696 -0.9222  0.6376
 5746TIP3    H241434   3.681   4.694   2.354 -0.2913 -2.0970  1.1182
 5747TIP3   OH241435   1.032   1.047   2.775  0.3210 -0.5775  0.1121
 5747TIP3    H141436   1.085   1.064   2.853  2.2827 -0.5981 -1.1388
 5747TIP3    H241437   0.986   1.129   2.759 -0.3867 -0.6779  1.4429
 5748TIP3   OH241438   4.607   2.920   0.516 -0.0320  0.1451  0.2200
 5748TIP3    H141439   4.645   2.919   0.604 -0.6831 -0.0743  0.5037
 5748TIP3    H241440   4.562   2.837   0.508 -0.6422  0.4922 -0.0269
 5749TIP3   OH241441   2.662   1.441   1.804 -0.3327  0.8898 -0.0343
 5749TIP3    H141442   2.586   1.405   1.757 -0.2608  0.5234  0.1322
 5749TIP3    H241443   2.675   1.383   1.878 -0.9908  1.9590  0.9592
 5750TIP3   OH241444   2.313   3.205   2.600  0.0329 -0.0464  0.1270
 5750TIP3    H141445   2.354   3.269   2.658  0.4723 -1.5608  1.5810
 5750TIP3    H241446   2.228   3.187   2.640  0.0276 -0.5540 -0.1039
 5751TIP3   OH241447   5.676   6.370   4.261  0.4591 -0.9877  0.1205
 5751TIP3    H141448   5.662   6.448   4.316  0.4914 -1.5150  0.8887
 5751TIP3    H241449   5.605   6.311   4.286 -0.1593 -0.8227 -1.1828
 5752TIP3   OH241450   5.803   3.002   2.916  0.5796 -0.2727  0.4889
 5752TIP3    H141451   5.872   3.035   2.857  0.2441  0.5294  0.5399
 5752TIP3    H241452   5.844   3.003   3.003 -0.2376  2.6058  0.9385
 5753TIP3   OH241453   2.459   5.728   0.497  0.0277 -0.5189 -0.2951
 5753TIP3    H141454   2.369   5.700   0.512  0.2332 -0.4493  1.3389
 5753TIP3    H241455   2.502   5.653   0.457 -0.5555 -0.8599 -0.2874
 5754TIP3   OH241456   1.990   6.044   2.781  0.2884  0.3589 -0.1409
 5754TIP3    H141457   1.957   6.045   2.691  0.0276  0.7716 -0.0424
 5754TIP3    H241458   1.914   6.023   2.834  0.2396  1.0206  0.0604
 5755TIP3   OH241459   2.368   5.602   1.101 -0.1706 -0.7240  0.8232
 5755TIP3    H141460   2.457   5.576   1.080  0.4688  2.5826 -1.3951
 5755TIP3    H241461   2.378   5.677   1.159 -1.1458  1.8145 -1.9824
 5756TIP3   OH241462   0.196   6.438   3.442 -0.3153  0.6214  0.3683
 5756TIP3    H141463   0.149   6.515   3.474  0.6984  1.3593  0.1026
 5756TIP3    H241464   0.274   6.473   3.399 -0.0979 -0.5269 -0.2067
 5757TIP3   OH241465   6.179   6.219   4.493 -0.0293 -0.0989  0.4477
 5757TIP3    H141466   6.149   6.269   4.569  0.3101 -0.8468  1.0797
 5757TIP3    H241467   6.105   6.220   4.433  0.4380  2.3864 -0.1903
 5758TIP3   OH241468   6.420   5.789   1.940  0.6703 -0.2108 -0.6826
 5758TIP3    H141469   6.400   5.848   2.013 -0.1470  0.4813 -1.4355
 5758TIP3    H241470   6.440   5.705   1.981 -1.4135 -0.2995  0.2866
 5759TIP3   OH241471   1.566   4.165   1.032  0.1772  0.4114 -0.0108
 5759TIP3    H141472   1.635   4.109   0.999  0.6791  0.8357  0.3034
 5759TIP3    H241473   1.499   4.105   1.065  1.1119 -0.0291  1.1769
 5760TIP3   OH241474   5.834   4.536   2.272 -0.2796  0.2289 -0.1116
 5760TIP3    H141475   5.864   4.450   2.239 -2.3166 -0.1424 -1.1742
 5760TIP3    H241476   5.755   4.516   2.323 -0.5404  1.4361 -0.0143
 5761TIP3   OH241477   4.364   1.366   2.215 -0.4504 -0.5823  0.6751
 5761TIP3    H141478   4.379   1.382   2.308 -0.5070  0.3589  0.5347
 5761TIP3    H241479   4.359   1.271   2.207  1.5618 -0.7836  1.3243
 5762TIP3   OH241480   5.848   2.032   2.318  0.1584  0.3706  0.2829
 5762TIP3    H141481   5.851   2.058   2.410  0.7184 -0.3359  0.4716
 5762TIP3    H241482   5.887   1.945   2.316 -0.8415 -0.0844 -0.4701
 5763TIP3   OH241483   3.694   2.704   2.458  0.2557 -0.5197 -0.3824
 5763TIP3    H141484   3.704   2.704   2.554 -0.6884  0.5262 -0.2742
 5763TIP3    H241485   3.783   2.722   2.426  0.3159  0.5791  0.3405
 5764TIP3   OH241486   5.079   6.604   2.895  1.0818 -0.0263 -0.7100
 5764TIP3    H141487   5.155   6.644   2.854  0.2360  1.9078 -0.4656
 5764TIP3    H241488   5.033   6.676   2.937  0.2233 -1.4547  0.9675
 5765TIP3   OH241489   2.263   1.351   2.360 -0.1713  0.1569 -0.2703
 5765TIP3    H141490   2.294   1.323   2.446 -1.3356  0.4910  0.2782
 5765TIP3    H241491   2.325   1.311   2.298 -0.3292 -1.5484  0.6065
 5766TIP3   OH241492   4.150   4.752   3.653  0.2820 -0.1573  0.1633
 5766TIP3    H141493   4.117   4.704   3.729 -2.5658  2.2860  0.6247
 5766TIP3    H241494   4.232   4.791   3.684  0.2275 -0.8537  1.2614
 5767TIP3   OH241495   4.334   6.616   2.539 -0.3472 -0.0482  0.4524
 5767TIP3    H141496   4.291   6.557   2.602  0.4324 -2.1703 -0.8825
 5767TIP3    H241497   4.276   6.616   2.463  0.4171 -0.3488 -0.1400
 5768TIP3   OH241498   6.349   1.292   1.357  0.5227 -0.3049  0.9190
 5768TIP3    H141499   6.370   1.203   1.387 -1.1298 -1.6530 -1.5264
 5768TIP3    H241500   6.359   1.287   1.262 -1.7035  1.5056  0.5225
 5769TIP3   OH241501   3.320   1.403   4.018  0.1277  0.0403 -0.1138
 5769TIP3    H141502   3.304   1.309   4.006 -0.7973  0.0814  0.6460
 5769TIP3    H241503   3.246   1.445   3.975  1.1888  0.4962 -1.5621
 5770TIP3   OH241504   3.613   3.498   0.726 -0.1726 -0.1228  0.2786
 5770TIP3    H141505   3.677   3.533   0.664  0.9061 -1.7090  0.4287
 5770TIP3    H241506   3.582   3.574   0.775  1.7582  0.6629  0.3411
 5771TIP3   OH241507   0.212   6.191   2.445 -0.0585  0.7153 -0.0528
 5771TIP3    H141508   0.140   6.164   2.388  0.2132  0.0866 -0.0985
 5771TIP3    H241509   0.287   6.200   2.386  0.2265  0.0495  0.2026
 5772TIP3   OH241510   1.029   5.934   2.239  0.4379  0.4625  0.2356
 5772TIP3    H141511   0.979   5.875   2.182  0.3470  1.3231 -0.5984
 5772TIP3    H241512   0.969   5.954   2.311  0.5603 -0.6467  0.6633
 5773TIP3   OH241513   6.104   4.457   0.828 -0.3446 -0.3747 -0.4947
 5773TIP3    H141514   6.158   4.483   0.753  0.9796  0.4789  0.6818
 5773TIP3    H241515   6.119   4.526   0.893 -0.8331 -1.4689  0.8400
 5774TIP3   OH241516   4.702   0.246   1.899  0.1305  0.1982 -0.0037
 5774TIP3    H141517   4.641   0.173   1.890 -0.2430  0.3140  1.3879
 5774TIP3    H241518   4.700   0.289   1.814 -1.3914 -0.0738 -0.1412
 5775TIP3   OH241519   5.350   2.652   2.534  0.3960 -0.4883 -0.1059
 5775TIP3    H141520   5.368   2.745   2.524 -1.4630 -0.1335 -0.5163
 5775TIP3    H241521   5.429   2.608   2.501  0.7711  0.9118 -1.1644
 5776TIP3   OH241522   1.377   3.497   3.732 -0.2410  0.3355  0.5359
 5776TIP3    H141523   1.470   3.499   3.712 -0.1438 -0.3301  0.8875
 5776TIP3    H241524   1.342   3.426   3.678 -0.4718  0.3223  0.6976
 5777TIP3   OH241525   0.110   6.561   2.850 -0.5978 -0.2555  0.1238
 5777TIP3    H141526   0.172   6.507   2.800  0.8298 -0.0668  1.6382
 5777TIP3    H241527   0.138   6.651   2.833 -1.2835 -0.0977 -0.2055
 5778TIP3   OH241528   6.315   1.433   3.045 -0.0691 -0.5024  0.0743
 5778TIP3    H141529   6.243   1.480   3.086 -0.9821 -1.7164 -0.0552
 5778TIP3    H241530   6.390   1.447   3.103 -0.4105  0.7346  0.2396
 5779TIP3   OH241531   5.595   0.138   2.123  0.1409  0.3689 -0.1641
 5779TIP3    H141532   5.620   0.081   2.050  0.4614  1.6849 -1.1417
 5779TIP3    H241533   5.500   0.144   2.116 -0.1736 -1.8734  1.4073
 5780TIP3   OH241534   3.796   2.900   1.543 -0.1276 -0.3558  0.2972
 5780TIP3    H141535   3.769   2.991   1.551  1.4893  0.2790 -0.8604
 5780TIP3    H241536   3.826   2.876   1.631  1.3831  0.9344  0.1904
 5781TIP3   OH241537   4.657   4.848   2.202 -0.4403  0.6565  0.0752
 5781TIP3    H141538   4.676   4.778   2.140 -2.3668  0.8977 -0.8866
 5781TIP3    H241539   4.740   4.865   2.246  0.3943 -1.2553 -0.6562
 5782TIP3   OH241540   4.848   2.222   0.848  0.3273 -0.0752 -0.2798
 5782TIP3    H141541   4.754   2.238   0.837  0.3253 -1.0254 -1.9333
 5782TIP3    H241542   4.862   2.231   0.942 -1.2961  0.6855 -0.0596
 5783TIP3   OH241543   4.870   5.539   2.963 -0.0067  0.6042 -0.1342
 5783TIP3    H141544   4.792   5.519   2.912  0.2092  2.5479 -1.3459
 5783TIP3    H241545   4.936   5.477   2.932 -0.9600 -0.9201  0.7548
 5784TIP3   OH241546   5.310   4.010   1.082 -0.5046 -0.1488  0.5740
 5784TIP3    H141547   5.215   4.026   1.078 -0.5799 -0.7373 -0.9191
 5784TIP3    H241548   5.340   4.024   0.992  0.9797  0.8111  1.1965
 5785TIP3   OH241549   4.912   5.139   2.446 -0.1002  0.0977 -0.1115
 5785TIP3    H141550   4.991   5.193   2.440  1.3914 -1.9832 -0.6948
 5785TIP3    H241551   4.846   5.187   2.397  1.4185  0.9610 -1.4408
 5786TIP3   OH241552   3.512   1.430   3.824  0.1582 -0.2173  1.1657
 5786TIP3    H141553   3.469   1.425   3.910 -2.0058  0.2975  0.1748
 5786TIP3    H241554   3.501   1.521   3.797 -0.5477 -0.7104 -0.3040
 5787TIP3   OH241555   3.327   0.600   0.546 -0.7035 -0.1386 -0.3284
 5787TIP3    H141556   3.346   0.679   0.495 -0.5202  0.3024  0.4063
 5787TIP3    H241557   3.410   0.579   0.589 -0.9886 -0.2020  0.1935
 5788TIP3   OH241558   5.422   2.475   3.632  0.1325 -0.6270 -0.1825
 5788TIP3    H141559   5.412   2.414   3.560  1.4257 -2.0409  0.7772
 5788TIP3    H241560   5.460   2.423   3.703  1.1665  1.2514  0.7215
 5789TIP3   OH241561   1.319   2.641   1.935  0.4276  0.4401 -0.5294
 5789TIP3    H141562   1.251   2.655   1.868  0.2756  0.9345 -0.2758
 5789TIP3    H241563   1.316   2.547   1.952  0.2334  0.3619 -0.9715
 5790TIP3   OH241564   0.671   6.551   2.398 -0.5589  0.2350  0.1748
 5790TIP3    H141565   0.747   6.501   2.427 -0.3708  0.6377  0.3678
 5790TIP3    H241566   0.641   6.597   2.476 -1.6191 -0.7127  0.3627
 5791TIP3   OH241567   2.482   1.871   3.306  0.0269  0.6097  0.2195
 5791TIP3    H141568   2.393   1.845   3.332  0.3866 -2.5185 -1.2479
 5791TIP3    H241569   2.474   1.895   3.213  0.4506  2.1754  0.5521
 5792TIP3   OH241570   1.709   5.831   2.621  0.1840 -0.0129  0.0706
 5792TIP3    H141571   1.614   5.846   2.612  0.0992 -1.4520 -2.6332
 5792TIP3    H241572   1.746   5.919   2.625 -1.3036  0.6057  3.1267
 5793TIP3   OH241573   6.154   0.143   1.440 -0.2434 -0.2002  0.5234
 5793TIP3    H141574   6.223   0.182   1.387  0.8543 -2.3756  0.2332
 5793TIP3    H241575   6.073   0.183   1.409  0.8454  2.4968  0.9467
 5794TIP3   OH241576   5.985   0.900   3.267  0.3391  0.1623 -0.2244
 5794TIP3    H141577   6.023   0.952   3.338  0.2627  2.1469 -1.5715
 5794TIP3    H241578   6.003   0.950   3.188 -0.3108 -1.5853 -1.5373
 5795TIP3   OH241579   4.271   3.316   1.072  0.0964  0.1568 -0.6315
 5795TIP3    H141580   4.294   3.224   1.061 -0.5193 -0.0224 -0.4947
 5795TIP3    H241581   4.252   3.347   0.984 -2.2089 -0.5554 -0.4574
 5796TIP3   OH241582   4.146   1.364   3.712 -0.1992 -0.3449 -0.3244
 5796TIP3    H141583   4.197   1.439   3.742 -0.2698  0.2771 -1.6703
 5796TIP3    H241584   4.152   1.301   3.783  4.0316 -1.1219 -1.1133
 5797TIP3   OH241585   4.665   1.917   2.007  0.3765 -0.1154  0.8952
 5797TIP3    H141586   4.620   1.861   1.943  0.0531  0.8507  0.2531
 5797TIP3    H241587   4.615   1.999   2.006  2.0169  0.9354  0.2919
 5798TIP3   OH241588   2.590   3.253   3.176 -0.1352 -0.1866 -0.3408
 5798TIP3    H141589   2.654   3.263   3.246  0.2460 -0.9465 -0.5614
 5798TIP3    H241590   2.637   3.204   3.108 -0.6968 -0.0225 -0.8514
 5799TIP3   OH241591   4.074   5.467   3.064 -0.4234 -0.0216  0.2431
 5799TIP3    H141592   4.138   5.397   3.048 -0.0907  0.6220 -1.3187
 5799TIP3    H241593   3.994   5.437   3.021 -0.4555  0.2878  0.0854
 5800TIP3   OH241594   1.921   4.614   3.244 -0.4537  0.3045 -0.3276
 5800TIP3    H141595   1.987   4.558   3.286 -0.1762  0.0452 -1.1075
 5800TIP3    H241596   1.919   4.693   3.299 -2.3159 -1.2379  2.0336
 5801TIP3   OH241597   1.976   1.488   2.410  0.2505  0.0691 -0.3814
 5801TIP3    H141598   1.896   1.439   2.391  1.2827 -1.4495 -1.0552
 5801TIP3    H241599   1.985   1.482   2.505 -0.2587 -0.0493 -0.3358
 5802TIP3   OH241600   5.603   5.892   1.012  0.0321 -0.4521 -0.0866
 5802TIP3    H141601   5.670   5.913   0.948 -1.2400  1.6398 -0.8112
 5802TIP3    H241602   5.522   5.883   0.961 -0.7115 -0.3463  1.0322
 5803TIP3   OH241603   0.916   2.447   3.869 -0.2887 -0.1867 -0.0475
 5803TIP3    H141604   0.973   2.370   3.877 -0.1297 -0.3095 -1.9046
 5803TIP3    H241605   0.844   2.417   3.814 -0.9366  0.6371  0.3291
 5804TIP3   OH241606   0.653   1.474   1.197 -0.0374  0.3567 -0.2423
 5804TIP3    H141607   0.656   1.492   1.104  2.6218  1.1498 -0.0928
 5804TIP3    H241608   0.744   1.454   1.220 -0.7115 -0.3405  2.0842
 5805TIP3   OH241609   0.322   6.132   4.814 -0.0252 -0.3141  0.4626
 5805TIP3    H141610   0.409   6.170   4.804  1.2031 -2.5357  1.9180
 5805TIP3    H241611   0.294   6.111   4.725  1.2911 -0.2837  0.0226
 5806TIP3   OH241612   4.877   0.529   2.982  0.1343 -0.1316 -0.1976
 5806TIP3    H141613   4.923   0.530   2.898 -1.4775  1.9576 -1.1655
 5806TIP3    H241614   4.793   0.489   2.962  0.1933 -0.7181  0.7177
 5807TIP3   OH241615   0.349   2.872   2.350 -0.2164  0.4333 -0.2606
 5807TIP3    H141616   0.398   2.949   2.321  0.0842  0.2549 -0.2327
 5807TIP3    H241617   0.416   2.811   2.381 -0.3505 -0.3087 -1.3538
 5808TIP3   OH241618   2.207   4.322   3.701  0.2778 -0.3444 -0.1558
 5808TIP3    H141619   2.116   4.349   3.713 -0.1194 -1.5425 -0.3230
 5808TIP3    H241620   2.257   4.403   3.708 -0.9703  0.6756 -2.0682
 5809TIP3   OH241621   4.236   1.793   2.696 -0.0250  0.0919  0.0876
 5809TIP3    H141622   4.159   1.744   2.668  0.3087 -0.3525 -0.0726
 5809TIP3    H241623   4.215   1.885   2.678 -0.7628  0.0413  0.6333
 5810TIP3   OH241624   5.093   4.166   3.911 -0.2572 -0.2668  0.0863
 5810TIP3    H141625   5.137   4.158   3.996 -2.3372 -0.8613  1.1872
 5810TIP3    H241626   5.049   4.251   3.914 -0.1803 -0.2006 -0.4972
 5811TIP3   OH241627   0.571   2.738   2.056  0.6949 -0.3110 -0.3186
 5811TIP3    H141628   0.615   2.690   1.986  0.9680 -0.2510 -0.1903
 5811TIP3    H241629   0.488   2.691   2.069  1.3681 -1.3389  0.4554
 5812TIP3   OH241630   3.689   2.288   2.272 -0.2002 -0.2700  0.0990
 5812TIP3    H141631   3.630   2.315   2.343 -2.3483 -0.7097 -1.4445
 5812TIP3    H241632   3.723   2.203   2.300 -2.7312 -1.4893 -0.2723
 5813TIP3   OH241633   3.475   1.327   0.608  0.2002 -0.2290  0.1127
 5813TIP3    H141634   3.559   1.286   0.586 -0.8561 -1.5915 -1.7080
 5813TIP3    H241635   3.499   1.409   0.652  2.5228  0.2325 -1.8027
 5814TIP3   OH241636   0.594   5.945   3.717  0.4734 -0.1450  0.2324
 5814TIP3    H141637   0.549   5.906   3.792  1.6695 -0.8074  0.6422
 5814TIP3    H241638   0.651   5.875   3.685 -0.8230 -0.2460 -2.0183
 5815TIP3   OH241639   0.456   0.798   2.686  0.6735  0.4626  0.7781
 5815TIP3    H141640   0.501   0.880   2.705  0.6984  0.6763 -0.1350
 5815TIP3    H241641   0.526   0.736   2.664  0.6186  0.3562  0.9004
 5816TIP3   OH241642   6.173   1.520   3.609 -0.3938 -0.0867 -0.0286
 5816TIP3    H141643   6.166   1.612   3.634  0.6052 -0.2345  0.8725
 5816TIP3    H241644   6.171   1.472   3.692  1.6955 -0.6746 -0.2476
 5817TIP3   OH241645   1.271   6.410   2.062 -0.0667  0.3419  0.4511
 5817TIP3    H141646   1.314   6.462   2.130  0.7099  1.2125 -0.6746
 5817TIP3    H241647   1.229   6.475   2.005  1.2602 -0.1787 -1.2126
 5818TIP3   OH241648   3.646   6.371   2.752 -0.2296 -0.0462 -0.0874
 5818TIP3    H141649   3.552   6.357   2.756 -0.0738 -0.9800  0.6893
 5818TIP3    H241650   3.656   6.464   2.734 -1.2975  0.0377 -0.3033
 5819TIP3   OH241651   2.637   4.453   0.916  0.0010  0.6499  0.5384
 5819TIP3    H141652   2.550   4.490   0.932  0.1392  0.2911  2.4110
 5819TIP3    H241653   2.692   4.493   0.985  1.0081 -0.1409  0.2114
 5820TIP3   OH241654   2.157   4.716   2.174 -0.3105 -0.2782  0.0673
 5820TIP3    H141655   2.087   4.767   2.133 -0.0813 -1.1421 -1.4742
 5820TIP3    H241656   2.138   4.625   2.150  0.0962 -0.7829  1.5433
 5821TIP3   OH241657   1.387   4.949   2.040  0.5666 -0.1985  0.2689
 5821TIP3    H141658   1.433   4.865   2.040  0.7428 -0.1824 -2.3430
 5821TIP3    H241659   1.299   4.928   2.010  0.9219  0.6294 -1.4727
 5822TIP3   OH241660   4.607   0.062   3.429  0.2460 -0.2631  0.1190
 5822TIP3    H141661   4.663   0.092   3.501  0.8824 -2.8998  0.8033
 5822TIP3    H241662   4.658  -0.004   3.384 -0.5392  0.6310 -2.2333
 5823TIP3   OH241663   2.985   5.058   0.980 -0.0594  0.3688 -0.2984
 5823TIP3    H141664   2.966   4.969   0.951  0.6115  0.3249 -0.6215
 5823TIP3    H241665   2.907   5.108   0.956  0.3344  0.2658 -1.9062
 5824TIP3   OH241666   4.107   4.043   0.842 -0.0086  0.2350  0.3439
 5824TIP3    H141667   4.177   4.088   0.889  1.1331 -1.6242  0.5585
 5824TIP3    H241668   4.151   4.002   0.768 -0.8498 -0.9997  0.4964
 5825TIP3   OH241669   4.353   6.387   3.150  0.2346  0.0895 -0.0471
 5825TIP3    H141670   4.330   6.380   3.243 -0.6829  0.0580 -0.2675
 5825TIP3    H241671   4.439   6.345   3.144  0.0197 -0.4874  0.6771
 5826TIP3   OH241672   4.562   0.504   2.599  0.2015 -0.2485  0.0944
 5826TIP3    H141673   4.637   0.454   2.632 -0.0964 -0.6088  0.2308
 5826TIP3    H241674   4.502   0.437   2.567  2.1169  0.0676 -4.9988
 5827TIP3   OH241675   2.627   2.726   3.370  0.6041 -0.0729 -0.1483
 5827TIP3    H141676   2.608   2.665   3.441 -1.1173  0.3887 -0.1612
 5827TIP3    H241677   2.708   2.770   3.397  0.3116 -0.3296  1.2334
 5828TIP3   OH241678   1.127   4.263   1.037 -0.0015  0.0016 -0.0622
 5828TIP3    H141679   1.207   4.309   1.015  1.0206 -1.8720 -0.4842
 5828TIP3    H241680   1.097   4.224   0.955 -1.0943  0.2889  0.1790
 5829TIP3   OH241681   2.892   1.737   3.911  0.5803 -0.3426  0.1356
 5829TIP3    H141682   2.964   1.782   3.867 -0.2852  0.5131 -0.4433
 5829TIP3    H241683   2.833   1.808   3.938 -0.0792 -1.0360  0.5510
 5830TIP3   OH241684   6.557   1.611   0.748 -0.0993 -0.1312  0.1752
 5830TIP3    H141685   6.608   1.682   0.785 -0.2694 -0.6951  1.5500
 5830TIP3    H241686   6.468   1.646   0.743  0.1858  0.4888 -1.2492
 5831TIP3   OH241687   5.125   5.201   1.621 -0.5208 -0.0468  0.4753
 5831TIP3    H141688   5.129   5.145   1.698  1.2102  0.3830  0.7278
 5831TIP3    H241689   5.156   5.146   1.549  1.1925  0.5358  0.7255
 5832TIP3   OH241690   0.472   4.371   3.695  0.4195 -0.1346  0.2073
 5832TIP3    H141691   0.543   4.308   3.685  1.9090  1.5089 -0.0018
 5832TIP3    H241692   0.468   4.389   3.789 -1.0672 -1.6506  0.4826
 5833TIP3   OH241693   0.429   3.107   1.161 -0.0302  0.3437 -0.4524
 5833TIP3    H141694   0.384   3.170   1.105  0.0559 -0.9778 -2.0900
 5833TIP3    H241695   0.522   3.128   1.153 -0.0564  0.4743 -0.4062
 5834TIP3   OH241696   0.835   3.640   3.015 -0.5833 -0.4444 -0.0886
 5834TIP3    H141697   0.859   3.720   3.061 -1.0769  0.4004 -1.2580
 5834TIP3    H241698   0.885   3.571   3.059  1.1052  0.7221 -0.1050
 5835TIP3   OH241699   2.142   5.617   4.049  0.5559 -0.2138 -0.0878
 5835TIP3    H141700   2.201   5.691   4.040  0.0388  0.0267 -1.7741
 5835TIP3    H241701   2.187   5.544   4.007 -0.0254 -0.2115 -0.7247
 5836TIP3   OH241702   4.287   6.265   0.870  0.7184 -0.6972  0.3521
 5836TIP3    H141703   4.259   6.317   0.945  0.3606 -0.8332  0.3132
 5836TIP3    H241704   4.378   6.291   0.855  0.6926 -0.4448  0.6396
 5837TIP3   OH241705   5.381   1.863   0.925  0.1405  0.2117 -0.8377
 5837TIP3    H141706   5.296   1.885   0.887 -0.5932 -1.7813 -0.5081
 5837TIP3    H241707   5.443   1.867   0.853 -0.3123  1.2299 -1.1803
 5838TIP3   OH241708   1.844   1.060   0.945 -0.4854  0.5599 -0.6622
 5838TIP3    H141709   1.775   1.041   1.009  0.3155 -0.1733  0.0010
 5838TIP3    H241710   1.926   1.050   0.993  0.1363  0.0153 -1.7940
 5839TIP3   OH241711   6.035   3.028   0.664 -0.2057 -0.4301 -0.0562
 5839TIP3    H141712   6.039   3.119   0.635  1.5253 -0.3941  0.2079
 5839TIP3    H241713   6.126   2.999   0.665 -0.6463 -1.8789  0.7964
 5840TIP3   OH241714   1.444   2.856   3.299  0.0725 -0.1574 -0.3174
 5840TIP3    H141715   1.535   2.848   3.326 -0.1921 -2.0676  0.1275
 5840TIP3    H241716   1.446   2.848   3.204  0.5959  2.6347 -0.6340
 5841TIP3   OH241717   2.166   6.263   2.328  0.6331 -0.6954 -0.0240
 5841TIP3    H141718   2.184   6.355   2.349 -0.8324 -0.2277 -0.7243
 5841TIP3    H241719   2.071   6.255   2.330  0.6461 -1.7987 -1.5620
 5842TIP3   OH241720   5.759   4.974   1.840 -0.3300  0.4159 -0.0708
 5842TIP3    H141721   5.832   5.015   1.886  1.0067  0.9553 -2.5291
 5842TIP3    H241722   5.723   5.043   1.784 -0.4364 -0.7570 -1.5146
 5843TIP3   OH241723   4.342   6.069   1.688  0.0754  0.0005 -0.0804
 5843TIP3    H141724   4.293   6.065   1.606  0.9809 -0.5354 -0.6207
 5843TIP3    H241725   4.346   5.978   1.718 -0.2562  0.1935  0.5668
 5844TIP3   OH241726   0.289   0.799   1.006  0.0090  0.2937 -0.2602
 5844TIP3    H141727   0.308   0.891   1.026  1.1402  0.0304 -0.0704
 5844TIP3    H241728   0.209   0.780   1.055  0.4104  0.8531  0.6340
 5845TIP3   OH241729   2.567   6.037   2.755  0.2008  0.4441 -0.2678
 5845TIP3    H141730   2.621   5.960   2.774 -1.0094 -0.1679  0.8022
 5845TIP3    H241731   2.559   6.038   2.660  0.0418 -0.8934 -0.2841
 5846TIP3   OH241732   1.711   1.943   0.924 -0.4509  0.8441 -0.0838
 5846TIP3    H141733   1.683   1.861   0.883  0.6964  0.8638 -0.9598
 5846TIP3    H241734   1.798   1.925   0.959 -0.7689  1.2909  0.9820
 5847TIP3   OH241735   1.819   3.820   0.715 -0.2544 -0.3396  0.0668
 5847TIP3    H141736   1.795   3.728   0.725 -1.7007 -0.2316 -1.8450
 5847TIP3    H241737   1.846   3.828   0.624 -1.0323  1.2970 -0.0580
 5848TIP3   OH241738   0.968   3.048   1.475 -0.2596 -0.3471 -0.4767
 5848TIP3    H141739   1.013   2.991   1.413  1.3507 -2.0806  2.0909
 5848TIP3    H241740   1.039   3.088   1.526 -1.5017  1.0706  0.2005
 5849TIP3   OH241741   0.803   5.157   0.600 -0.4733  0.2123  0.5388
 5849TIP3    H141742   0.710   5.137   0.598 -1.1849  2.9521  1.4319
 5849TIP3    H241743   0.817   5.214   0.525 -0.2387  2.2490  2.0430
 5850TIP3   OH241744   3.198   0.445   0.987  0.0390 -0.2864 -0.2287
 5850TIP3    H141745   3.265   0.449   1.056 -0.0584  1.8810 -0.1927
 5850TIP3    H241746   3.246   0.461   0.906 -0.3038  0.6154 -0.2699
 5851TIP3   OH241747   5.025   6.088   0.826 -0.2350 -0.0442 -0.0059
 5851TIP3    H141748   4.970   6.167   0.829 -0.1017  0.1215 -1.2743
 5851TIP3    H241749   4.976   6.023   0.876  0.3698  1.2345  2.4268
 5852TIP3   OH241750   4.627   4.400   3.326 -0.1985  0.9690 -0.1889
 5852TIP3    H141751   4.583   4.403   3.411 -1.7671 -0.3448 -0.8916
 5852TIP3    H241752   4.569   4.447   3.266  0.0295  0.4103 -0.8687
 5853TIP3   OH241753   6.244   5.597   1.625  0.6656  0.1251  0.8617
 5853TIP3    H141754   6.238   5.566   1.716 -0.8962  1.3600  1.2351
 5853TIP3    H241755   6.235   5.692   1.631 -1.2114  0.1159 -0.6700
 5854TIP3   OH241756   0.636   5.632   2.662 -0.2358 -0.5086 -0.0811
 5854TIP3    H141757   0.591   5.648   2.745 -0.6404  1.3556 -0.6028
 5854TIP3    H241758   0.718   5.681   2.669 -0.4057 -0.0850 -0.8637
 5855TIP3   OH241759   0.019   3.204   3.451 -0.0839 -0.0331  0.2213
 5855TIP3    H141760   0.057   3.288   3.478  1.0443 -0.5072  0.1335
 5855TIP3    H241761  -0.045   3.228   3.383  0.2325  0.7514  0.1889
 5856TIP3   OH241762   3.288   4.040   1.829  0.0163 -0.0276  0.4704
 5856TIP3    H141763   3.319   4.111   1.772  0.6143  0.0176  0.8513
 5856TIP3    H241764   3.194   4.058   1.840 -0.4209 -0.7764 -1.5641
 5857TIP3   OH241765   4.246   1.930   0.813  0.2558  0.3325  0.4900
 5857TIP3    H141766   4.253   1.835   0.820  0.5865  0.2707 -0.5654
 5857TIP3    H241767   4.152   1.947   0.807  0.1846  0.0978  0.8926
 5858TIP3   OH241768   1.116   5.512   0.835 -0.2782 -0.3830 -0.7487
 5858TIP3    H141769   1.166   5.474   0.907 -0.1938 -0.7860 -1.0172
 5858TIP3    H241770   1.141   5.605   0.836  0.2909 -0.5271 -0.7165
 5859TIP3   OH241771   6.125   1.588   3.204  0.1292 -0.4109  0.0154
 5859TIP3    H141772   6.155   1.666   3.158  0.9152 -0.7313 -0.0200
 5859TIP3    H241773   6.059   1.621   3.266 -3.5856 -0.3356 -3.5290
 5860TIP3   OH241774   3.004   3.454   3.710 -0.1959 -0.2631  0.0835
 5860TIP3    H141775   2.974   3.363   3.704 -0.3485 -0.3288  1.5158
 5860TIP3    H241776   3.099   3.449   3.697 -0.3447 -0.4744 -0.9913
 5861TIP3   OH241777   5.487   2.325   2.416  0.4572 -0.6055  0.2415
 5861TIP3    H141778   5.527   2.412   2.421 -0.4915 -0.1627  0.3916
 5861TIP3    H241779   5.476   2.309   2.322  1.9787 -1.2198  0.1396
 5862TIP3   OH241780   3.942   6.437   3.968 -0.0886 -0.0156 -0.6207
 5862TIP3    H141781   3.994   6.357   3.957 -1.6147 -0.8752 -2.0907
 5862TIP3    H241782   3.939   6.450   4.062  0.4296 -1.5490 -0.3533
 5863TIP3   OH241783   1.918   5.776   0.750  0.2397  0.1147  0.2524
 5863TIP3    H141784   1.931   5.867   0.776  0.8531  0.5617 -1.4707
 5863TIP3    H241785   1.961   5.725   0.819 -0.5608  1.0790  1.5123
 5864TIP3   OH241786   2.585   2.015   2.862 -0.8692  0.1969 -0.4141
 5864TIP3    H141787   2.508   1.983   2.908 -1.7607 -0.0960 -2.0172
 5864TIP3    H241788   2.588   1.962   2.782  1.4806 -0.3487 -0.0251
 5865TIP3   OH241789   0.318   5.393   0.557  0.2852 -0.5010 -0.1081
 5865TIP3    H141790   0.279   5.477   0.579  0.2517 -0.9095  1.5162
 5865TIP3    H241791   0.413   5.410   0.556  0.3542 -0.6727  1.4206
 5866TIP3   OH241792   3.661   3.521   1.632  0.3123  0.0481 -0.1698
 5866TIP3    H141793   3.729   3.468   1.590  0.9780 -0.8168  1.8635
 5866TIP3    H241794   3.708   3.568   1.701 -0.9938  0.1831  0.6453
 5867TIP3   OH241795   1.809   0.077   3.288 -0.7907  0.9061 -0.5683
 5867TIP3    H141796   1.776   0.130   3.361 -0.2578  1.3037 -0.6100
 5867TIP3    H241797   1.733   0.026   3.260 -1.5392  2.2240 -1.0454
 5868TIP3   OH241798   1.318   5.546   3.561  0.1445 -0.0915 -0.4823
 5868TIP3    H141799   1.238   5.543   3.508 -0.3419  0.2893  0.2158
 5868TIP3    H241800   1.344   5.638   3.559 -0.0895 -0.0063  0.2414
 5869TIP3   OH241801   0.301   4.481   1.546  0.4685 -0.2330  0.0288
 5869TIP3    H141802   0.380   4.501   1.495 -0.3381 -1.2458 -1.6751
 5869TIP3    H241803   0.290   4.557   1.603  0.8859  1.4285 -1.9820
 5870TIP3   OH241804   1.486   4.638   2.565  0.7200  0.0443  0.4614
 5870TIP3    H141805   1.396   4.636   2.532  0.7694  1.9524  0.0924
 5870TIP3    H241806   1.494   4.559   2.618 -0.0944 -1.9785 -2.1792
 5871TIP3   OH241807   4.697   0.292   1.182 -0.5209  0.3377  0.3995
 5871TIP3    H141808   4.632   0.230   1.148 -0.8044  1.1622 -0.6184
 5871TIP3    H241809   4.667   0.313   1.270 -2.1610  1.3599 -0.3409
 5872TIP3   OH241810   5.055   3.022   2.419  0.1860  0.6428 -0.5818
 5872TIP3    H141811   5.097   3.099   2.380  1.5669  1.7772  2.8114
 5872TIP3    H241812   4.962   3.044   2.422  0.3519  1.4802 -1.1230
 5873TIP3   OH241813   4.686   5.835   2.108 -0.5185  0.1557 -0.4813
 5873TIP3    H141814   4.593   5.833   2.129 -0.2431 -0.4072  0.8316
 5873TIP3    H241815   4.701   5.760   2.052 -0.6820 -0.3764  0.1756
 5874TIP3   OH241816   4.806   3.113   2.469 -0.5179 -0.3227  0.4580
 5874TIP3    H141817   4.718   3.119   2.506 -0.6529  1.4196 -0.0591
 5874TIP3    H241818   4.847   3.197   2.491  0.4431 -0.4659 -0.6980
 5875TIP3   OH241819   3.442   3.591   0.943  0.1486 -0.2099  0.0229
 5875TIP3    H141820   3.494   3.575   1.022  0.4065  0.2081 -0.0572
 5875TIP3    H241821   3.416   3.683   0.949  2.2759  0.5877 -1.5682
 5876TIP3   OH241822   6.543   4.389   4.370 -0.1410  0.1199  0.5373
 5876TIP3    H141823   6.487   4.312   4.366 -1.5912  1.0767  1.5556
 5876TIP3    H241824   6.483   4.463   4.365  1.2679  1.2205 -1.0930
 5877TIP3   OH241825   3.794   1.825   0.837  0.5955 -0.5543  0.1521
 5877TIP3    H141826   3.874   1.877   0.832 -0.7762  1.6750 -0.3600
 5877TIP3    H241827   3.778   1.815   0.931  0.8351  0.0708  0.2674
 5878TIP3   OH241828   5.534   4.932   3.465  0.1728  0.0078  0.0123
 5878TIP3    H141829   5.494   4.957   3.548  0.1842 -2.2639  0.7515
 5878TIP3    H241830   5.546   4.838   3.471 -0.6921 -0.3905 -2.9451
 5879TIP3   OH241831   3.003   1.397   2.856 -0.9974  0.0726 -0.4095
 5879TIP3    H141832   3.081   1.354   2.893 -1.6519  0.6540  1.7827
 5879TIP3    H241833   3.038   1.458   2.792  0.2368 -0.7703 -0.5781
 5880TIP3   OH241834   5.101   4.428   0.758 -0.2394  0.3475  0.0429
 5880TIP3    H141835   5.191   4.457   0.772 -0.8120  1.3564  1.9101
 5880TIP3    H241836   5.057   4.504   0.720 -0.6778  0.4001  0.6505
 5881TIP3   OH241837   4.460   5.966   2.960 -0.0619 -0.1949  0.1978
 5881TIP3    H141838   4.440   5.906   3.031 -1.4103  0.4918  0.4455
 5881TIP3    H241839   4.476   6.050   3.003  0.8120 -0.1513 -0.2035
 5882TIP3   OH241840   0.143   1.990   1.664  0.4172  0.0110  0.3191
 5882TIP3    H141841   0.155   1.906   1.620  0.3295 -0.1938  0.6763
 5882TIP3    H241842   0.082   1.971   1.736 -1.4588  0.8524 -0.9713
 5883TIP3   OH241843   2.217   1.877   3.423  0.0114 -0.2020 -0.2003
 5883TIP3    H141844   2.125   1.856   3.441 -0.3307  0.6911 -0.7915
 5883TIP3    H241845   2.252   1.906   3.507  0.1897 -1.9877  0.3727
 5884TIP3   OH241846   2.340   3.704   0.914  0.3207 -0.5017  0.3370
 5884TIP3    H141847   2.392   3.685   0.992  1.2192  0.9456  0.1401
 5884TIP3    H241848   2.404   3.733   0.849 -0.4542 -1.3289 -0.8319
 5885TIP3   OH241849   2.651   4.044   1.540 -0.3497 -0.6549 -0.1651
 5885TIP3    H141850   2.609   4.104   1.601 -0.0618 -0.5279 -0.0925
 5885TIP3    H241851   2.702   4.100   1.482  0.3747 -0.8745  0.2565
 5886TIP3   OH241852   5.100   4.710   0.718  0.4003 -0.3389  0.5789
 5886TIP3    H141853   5.071   4.727   0.808 -1.8060  0.1864 -0.1715
 5886TIP3    H241854   5.098   4.795   0.675  0.3085 -0.7523 -0.2588
 5887TIP3   OH241855   4.945   0.011   3.314  0.4681 -0.3143  0.1543
 5887TIP3    H141856   4.866  -0.040   3.294 -0.3742  1.2353 -0.6803
 5887TIP3    H241857   4.981  -0.029   3.393 -2.2986  0.1597  1.7898
 5888TIP3   OH241858   0.741   1.956   3.176  0.3605 -0.4150  0.0954
 5888TIP3    H141859   0.805   1.991   3.114 -0.3228 -1.4072 -1.2185
 5888TIP3    H241860   0.677   2.027   3.187 -0.7707 -0.9935 -2.1956
 5889TIP3   OH241861   0.747   2.955   2.031 -0.2311  0.1954 -0.2058
 5889TIP3    H141862   0.666   2.904   2.023 -0.1363  0.0258 -0.0996
 5889TIP3    H241863   0.813   2.891   2.058 -0.4556  0.6423  1.5690
 5890TIP3   OH241864   5.862   1.429   2.886  0.2745 -0.2416  0.0552
 5890TIP3    H141865   5.926   1.391   2.826  2.4505 -0.2534  2.2127
 5890TIP3    H241866   5.872   1.524   2.876  1.9222 -0.2132  1.5603
 5891TIP3   OH241867   4.085   1.960   3.519  0.4316  0.6168 -0.1108
 5891TIP3    H141868   4.108   1.878   3.563  2.8708  1.8445  1.0623
 5891TIP3    H241869   4.044   1.931   3.437  0.5702 -1.7663  0.5697
 5892TIP3   OH241870   4.199   2.060   0.452 -0.1413 -0.1357 -0.0387
 5892TIP3    H141871   4.229   2.041   0.364  0.0724  1.5819 -0.3820
 5892TIP3    H241872   4.269   2.029   0.510 -0.7227 -2.1801 -0.3692
 5893TIP3   OH241873   5.299   2.686   1.281 -0.1139 -0.1997 -0.0972
 5893TIP3    H141874   5.267   2.680   1.371  0.2214  0.7548  0.0958
 5893TIP3    H241875   5.387   2.650   1.284  0.8702  2.0816  0.5042
 5894TIP3   OH241876   1.827   3.543   0.718  0.6995  0.5256 -0.2245
 5894TIP3    H141877   1.852   3.471   0.661 -1.7254 -0.8562  0.2947
 5894TIP3    H241878   1.876   3.528   0.799  0.9256  0.0112 -0.4540
 5895TIP3   OH241879   1.327   4.277   2.926 -0.3959 -0.1896  0.7383
 5895TIP3    H141880   1.267   4.249   2.995 -0.9666 -1.9435 -0.4301
 5895TIP3    H241881   1.380   4.200   2.906  0.5479  0.6157 -0.0043
 5896TIP3   OH241882   5.652   6.484   1.011  0.1942 -0.2734  0.2313
 5896TIP3    H141883   5.728   6.471   1.067  1.2806  0.1086 -1.0970
 5896TIP3    H241884   5.633   6.398   0.974  0.6482 -0.1689 -0.2505
 5897TIP3   OH241885   4.902   0.251   0.318 -0.6608  0.4027 -0.4707
 5897TIP3    H141886   4.817   0.290   0.338  0.3406  2.7359 -0.3839
 5897TIP3    H241887   4.960   0.326   0.308  1.4282 -1.1267 -0.3921
 5898TIP3   OH241888   3.732   1.636   2.240 -0.1283 -0.1982  0.3757
 5898TIP3    H141889   3.673   1.689   2.187 -0.4917 -1.1358 -0.1780
 5898TIP3    H241890   3.750   1.559   2.186  0.8990 -0.3449  0.9006
 5899TIP3   OH241891   5.247   1.032   3.447 -0.4755 -0.1444 -0.0168
 5899TIP3    H141892   5.259   0.942   3.416 -1.1561 -1.5197  3.3471
 5899TIP3    H241893   5.155   1.037   3.471 -0.1090  0.9260  1.2782
 5900TIP3   OH241894   2.610   4.382   3.896  0.0834 -0.2388 -0.2322
 5900TIP3    H141895   2.648   4.401   3.982  0.6833 -0.8569 -0.3517
 5900TIP3    H241896   2.586   4.468   3.861  0.0484  0.0406  0.4497
 5901TIP3   OH241897   2.278   4.321   0.973 -0.1823  0.3450 -0.2387
 5901TIP3    H141898   2.354   4.356   1.020  0.4398  0.9268 -1.6253
 5901TIP3    H241899   2.205   4.376   1.001 -0.2826 -0.6581  1.6446
 5902TIP3   OH241900   1.446   5.909   2.551 -0.0222  0.1863  0.1853
 5902TIP3    H141901   1.359   5.947   2.543  0.5772  1.6488  0.3392
 5902TIP3    H241902   1.434   5.832   2.607 -1.3779 -0.2811 -0.7067
 5903TIP3   OH241903   1.639   0.854   3.001 -0.3028 -0.1411  0.0529
 5903TIP3    H141904   1.624   0.935   3.049 -0.3430  0.4307 -0.9060
 5903TIP3    H241905   1.557   0.805   3.010 -0.6391  0.3647 -0.1952
 5904TIP3   OH241906   5.771   0.176   1.753  0.1501 -0.1480  0.0009
 5904TIP3    H141907   5.735   0.089   1.734 -1.1519  0.4336 -0.2951
 5904TIP3    H241908   5.703   0.237   1.724 -0.2663  0.9125  2.8591
 5905TIP3   OH241909   3.348   0.805   3.204  0.6261  0.5467  0.5407
 5905TIP3    H141910   3.303   0.773   3.282 -0.6477  0.5625 -0.1637
 5905TIP3    H241911   3.342   0.900   3.210  1.3715  0.5818  0.8864
 5906TIP3   OH241912   4.453   4.347   2.087  0.1219  0.5518  0.3954
 5906TIP3    H141913   4.372   4.396   2.095  0.7055  1.8996 -1.1354
 5906TIP3    H241914   4.429   4.268   2.038 -0.3883  0.5889  0.5845
 5907TIP3   OH241915   6.336   1.947   3.753 -0.0147  0.5660  0.4796
 5907TIP3    H141916   6.430   1.956   3.741  0.1835 -2.5726 -1.4402
 5907TIP3    H241917   6.298   1.977   3.671 -0.3395 -1.3945 -0.1433
 5908TIP3   OH241918   3.582   0.311   1.312 -0.2302 -0.2375  0.1550
 5908TIP3    H141919   3.533   0.236   1.278  2.5268 -1.4322 -1.4359
 5908TIP3    H241920   3.515   0.363   1.358 -3.0761 -1.4874 -2.2170
 5909TIP3   OH241921   5.663   3.254   2.983 -0.1340 -0.0254  0.4763
 5909TIP3    H141922   5.652   3.206   3.065 -2.3903 -2.2778 -0.9971
 5909TIP3    H241923   5.709   3.192   2.926  1.2159  1.4295 -0.0952
 5910TIP3   OH241924   1.693   2.166   0.792 -0.1391  0.1512  0.5093
 5910TIP3    H141925   1.693   2.088   0.847  1.6304  1.1463  1.9988
 5910TIP3    H241926   1.613   2.213   0.817 -0.1468 -0.1691  1.0932
 5911TIP3   OH241927   6.591   5.753   4.293  0.0432  0.2053 -0.3196
 5911TIP3    H141928   6.522   5.803   4.250 -1.2834 -0.5162  0.8804
 5911TIP3    H241929   6.653   5.819   4.322 -0.9420  1.0442 -0.0538
 5912TIP3   OH241930   5.741   2.250   1.446  0.0028 -0.1131 -0.0504
 5912TIP3    H141931   5.655   2.249   1.487 -0.1769 -0.6402 -0.4369
 5912TIP3    H241932   5.770   2.159   1.449  1.2585  0.2818  1.5559
 5913TIP3   OH241933   2.062   0.805   1.769 -0.6645  0.2360  0.0923
 5913TIP3    H141934   2.046   0.731   1.828 -0.9277  1.2820  1.3960
 5913TIP3    H241935   2.023   0.879   1.814 -0.4028  1.1712 -1.1881
 5914TIP3   OH241936   1.398   1.150   0.556 -0.1655  0.4807  0.4916
 5914TIP3    H141937   1.352   1.149   0.473  1.0707 -0.0883 -0.2169
 5914TIP3    H241938   1.409   1.242   0.577  1.0384  0.6815 -0.8736
 5915TIP3   OH241939   6.172   3.495   1.376 -0.0674  0.5301  0.5446
 5915TIP3    H141940   6.169   3.402   1.355 -1.3718  0.8226 -0.7105
 5915TIP3    H241941   6.157   3.499   1.471  0.3285 -0.5512  0.6568
 5916TIP3   OH241942   5.181   5.594   1.801 -0.7860  0.1132 -0.2306
 5916TIP3    H141943   5.207   5.591   1.709  0.4014 -0.2568  0.1026
 5916TIP3    H241944   5.224   5.518   1.841 -1.9428 -0.1934  0.4764
 5917TIP3   OH241945   0.139   5.554   4.181  0.4629  0.8409 -0.7320
 5917TIP3    H141946   0.084   5.478   4.198  2.0554 -0.0223  0.8852
 5917TIP3    H241947   0.084   5.629   4.199 -0.2275  0.0085  0.7489
 5918TIP3   OH241948   4.831   4.653   1.332  0.5391  0.5336  0.2230
 5918TIP3    H141949   4.744   4.615   1.320  1.6530 -1.8278 -1.0695
 5918TIP3    H241950   4.814   4.745   1.354 -2.3138 -0.3385  2.3642
 5919TIP3   OH241951   0.516   6.300   2.547  0.6340  0.3817 -0.7842
 5919TIP3    H141952   0.556   6.261   2.469 -0.3836  1.4938 -1.9108
 5919TIP3    H241953   0.445   6.241   2.570  1.1206 -0.1049 -0.5071
 5920TIP3   OH241954   5.340   0.186   3.235 -0.0117  0.2282  0.1316
 5920TIP3    H141955   5.261   0.199   3.287 -0.4406  0.4765 -0.5615
 5920TIP3    H241956   5.364   0.274   3.206 -0.2995  0.0041 -0.8192
 5921TIP3   OH241957   6.260   6.552   2.963 -0.3546 -0.6379  0.1217
 5921TIP3    H141958   6.200   6.592   3.026  1.4224 -1.2756  2.3926
 5921TIP3    H241959   6.243   6.458   2.970 -0.2758 -0.7051 -0.5266
 5922TIP3   OH241960   4.935   5.454   0.902  0.1865  0.1130 -0.1710
 5922TIP3    H141961   4.955   5.419   0.988 -1.4098  0.8311  0.5443
 5922TIP3    H241962   4.856   5.508   0.916 -0.6716 -0.5053 -2.2233
 5923TIP3   OH241963   2.911   5.966   1.005  0.7424  0.1014  0.3396
 5923TIP3    H141964   2.849   5.982   1.076  1.0404  1.8952  0.2401
 5923TIP3    H241965   2.891   6.033   0.940 -0.4325 -2.3219 -1.9665
 5924TIP3   OH241966   4.754   3.425   0.595 -0.1010 -0.1535  0.1082
 5924TIP3    H141967   4.750   3.329   0.601 -0.1262 -0.1553  0.0588
 5924TIP3    H241968   4.843   3.443   0.565 -0.1840 -0.1755 -0.1612
 5925TIP3   OH241969   6.035   6.459   4.284  0.3427  0.5688 -0.0294
 5925TIP3    H141970   5.989   6.378   4.307 -1.3009  1.4308 -0.1358
 5925TIP3    H241971   6.064   6.445   4.194  0.7482 -0.1758  0.2022
 5926TIP3   OH241972   0.711   3.106   1.402  0.1180  0.6671 -0.2646
 5926TIP3    H141973   0.711   3.058   1.319 -0.4987 -0.6793  0.4860
 5926TIP3    H241974   0.790   3.076   1.447  0.4467  1.3892 -0.3356
 5927TIP3   OH241975   0.504   6.009   1.709 -0.3103  0.3107 -0.2021
 5927TIP3    H141976   0.485   6.012   1.615 -0.2090 -0.2013 -0.2414
 5927TIP3    H241977   0.502   6.100   1.737 -2.6214  0.3108 -0.2313
 5928TIP3   OH241978   1.002   5.445   2.533  0.4259  0.1918  0.3516
 5928TIP3    H141979   1.044   5.373   2.485  1.4129  0.9382  0.0588
 5928TIP3    H241980   1.035   5.436   2.623  0.8794  0.5174  0.2207
 5929TIP3   OH241981   5.735   4.061   2.259  0.4410  0.1195  0.2044
 5929TIP3    H141982   5.807   4.019   2.211 -0.2762 -1.8052  0.7110
 5929TIP3    H241983   5.709   3.996   2.325  0.1508  1.9444  1.9626
 5930TIP3   OH241984   6.071   2.920   3.812  0.0703  0.2276 -0.4957
 5930TIP3    H141985   6.078   2.986   3.743  0.3772 -0.4055 -1.0773
 5930TIP3    H241986   5.981   2.888   3.806 -0.1057  0.6476 -0.1544
 5931TIP3   OH241987   3.850   5.077   3.000 -0.4100  0.5407 -0.3837
 5931TIP3    H141988   3.926   5.131   3.021 -0.6982  1.4092 -1.4156
 5931TIP3    H241989   3.868   4.992   3.038  0.3349  1.2068  0.7924
 5932TIP3   OH241990   1.088   1.105   1.660  0.3974 -0.3398  0.1612
 5932TIP3    H141991   1.015   1.136   1.714  1.3757  0.3429  1.1309
 5932TIP3    H241992   1.144   1.056   1.720  0.7133 -0.9033 -0.5803
 5933TIP3   OH241993   1.108   5.142   3.330  0.5258  0.5132  0.6635
 5933TIP3    H141994   1.134   5.054   3.302 -0.5949  0.4236 -0.1871
 5933TIP3    H241995   1.051   5.128   3.405  0.3541  0.5101  0.5332
 5934TIP3   OH241996   1.047   3.994   3.247 -0.1243 -0.2615  0.1415
 5934TIP3    H141997   1.043   3.933   3.321 -0.7401  0.1694  0.4632
 5934TIP3    H241998   0.983   3.961   3.185  0.7414 -0.9128 -0.4384
 5935TIP3   OH241999   1.539   6.469   3.896 -0.1834 -0.3471 -0.6011
 5935TIP3    H142000   1.564   6.431   3.981 -1.3270  0.8033  0.2894
 5935TIP3    H242001   1.622   6.495   3.856  0.2885  0.7920  1.0102
 5936TIP3   OH242002   2.322   3.787   1.957 -0.0688 -0.7634 -0.0796
 5936TIP3    H142003   2.261   3.794   2.030  0.8232  0.6270  0.5937
 5936TIP3    H242004   2.319   3.873   1.915  0.3965 -1.1275 -0.8801
 5937TIP3   OH242005   2.234   1.186   3.836  0.0972  0.6513  0.2514
 5937TIP3    H142006   2.188   1.106   3.864  2.1220 -0.0423  1.8789
 5937TIP3    H242007   2.244   1.237   3.916 -0.7235  2.3579 -0.6895
 5938TIP3   OH242008   1.179   2.963   1.045 -1.2263  0.4504  0.0810
 5938TIP3    H142009   1.189   2.979   0.951  2.0149 -0.1663  0.2196
 5938TIP3    H242010   1.225   3.036   1.086 -0.0196 -0.8330  1.0769
 5939TIP3   OH242011   1.703   5.444   1.991  0.8035 -0.2009  0.1563
 5939TIP3    H142012   1.685   5.405   1.905  1.4872 -1.2595  0.4734
 5939TIP3    H242013   1.707   5.369   2.050  2.0120  0.3704  0.8227
 5940TIP3   OH242014   0.421   5.092   3.299  0.3244 -0.1295  0.3311
 5940TIP3    H142015   0.404   5.117   3.208 -0.2471  1.3437  0.8026
 5940TIP3    H242016   0.445   5.174   3.342  1.0353 -0.8773  1.4247
 5941TIP3   OH242017   6.607   4.199   2.254 -0.1303 -0.2696  0.1699
 5941TIP3    H142018   6.533   4.166   2.306  0.2802  0.4587  1.2558
 5941TIP3    H242019   6.587   4.172   2.164 -1.6969 -0.1281  0.4439
 5942TIP3   OH242020   1.748   5.818   3.162 -0.1554  0.0195 -0.5704
 5942TIP3    H142021   1.835   5.792   3.190 -0.3946  0.3108  0.4879
 5942TIP3    H242022   1.705   5.736   3.136 -0.4875 -0.5218  1.5489
 5943TIP3   OH242023   4.435   1.094   3.192 -0.0929 -0.1582  0.1882
 5943TIP3    H142024   4.438   1.035   3.267 -1.4724 -0.2946  0.1608
 5943TIP3    H242025   4.428   1.036   3.116  1.2249 -0.0208 -0.0623
 5944TIP3   OH242026   6.478   1.747   3.178  0.2986 -0.3953 -0.5168
 5944TIP3    H142027   6.569   1.722   3.194  1.5193  4.3860  2.2302
 5944TIP3    H242028   6.472   1.761   3.084  2.4092 -0.8764 -0.7642
 5945TIP3   OH242029   5.112   2.182   2.045 -0.1948  0.1310  0.4477
 5945TIP3    H142030   5.034   2.172   1.990 -0.1466  0.5396  0.3046
 5945TIP3    H242031   5.177   2.126   2.004  0.3098  1.5755 -0.7996
 5946TIP3   OH242032   6.409   5.294   4.809 -0.1614  0.7875 -0.2489
 5946TIP3    H142033   6.340   5.228   4.797 -1.2668  1.9510 -0.5112
 5946TIP3    H242034   6.383   5.365   4.751  1.8850  0.8065 -1.2209
 5947TIP3   OH242035   1.819   6.534   1.442 -0.0833 -0.0542 -0.3257
 5947TIP3    H142036   1.742   6.479   1.433 -1.2689  1.0314  2.1945
 5947TIP3    H242037   1.838   6.534   1.536  3.0597 -0.3191 -0.8465
 5948TIP3   OH242038   1.031   6.253   3.417 -0.2663  0.6095  0.2351
 5948TIP3    H142039   1.119   6.257   3.380 -0.4878 -0.9461 -0.5463
 5948TIP3    H242040   0.974   6.288   3.348 -0.4035  0.2643  0.1721
 5949TIP3   OH242041   2.270   1.248   2.615  0.5900  0.5337  0.0986
 5949TIP3    H142042   2.348   1.194   2.628  1.9889  2.5615  0.6044
 5949TIP3    H242043   2.222   1.241   2.697  0.5995 -0.1661  0.0513
 5950TIP3   OH242044   5.977   4.005   1.230  0.0477 -1.0013 -0.0491
 5950TIP3    H142045   5.993   4.083   1.177 -0.7333 -2.3565 -2.4412
 5950TIP3    H242046   6.058   3.954   1.225  0.9779  0.0454  2.4467
 5951TIP3   OH242047   2.813   2.830   1.874  1.2087  0.3673  0.7463
 5951TIP3    H142048   2.855   2.781   1.944  0.6572 -0.6074  0.4222
 5951TIP3    H242049   2.741   2.877   1.917  2.2850  1.6485  1.2133
 5952TIP3   OH242050   0.370   6.393   0.790 -0.4015  0.2369  0.5777
 5952TIP3    H142051   0.396   6.485   0.798  0.6201 -0.0983  1.3793
 5952TIP3    H242052   0.347   6.382   0.698  0.9175  0.9302  0.1502
 5953TIP3   OH242053   0.062   1.094   3.117 -0.7055 -0.2547 -0.0063
 5953TIP3    H142054   0.119   1.170   3.106 -1.0326  0.1622  1.0200
 5953TIP3    H242055   0.038   1.068   3.028  0.6486 -0.1180 -0.4458
 5954TIP3   OH242056   0.765   0.071   4.239 -0.0910  0.6905 -0.8676
 5954TIP3    H142057   0.682   0.109   4.208 -0.1880  0.4609 -0.8945
 5954TIP3    H242058   0.739   0.014   4.311  0.0344  0.5496 -0.9347
 5955TIP3   OH242059   4.964   3.119   3.406  0.2736  0.0915 -0.4079
 5955TIP3    H142060   4.933   3.207   3.427  0.4722 -0.0145  0.3261
 5955TIP3    H242061   4.971   3.119   3.310 -0.9887  0.4516 -0.5187
 5956TIP3   OH242062   1.369   2.610   9.080  0.1627  0.2541 -0.0858
 5956TIP3    H142063   1.343   2.594   9.171  0.3515 -0.8309 -0.2071
 5956TIP3    H242064   1.345   2.529   9.034  1.1256  0.3399 -0.7662
 5957TIP3   OH242065   3.069   4.830   3.838 -0.2651  0.1095  0.0162
 5957TIP3    H142066   3.069   4.925   3.838  1.1292  0.1560 -1.5010
 5957TIP3    H242067   2.978   4.805   3.821 -0.5007  1.1827 -0.3405
 5958TIP3   OH242068   1.845   3.805   3.047  0.3034 -0.2305 -0.1614
 5958TIP3    H142069   1.755   3.794   3.015 -0.0086  0.5903  0.4016
 5958TIP3    H242070   1.879   3.715   3.051 -0.6185 -0.5930 -0.0258
 5959TIP3   OH242071   5.879   2.807   1.233 -0.0528 -0.2215  0.5080
 5959TIP3    H142072   5.818   2.841   1.299 -0.4442 -0.1025  0.0929
 5959TIP3    H242073   5.960   2.791   1.281 -0.1707  0.3555  0.9148
 5960TIP3   OH242074   2.191   2.209   2.423  0.1617 -0.5622 -0.3863
 5960TIP3    H142075   2.124   2.141   2.415 -0.3548 -0.0431 -0.6016
 5960TIP3    H242076   2.241   2.185   2.501  0.2003 -1.3704 -0.6586
 5961TIP3   OH242077   0.749   0.298   2.266  0.3638 -0.7095 -0.0513
 5961TIP3    H142078   0.654   0.294   2.271  0.2653  0.4236 -0.8428
 5961TIP3    H242079   0.769   0.289   2.173  0.9666  0.0751 -0.0078
 5962TIP3   OH242080   5.307   2.761   2.834  0.2020  0.4412  0.3690
 5962TIP3    H142081   5.380   2.804   2.789 -0.0785  0.8146  0.2660
 5962TIP3    H242082   5.287   2.684   2.780 -0.4467  1.1470 -0.4295
 5963TIP3   OH242083   1.751   1.333   2.409 -0.6852  0.1804  0.2071
 5963TIP3    H142084   1.771   1.296   2.495 -2.5704 -0.3424  0.4567
 5963TIP3    H242085   1.672   1.385   2.423  0.3138  2.0421 -0.7400
 5964TIP3   OH242086   0.109   4.856   3.134  0.7627  0.7468  0.0796
 5964TIP3    H142087   0.138   4.793   3.068 -1.5602 -0.0473 -0.2889
 5964TIP3    H242088   0.117   4.809   3.217  1.7978  1.0460  0.1670
 5965TIP3   OH242089   5.059   5.458   2.241  0.6287  0.1814  0.2318
 5965TIP3    H142090   5.091   5.385   2.188  0.2057  0.3042 -0.2047
 5965TIP3    H242091   4.969   5.472   2.211  0.0752 -0.3135  1.5933
 5966TIP3   OH242092   0.948   6.370   3.195 -0.4367 -0.2623 -0.1178
 5966TIP3    H142093   1.007   6.444   3.181 -1.4563  0.7543  0.8039
 5966TIP3    H242094   0.899   6.361   3.113  0.3904 -0.5925 -0.5934
 5967TIP3   OH242095   4.766   6.228   2.609  0.3075 -0.1029  0.7737
 5967TIP3    H142096   4.847   6.276   2.626  0.5583 -0.0254 -0.5324
 5967TIP3    H242097   4.749   6.241   2.516  0.2265 -2.2818  0.4175
 5968TIP3   OH242098   3.597   4.137   1.926  0.2320  0.0124  0.2534
 5968TIP3    H142099   3.617   4.231   1.927 -0.4100  0.2165 -1.9024
 5968TIP3    H242100   3.503   4.133   1.943  0.0269 -0.1361 -0.8653
 5969TIP3   OH242101   1.411   1.088   2.709 -0.2861 -0.2525  0.0305
 5969TIP3    H142102   1.333   1.098   2.655  0.9093 -0.5535 -1.8158
 5969TIP3    H242103   1.465   1.024   2.663  1.2787  0.3041  0.9998
 5970TIP3   OH242104   2.682   6.424   3.455  0.0802 -0.2731 -0.0188
 5970TIP3    H142105   2.636   6.414   3.538  0.3428  1.3894  0.3583
 5970TIP3    H242106   2.656   6.511   3.423  2.2612  0.3901 -0.1914
 5971TIP3   OH242107   1.295   2.071   1.943  0.6284  0.0634 -0.1415
 5971TIP3    H142108   1.375   2.028   1.973  0.6309 -0.1570 -0.4500
 5971TIP3    H242109   1.326   2.143   1.888  0.6971  2.0427  2.3198
 5972TIP3   OH242110   0.468   5.101   2.006 -0.3542  0.4116  0.1725
 5972TIP3    H142111   0.465   5.194   1.988 -0.8329  0.6920  1.5736
 5972TIP3    H242112   0.380   5.079   2.035 -0.2628 -0.4974 -0.1976
 5973TIP3   OH242113   1.037   2.322   0.766 -0.2621  0.8237 -0.0736
 5973TIP3    H142114   1.045   2.231   0.737  0.8403  1.0694 -0.5889
 5973TIP3    H242115   1.013   2.315   0.858  0.4918 -0.0101  0.0762
 5974TIP3   OH242116   1.282   2.390   1.820 -0.2082 -0.4721  0.4236
 5974TIP3    H142117   1.372   2.394   1.852 -0.6236 -0.6540  1.6526
 5974TIP3    H242118   1.288   2.338   1.739  1.0210  0.9651 -0.4553
 5975TIP3   OH242119   1.795   2.534   0.988 -0.3413  0.7274 -0.6778
 5975TIP3    H142120   1.756   2.448   1.004 -0.7672  0.9224 -0.6582
 5975TIP3    H242121   1.769   2.556   0.898 -0.1671  0.8056 -0.7113
 5976TIP3   OH242122   5.028   1.767   1.453  0.0292  0.0343 -0.3865
 5976TIP3    H142123   5.107   1.725   1.488  1.1644 -0.9646 -3.7583
 5976TIP3    H242124   5.057   1.855   1.429 -0.7364  0.7155  1.0629
 5977TIP3   OH242125   3.052   6.262   2.674 -0.0119 -0.0010 -0.0845
 5977TIP3    H142126   3.104   6.229   2.600  1.0013 -1.8024  1.3716
 5977TIP3    H242127   3.093   6.346   2.696 -0.1269  0.4087 -1.3294
 5978TIP3   OH242128   5.702   5.226   2.866  0.3406 -0.1442  0.0071
 5978TIP3    H142129   5.731   5.287   2.798  0.1140 -0.6784 -0.5755
 5978TIP3    H242130   5.718   5.273   2.948 -0.5511  1.0242 -0.4546
 5979TIP3   OH242131   4.957   3.785   2.043 -0.2609 -0.1001  0.4387
 5979TIP3    H142132   4.969   3.823   2.130  0.0395 -1.7969  1.1806
 5979TIP3    H242133   5.046   3.777   2.009 -0.2365 -1.0808  0.7219
 5980TIP3   OH242134   0.509   0.114   2.856  0.1224  0.3262 -0.4352
 5980TIP3    H142135   0.421   0.151   2.868  0.5472  2.0860 -2.0590
 5980TIP3    H242136   0.496   0.019   2.860 -1.6531  0.5579  0.4722
 5981TIP3   OH242137   4.064   3.300   2.997 -0.5302 -0.8761 -0.3182
 5981TIP3    H142138   4.122   3.255   3.058 -0.9959 -0.0578  0.7519
 5981TIP3    H242139   3.983   3.312   3.046 -0.9343 -0.2481 -1.1223
 5982TIP3   OH242140   3.712   4.473   2.595 -0.6033  0.0498 -0.2543
 5982TIP3    H142141   3.654   4.507   2.527 -1.0312  1.1137  0.6070
 5982TIP3    H242142   3.795   4.518   2.580 -0.3936 -0.4613 -0.6636
 5983TIP3   OH242143   3.547   2.987   2.602  0.2010 -0.8400 -0.0388
 5983TIP3    H142144   3.483   2.982   2.531  0.3199 -1.7232 -0.0968
 5983TIP3    H242145   3.630   3.004   2.558  0.2294 -1.1097 -0.0927
 5984TIP3   OH242146   0.443   5.867   3.928  0.1523 -0.6839 -0.6825
 5984TIP3    H142147   0.529   5.864   3.970 -0.1715  1.1413  0.1995
 5984TIP3    H242148   0.381   5.844   3.997 -0.3001  1.2684 -0.3933
 5985TIP3   OH242149   4.285   2.713   2.562 -0.0392 -0.2306  0.3053
 5985TIP3    H142150   4.285   2.769   2.484  1.8703 -0.6560 -0.0504
 5985TIP3    H242151   4.254   2.628   2.531  1.1902 -0.5373 -0.1246
 5986TIP3   OH242152   3.120   4.781   2.134 -0.4445  0.0007  0.0219
 5986TIP3    H142153   3.129   4.853   2.071  1.0390 -0.9901 -0.9543
 5986TIP3    H242154   3.086   4.708   2.083 -0.8166 -0.3405  0.7482
 5987TIP3   OH242155   0.156   3.479   1.704 -0.6300  0.3715  0.3333
 5987TIP3    H142156   0.242   3.443   1.727 -1.0379 -0.1483  1.0945
 5987TIP3    H242157   0.176   3.553   1.646  0.2950 -0.1067  0.0221
 5988TIP3   OH242158   2.241   4.635   1.281  0.0820  0.5069  0.2535
 5988TIP3    H142159   2.209   4.575   1.349  0.4660 -0.0497 -0.0532
 5988TIP3    H242160   2.174   4.703   1.276 -0.9331 -0.5024 -0.2034
 5989TIP3   OH242161   2.415   1.128   1.133 -0.8450 -0.0246 -0.7686
 5989TIP3    H142162   2.342   1.066   1.126 -0.8029 -0.6781  2.8026
 5989TIP3    H242163   2.395   1.195   1.068 -3.9494 -0.8363 -0.8248
 5990TIP3   OH242164   2.379   5.116   2.080 -0.2165 -0.3428 -0.4750
 5990TIP3    H142165   2.344   5.200   2.109 -2.2763 -1.5146  0.6871
 5990TIP3    H242166   2.455   5.100   2.136 -0.2911  0.3655 -0.1695
 5991TIP3   OH242167   2.800   1.536   1.203  0.1837 -0.2557  0.0198
 5991TIP3    H142168   2.759   1.612   1.161  0.9558 -0.1235 -0.5178
 5991TIP3    H242169   2.814   1.474   1.132  1.2634 -0.1372  0.1065
 5992TIP3   OH242170   6.291   4.430   1.190 -0.0675 -0.2821  0.0531
 5992TIP3    H142171   6.247   4.379   1.123  1.5624 -2.6086  0.6026
 5992TIP3    H242172   6.238   4.417   1.269 -0.8143  0.6889 -0.2699
 5993TIP3   OH242173   2.092   4.936   3.790  0.7571 -0.0072 -0.1863
 5993TIP3    H142174   2.096   5.031   3.790 -0.8383  0.0926 -0.9420
 5993TIP3    H242175   1.998   4.916   3.790  1.0191 -1.5382 -1.8998
 5994TIP3   OH242176   0.253   3.070   3.690 -0.4223 -0.0697 -0.0431
 5994TIP3    H142177   0.271   3.024   3.608  1.5810 -1.3954  1.0544
 5994TIP3    H242178   0.157   3.075   3.694 -0.6631 -2.3414 -1.2133
 5995TIP3   OH242179   1.279   0.421   0.825 -0.1202  0.4939 -0.5336
 5995TIP3    H142180   1.249   0.504   0.862  0.6163  0.5056  0.0717
 5995TIP3    H242181   1.303   0.368   0.901 -0.2788 -0.1599 -0.9266
 5996TIP3   OH242182   5.928   4.373   3.125  0.0331  0.0656 -0.1899
 5996TIP3    H142183   5.961   4.440   3.184  1.3705 -0.0773 -0.7453
 5996TIP3    H242184   5.974   4.388   3.042  0.6139 -1.7235 -0.2458
 5997TIP3   OH242185   6.034   3.291   3.744  0.5413  0.5460 -0.0590
 5997TIP3    H142186   6.121   3.290   3.784  0.1656 -1.9162  0.8486
 5997TIP3    H242187   5.974   3.272   3.816 -0.7918  2.1809 -0.6758
 5998TIP3   OH242188   4.827   2.181   2.846 -0.0899 -0.3745 -0.0816
 5998TIP3    H142189   4.805   2.274   2.848  0.2681 -0.2116 -1.8052
 5998TIP3    H242190   4.824   2.153   2.938  0.2019  1.4257  0.5107
 5999TIP3   OH242191   5.668   0.751   1.947 -0.4235  0.6181  0.0753
 5999TIP3    H142192   5.677   0.687   2.017 -1.8314  1.4011  1.0149
 5999TIP3    H242193   5.733   0.818   1.967  0.0771  0.1928 -0.1152
 6000TIP3   OH242194   4.028   0.368   3.630 -0.2976  0.3847  0.0496
 6000TIP3    H142195   4.034   0.328   3.544  1.5794 -0.4111  0.4908
 6000TIP3    H242196   3.936   0.391   3.640 -0.5526  0.4800 -2.1354
 6001TIP3   OH242197   5.824   3.760   1.355 -0.1890  0.1469 -0.8470
 6001TIP3    H142198   5.738   3.800   1.366  0.3231  1.2476 -0.6540
 6001TIP3    H242199   5.874   3.825   1.305  0.3683 -0.7099 -1.4330
 6002TIP3   OH242200   3.237   2.078   2.044 -0.5236  0.1490 -0.1038
 6002TIP3    H142201   3.318   2.099   2.091  1.2080 -3.4425 -1.1581
 6002TIP3    H242202   3.240   2.132   1.965  1.1199 -0.2817 -0.3618
 6003TIP3   OH242203   0.713   6.136   2.366  0.1819 -0.3553 -0.0614
 6003TIP3    H142204   0.695   6.097   2.281 -1.1229 -1.9375  0.8811
 6003TIP3    H242205   0.762   6.069   2.414 -0.7623 -0.2820  1.0634
 6004TIP3   OH242206   1.297   4.857   3.331 -0.3666 -0.0146  0.2134
 6004TIP3    H142207   1.233   4.788   3.314 -0.3900  0.2031 -0.6045
 6004TIP3    H242208   1.319   4.891   3.245 -1.5046  2.0244  0.6584
 6005TIP3   OH242209   2.750   5.111   2.390  0.6078 -0.0731 -0.0077
 6005TIP3    H142210   2.711   5.080   2.309  0.6702 -0.1129 -0.0220
 6005TIP3    H242211   2.688   5.177   2.422  1.0138  0.5578 -0.5265
 6006TIP3   OH242212   0.266   2.257   0.513 -0.4120  0.1693 -0.0340
 6006TIP3    H142213   0.302   2.170   0.530 -0.9861 -0.6305 -2.4309
 6006TIP3    H242214   0.296   2.277   0.424  1.9586  3.6448  1.3656
 6007TIP3   OH242215   5.682   3.027   1.638  0.2822 -0.1529 -0.5232
 6007TIP3    H142216   5.662   3.120   1.628  0.0958  0.0541  1.4080
 6007TIP3    H242217   5.617   2.994   1.699  2.6686 -0.6033  1.9859
 6008TIP3   OH242218   2.073   0.500   1.642  0.0070 -0.3416  0.4532
 6008TIP3    H142219   2.022   0.521   1.564 -0.0120  0.6984  0.7291
 6008TIP3    H242220   2.082   0.584   1.687  0.9637 -0.7297  0.9995
 6009TIP3   OH242221   5.628   6.324   0.708 -0.8439  0.7263 -0.0661
 6009TIP3    H142222   5.619   6.251   0.646  1.8826  0.0320  0.2198
 6009TIP3    H242223   5.617   6.283   0.794  0.9201  0.5132  0.1071
 6010TIP3   OH242224   5.899   6.226   4.324  0.1437  0.6019  0.2027
 6010TIP3    H142225   5.818   6.273   4.303  0.8722  1.7436 -0.1369
 6010TIP3    H242226   5.896   6.149   4.268 -0.3049  1.0814 -0.4619
 6011TIP3   OH242227   3.193   6.014   1.721  0.1467 -0.0787 -0.3545
 6011TIP3    H142228   3.128   5.947   1.741  1.1918 -1.3950 -1.2524
 6011TIP3    H242229   3.271   5.986   1.769  0.3633  0.9783 -0.0543
 6012TIP3   OH242230   0.395   5.860   3.265 -0.1977 -0.0838 -0.4608
 6012TIP3    H142231   0.461   5.887   3.201  0.2982 -1.5312 -0.6052
 6012TIP3    H242232   0.312   5.876   3.221 -0.0340  2.4095 -0.0165
 6013TIP3   OH242233   0.356   3.486   1.348 -0.7418 -0.0204  0.2181
 6013TIP3    H142234   0.342   3.546   1.275 -0.1094 -0.7554 -0.5289
 6013TIP3    H242235   0.382   3.403   1.307  1.1042 -0.0390  1.3104
 6014TIP3   OH242236   5.654   3.608   1.980 -0.6293 -0.5585  0.4732
 6014TIP3    H142237   5.610   3.623   1.897  0.3364  1.7682  0.2873
 6014TIP3    H242238   5.702   3.526   1.968 -0.5982 -0.3253 -1.2283
 6015TIP3   OH242239   0.507   0.172   1.277 -0.1625 -0.0194  0.1149
 6015TIP3    H142240   0.526   0.155   1.369 -0.7757 -1.9761 -0.0752
 6015TIP3    H242241   0.449   0.248   1.278  0.3576  0.3794  1.2983
 6016TIP3   OH242242   3.229   3.267   1.661 -0.0320  0.3455  0.2263
 6016TIP3    H142243   3.279   3.310   1.730  0.3369  1.7125 -0.8354
 6016TIP3    H242244   3.164   3.214   1.707  1.4824 -0.3699  1.6196
 6017TIP3   OH242245   2.207   4.985   2.271 -0.2185  0.3665  0.3013
 6017TIP3    H142246   2.249   5.042   2.206 -0.3522  0.6362  0.4527
 6017TIP3    H242247   2.224   4.897   2.239  0.2830  0.4808  0.2456
 6018TIP3   OH242248   5.202   1.393   3.787 -0.0654 -0.1310 -0.1925
 6018TIP3    H142249   5.124   1.406   3.733  0.7262 -0.5921 -1.5171
 6018TIP3    H242250   5.177   1.326   3.850 -0.7273 -0.3292 -0.6585
 6019TIP3   OH242251   5.473   0.866   0.732 -0.1008  0.1673  0.2242
 6019TIP3    H142252   5.404   0.800   0.738  1.3772 -1.6305 -1.5793
 6019TIP3    H242253   5.433   0.937   0.682 -0.5107 -1.0736 -1.2806
 6020TIP3   OH242254   5.577   0.763   2.464 -0.0753 -0.2622  0.0855
 6020TIP3    H142255   5.550   0.854   2.474  0.5000  0.1126 -1.5048
 6020TIP3    H242256   5.519   0.714   2.523 -0.3888  1.1111  0.9569
 6021TIP3   OH242257   0.595   3.831   0.847  0.2897 -0.1371 -0.7769
 6021TIP3    H142258   0.689   3.839   0.860  0.0670  1.8138 -0.1182
 6021TIP3    H242259   0.556   3.864   0.927 -0.9907 -1.9784 -0.5686
 6022TIP3   OH242260   5.133   1.073   2.008 -0.3889  0.3102  0.1393
 6022TIP3    H142261   5.217   1.058   2.053 -0.4316 -1.1725 -0.2264
 6022TIP3    H242262   5.070   1.083   2.080 -0.2530 -0.8047  0.4337
 6023TIP3   OH242263   2.152   1.667   2.328 -0.0705  0.1471 -0.0494
 6023TIP3    H142264   2.115   1.587   2.365  2.1064 -0.6359  0.6367
 6023TIP3    H242265   2.211   1.636   2.259  0.3115  1.2000 -0.2096
 6024TIP3   OH242266   3.989   3.382   0.783  0.0822 -0.1561  0.4680
 6024TIP3    H142267   4.053   3.330   0.832 -0.1811  0.9143  2.0123
 6024TIP3    H242268   3.904   3.346   0.810 -0.0921  0.8904  1.3823
 6025TIP3   OH242269   3.930   4.784   2.176  0.8232  0.1178 -0.1915
 6025TIP3    H142270   3.880   4.703   2.177 -1.0755  1.2219 -0.6772
 6025TIP3    H242271   3.934   4.811   2.268  2.0259 -0.8138  0.0553
 6026TIP3   OH242272   5.658   5.221   0.682 -0.7187  0.1734  0.0976
 6026TIP3    H142273   5.581   5.224   0.738  0.3500 -1.3401  1.7536
 6026TIP3    H242274   5.732   5.233   0.742  0.4092  0.4931 -1.2783
 6027TIP3   OH242275   0.950   6.291   0.815  0.1415  0.3015 -0.3526
 6027TIP3    H142276   0.951   6.238   0.895  0.4561  1.0794  0.1793
 6027TIP3    H242277   0.928   6.379   0.846 -1.6560  0.2372 -1.3810
 6028TIP3   OH242278   2.630   1.902   1.727 -0.2624 -0.0939 -1.1955
 6028TIP3    H142279   2.565   1.857   1.672 -0.7775  0.2590 -0.8792
 6028TIP3    H242280   2.706   1.845   1.724 -0.7058 -0.6949 -1.2824
 6029TIP3   OH242281   3.850   3.437   3.131 -0.0277 -0.3578 -0.0944
 6029TIP3    H142282   3.888   3.524   3.136  0.9658 -0.7053 -1.2684
 6029TIP3    H242283   3.756   3.452   3.140  0.0370  0.9478 -1.2421
 6030TIP3   OH242284   0.731   3.480   3.432  0.1395  0.1056  0.2035
 6030TIP3    H142285   0.736   3.399   3.483 -2.3428 -0.5908 -0.5160
 6030TIP3    H242286   0.810   3.478   3.377  0.8448 -1.1018  1.2020
 6031TIP3   OH242287   4.078   6.546   2.842 -0.5903  0.0993  0.1166
 6031TIP3    H142288   4.026   6.596   2.779 -1.1291 -0.0355  0.4427
 6031TIP3    H242289   4.107   6.469   2.793 -2.0651 -0.6568  0.3413
 6032TIP3   OH242290   4.401   5.224   1.509 -0.2706 -0.1536  0.2698
 6032TIP3    H142291   4.444   5.171   1.441  1.5227  0.5217  0.8090
 6032TIP3    H242292   4.337   5.165   1.549 -1.1639 -0.6614 -1.7618
 6033TIP3   OH242293   6.015   0.603   2.110  0.2487 -0.5309 -0.1767
 6033TIP3    H142294   6.104   0.573   2.092 -0.1810 -2.0652  0.1031
 6033TIP3    H242295   5.960   0.549   2.053 -0.6521 -1.1617  1.2313
 6034TIP3   OH242296   1.310   2.597   2.285  0.1188 -0.3398  0.3478
 6034TIP3    H142297   1.372   2.556   2.224 -0.2931 -0.1328 -0.2144
 6034TIP3    H242298   1.355   2.675   2.316  0.3572 -0.4847  0.3710
 6035TIP3   OH242299   3.035   6.018   1.255  0.2586  0.1181  0.4322
 6035TIP3    H142300   2.985   6.088   1.297 -0.2589 -0.2464  0.4439
 6035TIP3    H242301   2.969   5.965   1.210  0.5399 -0.7822  1.0337
 6036TIP3   OH242302   2.695   0.207   2.891 -0.6984  0.4771  0.1970
 6036TIP3    H142303   2.780   0.223   2.851 -0.4606  0.1542  0.5661
 6036TIP3    H242304   2.680   0.283   2.947 -0.9816  0.8771 -0.4047
 6037TIP3   OH242305   4.149   0.076   2.343  0.5393  0.4771 -0.2859
 6037TIP3    H142306   4.142   0.171   2.333  0.6826  0.5552  0.2881
 6037TIP3    H242307   4.093   0.056   2.419 -0.2999 -0.0310 -1.0110
 6038TIP3   OH242308   1.628   0.614   1.772 -0.0625  0.5060 -0.2453
 6038TIP3    H142309   1.702   0.599   1.831 -0.4322 -0.4225  0.0007
 6038TIP3    H242310   1.637   0.547   1.705 -1.9228 -1.1557  1.0450
 6039TIP3   OH242311   3.053   2.476   2.562  0.3894  0.1131 -0.5682
 6039TIP3    H142312   3.054   2.391   2.606 -2.0138 -0.3833 -1.3141
 6039TIP3    H242313   3.051   2.455   2.469 -0.8648  0.9276 -0.7532
 6040TIP3   OH242314   5.766   6.504   3.190 -0.1718 -0.6852  0.1353
 6040TIP3    H142315   5.733   6.576   3.137 -0.6303  1.6690  3.3538
 6040TIP3    H242316   5.701   6.434   3.180 -1.9406  0.8993  0.1143
 6041TIP3   OH242317   5.566   4.275   2.310 -0.6427  0.2339  0.2816
 6041TIP3    H142318   5.479   4.260   2.272 -0.3488  0.5067 -0.5378
 6041TIP3    H242319   5.624   4.217   2.260 -0.1520  1.0341 -0.1027
 6042TIP3   OH242320   1.953   1.699   4.212  0.9130  0.0314 -0.1561
 6042TIP3    H142321   2.010   1.691   4.289 -0.2988 -1.7902  0.6163
 6042TIP3    H242322   1.869   1.728   4.248  0.7171  0.5164 -0.9886
 6043TIP3   OH242323   3.228   3.072   1.464  0.0221  0.2220  0.0121
 6043TIP3    H142324   3.227   3.141   1.529 -0.1954 -0.3300  0.6073
 6043TIP3    H242325   3.305   3.019   1.486 -0.6348 -0.5624  0.4739
 6044TIP3   OH242326   1.445   4.473   1.919 -0.2970  0.2685 -0.0614
 6044TIP3    H142327   1.499   4.437   1.989  0.0693  1.7105  0.4231
 6044TIP3    H242328   1.425   4.398   1.863  0.3419 -0.6939  0.9699
 6045TIP3   OH242329   3.949   4.991   1.741  0.0975 -0.2221 -0.3706
 6045TIP3    H142330   3.938   5.077   1.700  1.2588 -0.5690 -1.4730
 6045TIP3    H242331   3.945   4.929   1.669  2.3255 -0.8476 -0.0365
 6046TIP3   OH242332   3.353   0.793   1.362 -0.5157 -0.3791 -0.2828
 6046TIP3    H142333   3.312   0.717   1.404 -0.6291  0.1999  0.6672
 6046TIP3    H242334   3.392   0.757   1.282 -0.5129 -1.4517  0.1786
 6047TIP3   OH242335   1.860   3.839   1.992 -0.2449 -0.1965  0.2542
 6047TIP3    H142336   1.929   3.776   2.012 -0.9594 -1.0566  0.0427
 6047TIP3    H242337   1.797   3.790   1.940 -0.9702  0.6067  0.3631
 6048TIP3   OH242338   6.571   4.456   1.712  0.1921  0.5656  0.2907
 6048TIP3    H142339   6.647   4.511   1.733 -0.0552  1.0594 -0.0692
 6048TIP3    H242340   6.509   4.517   1.671  0.1976 -0.1247 -0.7763
 6049TIP3   OH242341   4.898   0.523   2.369 -0.3111  0.5290 -0.2392
 6049TIP3    H142342   4.826   0.469   2.336 -1.5663  1.2048  1.2614
 6049TIP3    H242343   4.863   0.564   2.448  2.5817 -1.2383  2.1792
 6050TIP3   OH242344   0.322   3.896   2.965 -0.1582  0.2521  0.1469
 6050TIP3    H142345   0.377   3.919   2.890 -2.7485  1.3569 -1.5844
 6050TIP3    H242346   0.342   3.963   3.031  2.9737 -1.3796  1.0546
 6051TIP3   OH242347   1.006   4.570   1.016  0.0872  0.0334 -0.2086
 6051TIP3    H142348   1.008   4.538   0.926 -0.2478 -0.8297  0.0790
 6051TIP3    H242349   1.085   4.533   1.056 -0.4619 -0.6938  0.2120
 6052TIP3   OH242350   5.941   5.652   3.608 -0.7187 -0.3762  0.1251
 6052TIP3    H142351   5.896   5.568   3.611 -0.5278 -0.4494  1.5893
 6052TIP3    H242352   6.034   5.629   3.614 -0.6553 -0.0819  0.2891
 6053TIP3   OH242353   5.425   2.018   1.397 -0.1473 -0.4536 -0.3006
 6053TIP3    H142354   5.501   2.054   1.351  0.2489 -0.6310  0.2003
 6053TIP3    H242355   5.369   2.093   1.414  0.6031 -0.0902  0.6110
 6054TIP3   OH242356   6.134   3.434   2.472  0.0176 -0.2145  0.4103
 6054TIP3    H142357   6.072   3.395   2.410  1.1249 -2.8201  0.8117
 6054TIP3    H242358   6.083   3.449   2.551 -0.7944  0.6983 -0.2509
 6055TIP3   OH242359   4.817   1.827   1.635 -0.0843 -0.4676  0.7076
 6055TIP3    H142360   4.904   1.797   1.610 -0.2668  0.4349 -1.1650
 6055TIP3    H242361   4.818   1.921   1.618 -1.4511 -0.4641  0.5460
 6056TIP3   OH242362   1.015   4.963   2.519  0.4176 -0.0663 -0.1203
 6056TIP3    H142363   1.008   4.888   2.460 -0.9614  0.7375 -1.0307
 6056TIP3    H242364   0.996   4.927   2.605  0.3029 -0.8651 -0.4667
 6057TIP3   OH242365   5.838   3.398   1.952 -0.6389  0.1215  0.2252
 6057TIP3    H142366   5.833   3.395   1.856  0.5508  2.7645  0.0137
 6057TIP3    H242367   5.905   3.463   1.971 -0.5371 -0.6507  2.8911
 6058TIP3   OH242368   5.820   1.759   3.192  0.5566  0.1900 -0.2686
 6058TIP3    H142369   5.728   1.739   3.211  0.3483 -0.5351 -1.8184
 6058TIP3    H242370   5.869   1.684   3.225  0.2235 -0.9546 -2.2142
 6059TIP3   OH242371   2.248   0.267   2.348 -0.2650 -0.6662  0.0367
 6059TIP3    H142372   2.182   0.311   2.401 -0.8944 -1.2271 -0.2576
 6059TIP3    H242373   2.303   0.337   2.314  0.6430 -0.3427  2.0549
 6060TIP3   OH242374   1.299   1.472   3.209  0.1372 -0.0766  0.0181
 6060TIP3    H142375   1.238   1.476   3.136  0.1874  0.1049 -0.0147
 6060TIP3    H242376   1.259   1.525   3.277  0.0494 -0.3164  0.1549
 6061TIP3   OH242377   0.869   3.296   1.722  0.3932 -0.3299  0.4091
 6061TIP3    H142378   0.881   3.227   1.788 -0.4319 -0.4406  0.4539
 6061TIP3    H242379   0.787   3.274   1.679  1.4873 -0.9218 -1.4974
 6062TIP3   OH242380   3.928   2.636   2.996 -0.1938 -0.3702  0.4615
 6062TIP3    H142381   3.842   2.600   3.020 -1.0579  1.0001 -0.4951
 6062TIP3    H242382   3.974   2.562   2.957 -0.7512 -1.2338  1.3715
 6063TIP3   OH242383   4.220   3.593   2.912 -0.0094 -0.1578 -0.3847
 6063TIP3    H142384   4.157   3.581   2.842  0.1064  0.9569 -0.7077
 6063TIP3    H242385   4.300   3.551   2.880 -0.2492 -0.5474 -0.4751
 6064TIP3   OH242386   1.434   4.677   1.462 -0.1140 -0.0312  0.5164
 6064TIP3    H142387   1.429   4.598   1.515  0.1892  0.4543  1.2903
 6064TIP3    H242388   1.488   4.737   1.514 -0.5415  0.7694  0.0551
 6065TIP3   OH242389   4.946   0.517   3.720 -0.1111  0.0084  0.4502
 6065TIP3    H142390   4.974   0.438   3.674 -0.8848 -0.2228  0.3631
 6065TIP3    H242391   5.008   0.526   3.792  0.4128 -0.2756  0.0510
 6066TIP3   OH242392   4.265   6.093   3.273 -0.2869 -0.7223 -0.1064
 6066TIP3    H142393   4.359   6.079   3.268  0.0049 -0.7695  3.2137
 6066TIP3    H242394   4.251   6.180   3.236  1.3743  0.0913  1.0947
 6067TIP3   OH242395   6.475   6.004   3.399  0.2292 -0.1869 -0.1532
 6067TIP3    H142396   6.522   5.923   3.415  0.7399 -0.5198 -2.9179
 6067TIP3    H242397   6.542   6.072   3.397  0.2581 -0.2302 -1.2149
 6068TIP3   OH242398   6.141   2.402   1.742  0.0442  0.6452 -0.6613
 6068TIP3    H142399   6.130   2.483   1.693 -1.8387  3.3159  3.5558
 6068TIP3    H242400   6.218   2.417   1.797 -0.7436 -0.0517  0.6874
 6069TIP3   OH242401   3.769   4.992   4.136 -0.0794  0.3383 -0.0636
 6069TIP3    H142402   3.813   4.940   4.069  0.8124  0.1491  0.6531
 6069TIP3    H242403   3.676   4.980   4.118  0.1113 -1.0933 -0.2385
 6070TIP3   OH242404   5.184   2.378   1.260  0.5588 -0.6381 -0.4168
 6070TIP3    H142405   5.188   2.319   1.336  0.0566 -0.3545 -0.1641
 6070TIP3    H242406   5.105   2.429   1.274  0.4438 -0.6039 -1.1579
 6071TIP3   OH242407   5.370   4.039   3.772  0.1433 -0.1558  0.1746
 6071TIP3    H142408   5.281   4.003   3.780 -0.3124  0.5055 -1.5364
 6071TIP3    H242409   5.422   3.965   3.740 -0.1081 -0.1718 -0.2121
 6072TIP3   OH242410   4.078   4.748   0.762 -0.2374 -0.2361 -0.0396
 6072TIP3    H142411   4.033   4.818   0.715  1.7763  0.0987 -1.5889
 6072TIP3    H242412   4.008   4.698   0.804 -1.8310  1.7910 -0.1396
 6073TIP3   OH242413   2.318   6.603   1.595  0.0356 -0.7109  0.1836
 6073TIP3    H142414   2.248   6.587   1.659 -0.5299 -1.4607 -0.6044
 6073TIP3    H242415   2.273   6.633   1.517  0.6227 -0.9244 -0.2427
 6074TIP3   OH242416   5.111   0.357   1.838  0.3556  0.3461  0.0048
 6074TIP3    H142417   5.045   0.413   1.797  0.0092 -0.0141  0.0686
 6074TIP3    H242418   5.071   0.327   1.919  0.6428  0.2245  0.1014
 6075TIP3   OH242419   3.476   0.904   2.279 -0.3388  0.0111  0.0305
 6075TIP3    H142420   3.396   0.852   2.276  0.3308 -1.0278 -0.4257
 6075TIP3    H242421   3.478   0.949   2.194 -1.4170  1.6014  0.8019
 6076TIP3   OH242422   5.454   1.136   4.035 -0.1430 -0.2136  0.1225
 6076TIP3    H142423   5.542   1.170   4.051 -0.1340 -0.2850  0.2246
 6076TIP3    H242424   5.445   1.062   4.095 -0.4254  0.0554  0.4195
 6077TIP3   OH242425   0.084   3.238   0.521 -0.6851  0.2591 -0.2431
 6077TIP3    H142426   0.110   3.318   0.475  0.3254  0.6399  0.9492
 6077TIP3    H242427   0.091   3.259   0.614  0.0095 -1.3344  0.1099
 6078TIP3   OH242428   1.942   6.136   2.130 -0.8436 -0.8254 -0.1044
 6078TIP3    H142429   2.020   6.191   2.128 -0.4742 -1.3406 -0.3076
 6078TIP3    H242430   1.873   6.189   2.090 -0.3151 -0.7763 -0.9836
 6079TIP3   OH242431   2.473   4.133   3.865  0.3203  1.0726  0.6290
 6079TIP3    H142432   2.519   4.216   3.881  0.4081  1.2246 -0.3659
 6079TIP3    H242433   2.542   4.067   3.867  0.6809  1.3442 -1.2516
 6080TIP3   OH242434   1.001   0.983   2.104  0.4127 -0.2443 -0.3382
 6080TIP3    H142435   1.042   1.021   2.181 -0.4551 -1.1074  0.5682
 6080TIP3    H242436   0.910   1.012   2.108 -0.6278 -3.2664  1.0651
 6081TIP3   OH242437   2.350   3.431   3.356  0.2486 -0.6075  0.4427
 6081TIP3    H142438   2.410   3.358   3.336  1.5629  0.7917 -1.0522
 6081TIP3    H242439   2.263   3.392   3.349  0.9272 -2.3755  1.1625
 6082TIP3   OH242440   5.337   3.579   2.819 -0.4146  0.3249 -0.2765
 6082TIP3    H142441   5.406   3.622   2.869 -0.9467  0.1261  0.6463
 6082TIP3    H242442   5.317   3.641   2.749  0.4146  0.5600 -0.3231
 6083TIP3   OH242443   5.946   4.304   2.358  1.0622  0.3441 -0.2701
 6083TIP3    H142444   5.924   4.226   2.409  0.7435  0.1309 -0.7214
 6083TIP3    H242445   5.917   4.377   2.413 -1.9751  0.0619 -1.3096
 6084TIP3   OH242446   6.366   0.480   0.644  0.0798 -0.3924 -0.4515
 6084TIP3    H142447   6.366   0.486   0.549  0.4783 -0.5866 -0.4644
 6084TIP3    H242448   6.432   0.544   0.672 -0.1276 -0.2426 -0.2969
 6085TIP3   OH242449   3.537   5.111   1.079  0.1349 -0.4730 -0.4802
 6085TIP3    H142450   3.483   5.035   1.056  1.2993 -1.8870  1.1762
 6085TIP3    H242451   3.580   5.136   0.997 -1.7911 -0.2828 -1.4862
 6086TIP3   OH242452   4.032   3.864   1.662 -0.3242  0.2816  0.0198
 6086TIP3    H142453   4.037   3.945   1.712 -0.6140  0.8930 -0.9145
 6086TIP3    H242454   4.120   3.849   1.630  0.1631 -0.8003  1.7176
 6087TIP3   OH242455   1.139   5.888   1.702 -0.2117  0.1141  0.0505
 6087TIP3    H142456   1.150   5.913   1.794  1.0165  0.9828 -0.3108
 6087TIP3    H242457   1.227   5.868   1.672 -0.2986  1.7421 -1.4676
 6088TIP3   OH242458   3.354   0.322   3.449  0.1782  0.6602 -0.0385
 6088TIP3    H142459   3.395   0.249   3.495 -0.3159  0.3824 -0.0436
 6088TIP3    H242460   3.330   0.384   3.518 -0.8767  0.0894  0.1125
 6089TIP3   OH242461   4.257   1.443   0.640  0.0991  0.2012 -0.2269
 6089TIP3    H142462   4.252   1.368   0.580  0.8789 -2.6954  2.9977
 6089TIP3    H242463   4.350   1.450   0.661 -0.1032  1.4351  0.3004
 6090TIP3   OH242464   2.239   5.541   3.455  0.0831 -0.1425 -0.0564
 6090TIP3    H142465   2.213   5.558   3.546 -0.0550 -1.8381  0.2656
 6090TIP3    H242466   2.327   5.578   3.449 -0.1048  0.4436  0.6148
 6091TIP3   OH242467   6.614   5.239   3.743 -0.0651 -0.3080  0.7267
 6091TIP3    H142468   6.564   5.193   3.810 -0.3449  0.1094  0.8059
 6091TIP3    H242469   6.604   5.185   3.664  0.4461 -0.9141  1.0704
 6092TIP3   OH242470   3.268   0.212   1.528 -0.1405  0.0480  0.5027
 6092TIP3    H142471   3.273   0.180   1.438 -0.2066 -0.5870  0.7216
 6092TIP3    H242472   3.328   0.287   1.530 -1.7118  1.4017 -0.6091
 6093TIP3   OH242473   5.346   3.857   3.052  0.1191  0.6494  0.6658
 6093TIP3    H142474   5.395   3.775   3.056  0.1075  0.6134  0.0757
 6093TIP3    H242475   5.277   3.841   2.988 -0.2507  0.9270  0.9880
 6094TIP3   OH242476   4.828   6.021   3.797 -0.0962  0.0082  0.2120
 6094TIP3    H142477   4.827   6.054   3.887 -1.5417 -1.0459  0.6250
 6094TIP3    H242478   4.764   5.949   3.797 -0.0223 -0.1094 -1.6223
 6095TIP3   OH242479   4.870   1.068   0.928  0.1518  0.2335  0.2786
 6095TIP3    H142480   4.821   1.141   0.967 -0.5919 -1.1187  2.0129
 6095TIP3    H242481   4.804   1.002   0.908  1.0725 -1.0402  1.2916
 6096TIP3   OH242482   5.614   6.052   3.520 -0.2941  0.3903  0.4839
 6096TIP3    H142483   5.671   6.082   3.448 -0.1400 -0.4498  0.2334
 6096TIP3    H242484   5.627   6.116   3.590 -1.3749  1.9229 -0.6521
 6097TIP3   OH242485   5.625   2.403   1.170  0.5152  0.2687 -0.1666
 6097TIP3    H142486   5.590   2.481   1.212  0.9170  0.6814 -0.5839
 6097TIP3    H242487   5.714   2.395   1.204  0.0772 -0.6981  0.7900
 6098TIP3   OH242488   5.323   1.276   3.577 -0.1156  0.5192 -0.3283
 6098TIP3    H142489   5.262   1.212   3.540  0.6855 -1.1420  1.0989
 6098TIP3    H242490   5.279   1.309   3.655  1.1440 -1.4698  1.3107
 6099TIP3   OH242491   5.415   0.787   3.103  0.2054  0.1135  0.8979
 6099TIP3    H142492   5.467   0.867   3.109 -0.1853  0.3587  1.0855
 6099TIP3    H242493   5.380   0.787   3.014  1.7739 -0.8529  0.2303
 6100TIP3   OH242494   5.576   5.724   4.106 -0.2242 -0.0458  0.2338
 6100TIP3    H142495   5.524   5.804   4.109 -1.5258 -0.8901  0.6958
 6100TIP3    H242496   5.590   5.700   4.198 -2.1108 -1.7490  0.1417
 6101TIP3   OH242497   3.554   0.447   1.885  0.3765 -0.2518  0.7888
 6101TIP3    H142498   3.492   0.375   1.876  0.2379  0.0834 -1.9584
 6101TIP3    H242499   3.639   0.409   1.861  0.9272 -0.2307  2.5682
 6102TIP3   OH242500   2.102   4.962   0.415  0.2134 -0.0631 -0.1237
 6102TIP3    H142501   2.192   4.989   0.401  0.0786  0.5589  0.1541
 6102TIP3    H242502   2.098   4.941   0.509  0.2992 -0.9971 -0.3230
 6103TIP3   OH242503   4.780   1.522   1.002  0.0033  0.4035 -0.5880
 6103TIP3    H142504   4.736   1.439   0.984 -0.5006  0.8709 -1.6392
 6103TIP3    H242505   4.748   1.548   1.088 -1.6533  0.6080 -1.2161
 6104TIP3   OH242506   2.131   5.342   3.187  0.0544 -0.1403  0.0954
 6104TIP3    H142507   2.174   5.382   3.263  0.2637 -2.6521  1.3949
 6104TIP3    H242508   2.076   5.412   3.151  0.0231  1.1748  2.4915
 6105TIP3   OH242509   1.769   6.026   3.760 -0.5785 -0.0461  0.4073
 6105TIP3    H142510   1.729   5.940   3.761 -0.1286 -0.2603  1.1505
 6105TIP3    H242511   1.710   6.081   3.812  0.4465 -0.5553  2.2048
 6106TIP3   OH242512   3.437   0.236   1.028 -0.0945 -0.4316  0.0629
 6106TIP3    H142513   3.475   0.162   1.077  2.5771  0.1761 -0.9126
 6106TIP3    H242514   3.419   0.200   0.941  1.0245 -0.0525 -0.3514
 6107TIP3   OH242515   3.592   2.200   2.843  0.5351 -0.2261 -0.0965
 6107TIP3    H142516   3.595   2.124   2.902  0.0303  0.0145  0.2428
 6107TIP3    H242517   3.612   2.164   2.757  2.1365 -0.4524  0.3328
 6108TIP3   OH242518   3.475   2.363   1.751  0.2387 -0.2642  0.4125
 6108TIP3    H142519   3.395   2.359   1.804  0.5921  0.1562  0.9995
 6108TIP3    H242520   3.529   2.290   1.783  0.5176  0.0840  0.7512
 6109TIP3   OH242521   2.175   3.502   1.446  0.7111 -0.1283 -0.3191
 6109TIP3    H142522   2.193   3.594   1.465  2.3393  0.2484 -3.1605
 6109TIP3    H242523   2.221   3.453   1.514  1.5929  1.1286  0.0115
 6110TIP3   OH242524   3.045   1.683   1.783 -1.0878  0.1970 -0.0746
 6110TIP3    H142525   3.062   1.630   1.861 -1.2537  0.1555 -0.0666
 6110TIP3    H242526   2.952   1.670   1.765 -1.1781  0.6596  0.0582
 6111TIP3   OH242527   3.226   0.653   3.878  0.1091 -0.9525  0.0908
 6111TIP3    H142528   3.240   0.690   3.965  0.0225 -1.8271  0.4817
 6111TIP3    H242529   3.136   0.677   3.856 -0.1223 -1.3877  0.5668
 6112TIP3   OH242530   4.848   4.336   2.658 -0.1705 -0.0332  0.0846
 6112TIP3    H142531   4.779   4.307   2.598  0.0510 -0.3570 -0.0188
 6112TIP3    H242532   4.925   4.285   2.632  0.1806  0.5096  0.0273
 6113TIP3   OH242533   0.880   5.587   3.703 -0.0251 -0.0276 -1.2741
 6113TIP3    H142534   0.951   5.641   3.737 -0.0735  1.2011 -3.0138
 6113TIP3    H242535   0.835   5.554   3.781  1.8049  0.0196 -0.1635
 6114TIP3   OH242536   3.162   1.267   2.252  0.2926 -0.2984  0.6018
 6114TIP3    H142537   3.252   1.268   2.286 -0.0694 -1.3493  1.6191
 6114TIP3    H242538   3.135   1.176   2.257  0.2303 -0.5875 -2.6688
 6115TIP3   OH242539   0.735   3.607   3.700 -0.3641  0.1608 -0.2439
 6115TIP3    H142540   0.660   3.592   3.642 -1.5158 -0.8190  1.4430
 6115TIP3    H242541   0.795   3.535   3.681  0.0008  0.7020 -1.2749
 6116TIP3   OH242542   2.827   0.794   2.447 -0.5950  0.2171  0.2393
 6116TIP3    H142543   2.896   0.848   2.485 -0.5206  0.1144  0.2518
 6116TIP3    H242544   2.757   0.797   2.511  0.1652 -1.3203  1.2028
 6117TIP3   OH242545   5.397   6.100   0.755  0.1244 -0.0799  0.0066
 6117TIP3    H142546   5.383   6.021   0.808 -0.1467  0.1056  0.2157
 6117TIP3    H242547   5.373   6.172   0.813 -0.3909  0.1149 -0.4451
 6118TIP3   OH242548   3.591   1.474   2.817  0.5094  0.2145  0.2889
 6118TIP3    H142549   3.624   1.444   2.732 -0.7147 -2.5584  0.6820
 6118TIP3    H242550   3.507   1.514   2.796  1.3169  1.8431 -0.0244
 6119TIP3   OH242551   0.094   6.164   3.396  0.1007 -0.0963  0.2368
 6119TIP3    H142552   0.144   6.105   3.339  0.4316 -1.5511  1.9392
 6119TIP3    H242553   0.135   6.250   3.384  0.7044 -0.5304 -1.0301
 6120TIP3   OH242554   6.051   4.507   2.566  0.0547 -0.7108  0.1031
 6120TIP3    H142555   6.139   4.474   2.584  0.3271  0.3641  0.8886
 6120TIP3    H242556   5.994   4.460   2.628  0.1902 -0.8709  0.1053
 6121TIP3   OH242557   1.127   1.858   1.842  0.1550 -0.0567  0.2808
 6121TIP3    H142558   1.159   1.937   1.885  0.8037  0.3380 -0.8816
 6121TIP3    H242559   1.206   1.809   1.820 -0.2579 -1.4107  1.6145
 6122TIP3   OH242560   4.230   2.529   3.637  0.3814  0.0832 -0.2171
 6122TIP3    H142561   4.282   2.551   3.714  1.1073  0.1056 -0.7021
 6122TIP3    H242562   4.139   2.548   3.663  0.8901  3.5816 -0.5366
 6123TIP3   OH242563   5.549   3.203   0.867  0.0774  0.7828  0.1759
 6123TIP3    H142564   5.492   3.137   0.827 -2.6743  1.8154  2.0795
 6123TIP3    H242565   5.601   3.237   0.794  1.6385 -3.3284 -0.9011
 6124TIP3   OH242566   0.472   1.735   1.050 -0.0992 -0.2517 -0.7252
 6124TIP3    H142567   0.427   1.818   1.066 -0.9985 -0.9177  0.3665
 6124TIP3    H242568   0.564   1.753   1.068 -0.2928  0.4942 -0.4556
 6125TIP3   OH242569   2.791   4.114   1.064 -0.1955  0.1872  0.0987
 6125TIP3    H142570   2.874   4.154   1.039 -1.0025  1.5342 -0.5745
 6125TIP3    H242571   2.815   4.041   1.121  1.4275  0.6590  0.0629
 6126TIP3   OH242572   1.589   0.091   2.087 -0.2422 -0.0508 -0.2747
 6126TIP3    H142573   1.601   0.088   2.182  2.3224 -1.2956 -0.5686
 6126TIP3    H242574   1.633   0.171   2.060  0.7081 -0.6733 -0.5944
 6127TIP3   OH242575   3.218   0.456   3.668  0.1952  0.8782 -0.3226
 6127TIP3    H142576   3.240   0.536   3.716 -0.6193  0.4238  0.8887
 6127TIP3    H242577   3.236   0.386   3.730  2.3523 -0.0496 -1.8815
 6128TIP3   OH242578   0.942   4.349   1.432  0.0609  0.5076 -0.5161
 6128TIP3    H142579   1.031   4.372   1.405  0.7681  0.1583  1.3966
 6128TIP3    H242580   0.921   4.270   1.382  1.3292 -0.1332 -0.0708
 6129TIP3   OH242581   5.253   1.850   4.450  0.1280 -0.2664  0.4815
 6129TIP3    H142582   5.182   1.794   4.480  0.2288 -1.0938 -0.7334
 6129TIP3    H242583   5.316   1.849   4.522 -0.3602 -0.8505  0.9124
 6130TIP3   OH242584   0.786   2.396   1.223 -0.3591  0.2689 -0.1386
 6130TIP3    H142585   0.736   2.371   1.300 -0.2920  1.1960  0.2153
 6130TIP3    H242586   0.830   2.477   1.248  0.4961  0.0174 -0.7983
 6131TIP3   OH242587   0.712   5.934   3.013  0.6345  0.0571  0.3481
 6131TIP3    H142588   0.793   5.986   3.012 -0.1197  1.2611  0.8552
 6131TIP3    H242589   0.644   5.995   3.038 -0.7911 -0.4704 -1.9443
 6132TIP3   OH242590   0.852   3.240   2.124 -0.1371  0.4911 -0.1153
 6132TIP3    H142591   0.808   3.288   2.195  0.0407 -0.8255  0.9345
 6132TIP3    H242592   0.788   3.175   2.096  0.1165  0.4329 -0.5539
 6133TIP3   OH242593   4.466   0.674   0.641 -0.3264 -0.2843 -0.5507
 6133TIP3    H142594   4.402   0.699   0.708 -0.2108 -0.5359 -0.3437
 6133TIP3    H242595   4.544   0.725   0.663  0.3319 -1.7194  0.6276
 6134TIP3   OH242596   6.058   0.844   2.901  0.6216  0.2213  0.2737
 6134TIP3    H142597   6.150   0.854   2.924  0.3044 -0.7791  2.1551
 6134TIP3    H242598   6.032   0.761   2.942 -0.6468 -0.4997 -1.8096
 6135TIP3   OH242599   6.533   4.483   3.229  0.4194 -0.3624 -0.3611
 6135TIP3    H142600   6.478   4.520   3.298 -0.6471 -0.1839 -1.2730
 6135TIP3    H242601   6.623   4.501   3.257  0.0158 -0.4755  1.0616
 6136TIP3   OH242602   4.244   1.179   0.954  0.6608  0.6746 -0.5203
 6136TIP3    H142603   4.179   1.226   1.005  1.7261  0.4627  1.1152
 6136TIP3    H242604   4.198   1.102   0.920 -0.0624  0.7715  0.2112
 6137TIP3   OH242605   2.554   5.866   3.151  0.2939 -0.3177 -0.0305
 6137TIP3    H142606   2.550   5.777   3.118 -0.5795  0.4499 -2.1339
 6137TIP3    H242607   2.637   5.870   3.199 -0.7530 -2.8765  2.2091
 6138TIP3   OH242608   5.107   3.132   0.611 -0.8138 -0.3733  0.0927
 6138TIP3    H142609   5.082   3.057   0.664 -0.0890  0.1991  1.3076
 6138TIP3    H242610   5.124   3.202   0.675  1.8387 -0.1466 -0.7244
 6139TIP3   OH242611   2.967   5.027   3.188  0.6728 -0.0584  0.4253
 6139TIP3    H142612   2.970   5.116   3.223 -0.6647 -0.8811  2.8580
 6139TIP3    H242613   3.017   5.032   3.106 -1.4322  3.4671 -0.8719
 6140TIP3   OH242614   5.890   4.880   2.448 -0.0627  0.0690 -0.2585
 6140TIP3    H142615   5.917   4.867   2.357  0.5073  0.1172 -0.1006
 6140TIP3    H242616   5.817   4.819   2.460  1.2222 -1.5105 -0.1304
 6141TIP3   OH242617   0.134   3.310   0.772  0.7204  0.6916 -0.2869
 6141TIP3    H142618   0.228   3.321   0.756  1.0959 -2.6346 -1.0877
 6141TIP3    H242619   0.130   3.260   0.854 -0.2962 -0.0319 -0.7659
 6142TIP3   OH242620   3.230   4.641   3.421 -0.1470 -0.6201  0.2830
 6142TIP3    H142621   3.187   4.580   3.482  0.9087 -0.7481  0.9326
 6142TIP3    H242622   3.318   4.605   3.410 -0.4976 -0.9308 -1.8260
 6143TIP3   OH242623   4.429   4.862   2.631  0.0194 -0.0453  0.4751
 6143TIP3    H142624   4.409   4.892   2.542 -0.6145 -0.9702  0.2835
 6143TIP3    H242625   4.521   4.836   2.628 -0.5960 -2.4070 -0.6419
 6144TIP3   OH242626   3.013   0.444   4.002  0.1815 -0.2774  0.5750
 6144TIP3    H142627   3.055   0.435   4.087  0.8289 -0.0620  0.2853
 6144TIP3    H242628   3.083   0.426   3.939 -0.5314 -1.4506  0.0959
 6145TIP3   OH242629   4.177   2.965   3.082  0.0017  0.3537 -0.8577
 6145TIP3    H142630   4.147   3.054   3.099 -0.5265  0.3795 -1.8600
 6145TIP3    H242631   4.273   2.971   3.087  0.0230  1.2220 -1.9844
 6146TIP3   OH242632   2.662   5.585   3.211  0.4089  0.0771 -0.2226
 6146TIP3    H142633   2.649   5.597   3.117 -2.2028  3.0975  0.3438
 6146TIP3    H242634   2.605   5.511   3.233 -0.7759  0.7989 -0.7346
 6147TIP3   OH242635   6.134   4.756   2.430  0.5511  0.1568 -0.2950
 6147TIP3    H142636   6.097   4.669   2.445  1.0290  0.1353  0.8431
 6147TIP3    H242637   6.065   4.817   2.457  0.5904  0.1240 -0.1210
 6148TIP3   OH242638   2.750   5.688   0.629  0.1415 -0.1349 -0.2006
 6148TIP3    H142639   2.664   5.724   0.650  0.9275  0.5201  2.1890
 6148TIP3    H242640   2.808   5.764   0.629  1.5905 -1.0153  3.5968
 6149TIP3   OH242641   3.262   1.988   2.769 -0.4285 -0.2011  0.1593
 6149TIP3    H142642   3.340   1.990   2.713 -0.5763 -0.3596 -0.0532
 6149TIP3    H242643   3.238   2.079   2.780 -0.2837 -0.1582  0.1262
 6150TIP3   OH242644   0.311   6.501   3.705 -0.1867 -0.7544 -0.4125
 6150TIP3    H142645   0.233   6.457   3.674 -0.9514  1.1596 -1.3488
 6150TIP3    H242646   0.383   6.461   3.656 -0.4470 -2.7656  0.7034
 6151TIP3   OH242647   1.604   5.100   1.226 -0.1489 -0.0491 -0.9081
 6151TIP3    H142648   1.532   5.081   1.287  0.3858  1.1380  0.1190
 6151TIP3    H242649   1.603   5.026   1.165 -1.2748 -0.8140 -0.0059
 6152TIP3   OH242650   2.480   0.521   4.108 -0.3516 -0.1617  0.4071
 6152TIP3    H142651   2.477   0.605   4.064 -0.6494 -0.9261 -1.1123
 6152TIP3    H242652   2.569   0.516   4.144  1.0072 -0.6708 -2.6552
 6153TIP3   OH242653   5.706   2.520   3.422  0.4427 -0.0463 -0.1491
 6153TIP3    H142654   5.625   2.569   3.411  0.7569  0.3285 -0.9376
 6153TIP3    H242655   5.690   2.436   3.380 -0.0061 -0.5176  0.9592
 6154TIP3   OH242656   6.571   6.026   1.252  0.1131 -0.1984 -0.2762
 6154TIP3    H142657   6.657   6.062   1.274 -0.1406 -0.1727  0.7011
 6154TIP3    H242658   6.531   6.006   1.336 -1.6305  1.6121 -0.6193
 6155TIP3   OH242659   1.247   2.236   1.130 -0.8973 -0.0469 -0.1761
 6155TIP3    H142660   1.203   2.312   1.167 -2.6416 -0.5801 -1.0714
 6155TIP3    H242661   1.209   2.161   1.176  1.2699 -0.4001  1.1703
 6156TIP3   OH242662   3.505   2.270   2.043  0.1359  0.0210  0.8445
 6156TIP3    H142663   3.547   2.352   2.016  0.5608 -0.6956 -0.7696
 6156TIP3    H242664   3.544   2.251   2.128  0.8405  0.9363  0.7523
 6157TIP3   OH242665   5.915   1.344   0.849  0.3716  0.1286  0.4139
 6157TIP3    H142666   5.823   1.371   0.845  0.6651  1.0391 -0.9216
 6157TIP3    H242667   5.964   1.418   0.812  1.6552 -0.3155  1.1498
 6158TIP3   OH242668   5.952   3.557   1.183  0.1891 -0.0835  0.0269
 6158TIP3    H142669   6.020   3.503   1.225 -0.5778  0.2559  1.8017
 6158TIP3    H242670   5.934   3.626   1.246 -0.2830  1.1040 -1.3568
 6159TIP3   OH242671   1.712   2.764   3.396  0.2938 -0.2772  0.7864
 6159TIP3    H142672   1.698   2.677   3.434  2.2030 -0.7611  0.5028
 6159TIP3    H242673   1.747   2.816   3.469  0.7395 -0.2476  0.5586
 6160TIP3   OH242674   0.936   4.286   3.041  0.1200 -0.3532 -0.1241
 6160TIP3    H142675   0.841   4.280   3.049 -0.1103  2.0366 -0.5603
 6160TIP3    H242676   0.951   4.364   2.989  2.3543 -0.5608  0.1265
 6161TIP3   OH242677   5.067   6.129   4.766 -0.0144 -0.1132  0.1480
 6161TIP3    H142678   5.086   6.130   4.673  0.1646  0.8794  0.1861
 6161TIP3    H242679   5.086   6.039   4.794 -2.9915 -1.3327 -1.3399
 6162TIP3   OH242680   6.253   4.670   3.658 -0.5562  0.3466  0.2137
 6162TIP3    H142681   6.182   4.725   3.622 -0.9009  2.4161  3.5760
 6162TIP3    H242682   6.262   4.700   3.748  3.1131 -1.4545  0.6123
 6163TIP3   OH242683   0.350   5.658   2.472  0.1815 -0.0095  0.7650
 6163TIP3    H142684   0.430   5.618   2.438  0.8326 -0.0107  2.2173
 6163TIP3    H242685   0.379   5.740   2.512 -0.7075  0.5023  0.3870
 6164TIP3   OH242686   5.994   3.322   2.252 -0.0191 -0.7066  0.2662
 6164TIP3    H142687   5.925   3.258   2.272  0.9585 -1.5028  1.2678
 6164TIP3    H242688   6.036   3.288   2.173  0.3824 -1.2362  0.6955
 6165TIP3   OH242689   5.535   2.769   2.287  1.0384  0.3589  0.3335
 6165TIP3    H142690   5.583   2.815   2.219  2.0523  0.2034  0.9259
 6165TIP3    H242691   5.596   2.703   2.320 -1.2613 -3.5910 -2.4910
 6166TIP3   OH242692   4.745   5.562   2.408  0.3948 -0.0990  0.3599
 6166TIP3    H142693   4.676   5.617   2.446 -0.4363 -0.0863 -1.1242
 6166TIP3    H242694   4.724   5.474   2.438 -1.7618 -0.5003 -2.0405
 6167TIP3   OH242695   6.546   0.278   4.278 -0.5659 -0.1438  0.4009
 6167TIP3    H142696   6.466   0.242   4.315 -1.3196 -0.8205 -1.7392
 6167TIP3    H242697   6.609   0.206   4.283 -1.1751 -0.8236 -1.1025
 6168TIP3   OH242698   1.799   6.390   2.127  0.0389 -0.3899 -0.5365
 6168TIP3    H142699   1.747   6.444   2.068  1.1034  0.1223 -1.0340
 6168TIP3    H242700   1.884   6.434   2.132  0.2657 -0.9083  0.6831
 6169TIP3   OH242701   5.227   2.579  10.045  0.4684 -0.4779  0.2885
 6169TIP3    H142702   5.140   2.581  10.008  0.8229  1.7210 -0.5944
 6169TIP3    H242703   5.278   2.525   9.985  0.1810 -0.0268 -0.3740
 6170TIP3   OH242704   4.015   0.373   0.892  0.5763  0.1663  0.2193
 6170TIP3    H142705   4.020   0.375   0.987  1.6390  0.7965  0.1673
 6170TIP3    H242706   4.015   0.465   0.865  0.5694 -0.0044 -0.3923
 6171TIP3   OH242707   3.414   1.263   2.367  0.1165  0.1523  0.0752
 6171TIP3    H142708   3.492   1.211   2.388 -0.7798 -0.8505  0.9999
 6171TIP3    H242709   3.448   1.336   2.315  1.4428 -1.2181 -1.0962
 6172TIP3   OH242710   3.812   1.166   1.999  0.3005 -0.5737  0.1997
 6172TIP3    H142711   3.831   1.072   2.003  1.5930 -0.2899  1.9140
 6172TIP3    H242712   3.867   1.205   2.067  0.5278  1.5644 -1.1016
 6173TIP3   OH242713   4.943   4.749   1.958 -0.1142  0.1114  0.0019
 6173TIP3    H142714   5.014   4.790   2.008 -0.6246 -2.2345  2.9761
 6173TIP3    H242715   4.986   4.686   1.901  0.2822 -0.3207  0.7717
 6174TIP3   OH242716   3.823   1.601   1.540  0.0766  0.1225  0.0249
 6174TIP3    H142717   3.903   1.604   1.488  0.1455  0.9139  0.1655
 6174TIP3    H242718   3.853   1.597   1.631 -0.0113 -3.2647  0.0126
 6175TIP3   OH242719   2.256   0.973   2.832  0.0813  0.0322  0.2326
 6175TIP3    H142720   2.244   0.899   2.891 -0.2576  0.2038  0.3799
 6175TIP3    H242721   2.265   1.048   2.890  1.3301 -0.0068  0.1178
 6176TIP3   OH242722   5.289   1.319   0.891 -0.7459 -1.0026  0.2089
 6176TIP3    H142723   5.367   1.312   0.835 -0.0763  0.6245  0.8659
 6176TIP3    H242724   5.304   1.255   0.961 -0.2331 -1.0566  0.0534
 6177TIP3   OH242725   3.782   0.358   2.570 -0.3596 -0.0536 -0.8502
 6177TIP3    H142726   3.771   0.407   2.652  1.9395  1.4522 -1.3402
 6177TIP3    H242727   3.740   0.412   2.503  0.1863  0.1228 -1.0571
 6178TIP3   OH242728   5.939   5.696   4.166 -0.3025  0.0251 -0.0185
 6178TIP3    H142729   5.921   5.615   4.213 -1.3449  0.3522  0.1711
 6178TIP3    H242730   5.894   5.764   4.216  0.7638  0.7723 -0.0340
 6179TIP3   OH242731   0.035   0.450   2.758  0.0029  0.0868  0.1019
 6179TIP3    H142732  -0.043   0.504   2.754  0.1509  0.3394  0.5288
 6179TIP3    H242733   0.012   0.370   2.711  0.1049  0.9016 -1.4012
 6180TIP3   OH242734   6.270   5.877   4.013 -0.2560 -0.0385  0.3515
 6180TIP3    H142735   6.206   5.908   4.076 -0.2394 -0.9430  0.8350
 6180TIP3    H242736   6.224   5.878   3.929 -0.1382  1.5949  0.2892
 6181TIP3   OH242737   3.770   1.369   3.549  0.3238  0.5915  0.1196
 6181TIP3    H142738   3.835   1.381   3.480 -1.5641  0.7288 -1.7520
 6181TIP3    H242739   3.782   1.444   3.607  0.7087  1.5577 -1.1528
 6182TIP3   OH242740   2.053   4.844   1.703  0.1802 -0.0192  0.1526
 6182TIP3    H142741   2.138   4.800   1.702  0.0928 -0.2404 -1.9624
 6182TIP3    H242742   2.074   4.937   1.715  0.6737 -0.1532  0.3428
 6183TIP3   OH242743   4.472   0.496   1.960 -0.2089  0.0273  0.2795
 6183TIP3    H142744   4.548   0.473   1.907 -0.5925 -0.3593 -0.1140
 6183TIP3    H242745   4.403   0.513   1.896  0.5386  4.4354  0.3581
 6184TIP3   OH242746   0.576   0.763   2.369  0.0312 -0.7129  0.4238
 6184TIP3    H142747   0.506   0.741   2.430  0.3592 -0.6762  0.8187
 6184TIP3    H242748   0.558   0.711   2.291 -0.4918 -0.6270  0.4856
 6185TIP3   OH242749   3.699   4.450   0.818 -0.1035  0.3824  0.1902
 6185TIP3    H142750   3.765   4.380   0.821  0.5052  0.9236 -0.3170
 6185TIP3    H242751   3.616   4.405   0.835  0.3555 -0.3578  0.5381
 6186TIP3   OH242752   0.408   6.030   1.454 -0.4984 -0.0423  0.3463
 6186TIP3    H142753   0.314   6.015   1.444 -0.5117  0.3486 -0.1930
 6186TIP3    H242754   0.432   6.079   1.375  0.1523 -0.1183  0.4966
 6187TIP3   OH242755   3.481   5.045   1.747 -0.2177  0.5489 -0.2840
 6187TIP3    H142756   3.405   5.076   1.796 -0.0982  1.4598 -0.6449
 6187TIP3    H242757   3.551   5.042   1.812 -0.5252 -0.1753  0.0221
 6188TIP3   OH242758   3.369   1.821   3.319 -0.1861 -0.0373  0.4539
 6188TIP3    H142759   3.371   1.872   3.239  1.2547  0.1472  0.5955
 6188TIP3    H242760   3.327   1.879   3.384 -0.5485  0.1319  0.0723
 6189TIP3   OH242761   0.569   5.800   1.516  0.3915  0.2103  0.5876
 6189TIP3    H142762   0.541   5.877   1.466  2.0639  0.5513  0.1202
 6189TIP3    H242763   0.656   5.823   1.549  0.7013 -1.2795  0.8745
 6190TIP3   OH242764   4.422   2.821   3.084 -0.2554  0.1120  0.7815
 6190TIP3    H142765   4.352   2.764   3.114  0.3200 -0.5974  0.8090
 6190TIP3    H242766   4.454   2.778   3.004 -2.6524  2.6290 -1.7435
 6191TIP3   OH242767   4.114   5.162   0.492  0.3590 -0.4004 -0.1491
 6191TIP3    H142768   4.073   5.086   0.533  1.0280 -0.5433  0.2669
 6191TIP3    H242769   4.062   5.179   0.414  1.7291 -2.9186 -1.7284
 6192TIP3   OH242770   4.863   1.459   2.291  0.5074  0.5226 -0.1602
 6192TIP3    H142771   4.862   1.472   2.386  0.5075 -1.1412  0.1032
 6192TIP3    H242772   4.956   1.459   2.269  0.4880  1.4908 -0.2584
 6193TIP3   OH242773   0.060   5.580   3.922 -0.0885 -0.0520 -1.0471
 6193TIP3    H142774   0.119   5.596   3.996 -0.5261 -0.2793 -0.6412
 6193TIP3    H242775   0.006   5.658   3.917 -0.8215 -0.5080 -0.3973
 6194TIP3   OH242776   5.699   1.161   2.258 -0.7893  0.3614 -0.1464
 6194TIP3    H142777   5.788   1.174   2.290 -1.9479  1.5775  2.9792
 6194TIP3    H242778   5.665   1.089   2.310 -1.9862  0.6748 -0.4603
 6195TIP3   OH242779   6.525   4.233   2.654  0.2871  0.4183 -0.2084
 6195TIP3    H142780   6.534   4.162   2.718  1.3680  0.8619  0.1508
 6195TIP3    H242781   6.583   4.208   2.582 -0.2436  0.3623 -0.6269
 6196TIP3   OH242782   6.413   4.048   2.413  0.2052 -0.0992  0.7332
 6196TIP3    H142783   6.325   4.063   2.377  0.4837 -0.0801  0.0337
 6196TIP3    H242784   6.404   4.062   2.507 -0.7490 -1.0108  0.7910
 6197TIP3   OH242785   3.594   1.200   3.688  0.1548 -0.4310 -0.3111
 6197TIP3    H142786   3.575   1.276   3.742  3.1270 -0.0869  0.4459
 6197TIP3    H242787   3.660   1.231   3.626  0.0007 -1.9286 -1.2878
 6198TIP3   OH242788   5.892   3.226   1.445 -0.0810 -0.0847 -0.3263
 6198TIP3    H142789   5.818   3.271   1.402 -0.3970  0.2884  0.5799
 6198TIP3    H242790   5.936   3.179   1.374 -0.0427  1.2479 -1.2207
 6199TIP3   OH242791   6.260   2.999   0.933 -0.1576  0.3669  0.8431
 6199TIP3    H142792   6.165   2.984   0.929 -0.0691 -1.1412  2.6267
 6199TIP3    H242793   6.297   2.925   0.884  0.1109 -0.4753  2.2623
 6200TIP3   OH242794   1.109   4.914   1.976  0.0931  0.7148 -0.1034
 6200TIP3    H142795   1.064   4.848   1.923 -0.3646 -0.3880  1.5699
 6200TIP3    H242796   1.046   4.987   1.982  0.8421  1.6412 -2.4656
 6201TIP3   OH242797   4.287   3.684   3.753  0.3556 -0.2363 -0.5272
 6201TIP3    H142798   4.257   3.691   3.663 -2.1477  1.5913  0.3204
 6201TIP3    H242799   4.301   3.775   3.781 -0.3231 -0.6409  1.3192
 6202TIP3   OH242800   5.816   4.150   3.942 -0.1668  0.2282 -0.0366
 6202TIP3    H142801   5.742   4.090   3.932  0.4069 -0.3789 -0.8356
 6202TIP3    H242802   5.887   4.094   3.975  0.3285  0.4859 -0.6416
 6203TIP3   OH242803   3.744   3.000   3.111 -0.0223 -0.2803  0.4505
 6203TIP3    H142804   3.803   2.928   3.132 -0.4867 -0.7863  0.0404
 6203TIP3    H242805   3.754   3.061   3.184  0.3562 -0.7697  0.8157
 6204TIP3   OH242806   0.163   0.583   1.910 -0.1146 -0.1001  0.2053
 6204TIP3    H142807   0.229   0.533   1.957 -0.9955  0.2619  1.8897
 6204TIP3    H242808   0.192   0.674   1.916 -0.3191 -0.0314  0.1820
 6205TIP3   OH242809   3.722   4.576   2.234  0.3788 -0.3278  0.7272
 6205TIP3    H142810   3.768   4.496   2.208  1.2050  0.5980 -0.8113
 6205TIP3    H242811   3.655   4.546   2.295  1.6069 -2.0057  1.3350
 6206TIP3   OH242812   1.957   1.822   2.752 -0.8767 -0.4333  0.0102
 6206TIP3    H142813   2.026   1.763   2.783  0.1351 -0.2536 -1.7651
 6206TIP3    H242814   1.949   1.803   2.658 -0.9476  1.8127 -0.5001
 6207TIP3   OH242815   3.992   1.355   1.518 -0.1855 -0.5103  0.1423
 6207TIP3    H142816   4.061   1.386   1.577 -0.6415  0.5100  0.1578
 6207TIP3    H242817   3.969   1.268   1.551  0.9072 -0.7526  0.2936
 6208TIP3   OH242818   4.233   1.056   2.427  0.0575 -0.0836  0.0268
 6208TIP3    H142819   4.311   1.056   2.371  0.4205  0.2184  0.5130
 6208TIP3    H242820   4.193   0.970   2.414  0.9769 -0.5972  0.4456
 6209TIP3   OH242821   1.062   0.370   1.730 -0.2344 -0.1174 -0.0197
 6209TIP3    H142822   0.997   0.348   1.662 -0.5436 -1.7995  0.7590
 6209TIP3    H242823   1.010   0.409   1.800 -0.1023  0.3859 -0.1970
 6210TIP3   OH242824   3.919   1.074   2.673  0.0865  0.1734  0.0351
 6210TIP3    H142825   4.000   1.025   2.686  0.6327  0.4774 -1.8175
 6210TIP3    H242826   3.929   1.115   2.587 -1.0601  2.1649  0.7592
 6211TIP3   OH242827   0.194   5.893   0.494  0.8462 -0.4842 -0.7115
 6211TIP3    H142828   0.197   5.801   0.468  0.5347 -0.6487 -0.1816
 6211TIP3    H242829   0.227   5.893   0.584 -1.7788 -0.5005  0.3555
 6212TIP3   OH242830   2.061   6.544   2.293 -0.0576  0.0116 -0.5918
 6212TIP3    H142831   1.988   6.570   2.348  0.1588 -0.4517 -0.0698
 6212TIP3    H242832   2.091   6.625   2.251 -0.5946  0.2672 -0.4797
 6213TIP3   OH242833   0.582   0.730   3.490  0.6125  0.2917 -0.2086
 6213TIP3    H142834   0.536   0.775   3.561  1.3635  0.6862  0.0314
 6213TIP3    H242835   0.674   0.733   3.515  0.6996 -1.2053 -0.2935
 6214TIP3   OH242836   3.906   3.732   2.836  0.2708 -0.3699 -0.1626
 6214TIP3    H142837   3.913   3.636   2.843  0.2461 -0.3503  0.1112
 6214TIP3    H242838   3.812   3.749   2.834  0.2616 -0.2697  0.8684
 6215TIP3   OH242839   0.780   1.523   1.498  0.1680  0.1541 -0.2213
 6215TIP3    H142840   0.747   1.443   1.457 -1.7654  0.8112 -0.0657
 6215TIP3    H242841   0.702   1.577   1.512  1.1057  1.0907  1.8536
 6216TIP3   OH242842   1.998   0.097   3.584  0.2773 -0.0643  0.1665
 6216TIP3    H142843   2.010   0.188   3.556 -1.9220 -0.3013 -1.7934
 6216TIP3    H242844   2.064   0.048   3.535 -0.4198  0.1437 -1.0097
 6217TIP3   OH242845   5.875   2.677   3.005  0.2052  0.0865  0.0075
 6217TIP3    H142846   5.864   2.652   3.097  0.7599 -0.4960 -0.0814
 6217TIP3    H242847   5.797   2.644   2.961 -0.0067  0.2673  0.2435
 6218TIP3   OH242848   3.876   1.109   1.538  0.4277  0.2391  0.3454
 6218TIP3    H142849   3.917   1.060   1.467  1.5608  1.7072 -0.0863
 6218TIP3    H242850   3.782   1.098   1.524  0.5476  1.7324 -2.3850
 6219TIP3   OH242851   0.586   2.277   2.972  0.5919  0.0473  0.0019
 6219TIP3    H142852   0.557   2.206   2.914  0.4233  0.4145 -0.3669
 6219TIP3    H242853   0.575   2.242   3.060  0.0104 -0.1971 -0.1632
 6220TIP3   OH242854   6.179   2.218   2.931 -0.1243 -0.0407  0.2185
 6220TIP3    H142855   6.252   2.173   2.974  0.3347 -0.6421 -1.1496
 6220TIP3    H242856   6.211   2.308   2.919 -0.6823  0.4591  2.0851
 6221TIP3   OH242857   2.085   3.914   2.968  0.5160 -0.2825 -0.4769
 6221TIP3    H142858   2.089   3.988   3.028  0.5000 -1.4951  1.1122
 6221TIP3    H242859   2.003   3.870   2.988  0.8254 -1.0980 -0.9032
 6222TIP3   OH242860   1.566   1.044   3.270 -0.4820  0.3697  0.2689
 6222TIP3    H142861   1.536   1.134   3.264 -1.4414  0.0881  0.7238
 6222TIP3    H242862   1.487   0.992   3.284  0.2731 -0.2695  2.7631
 6223TIP3   OH242863   0.785   1.202   0.967 -0.1770 -0.3861  0.3643
 6223TIP3    H142864   0.761   1.170   0.880  0.5199  0.2715 -0.0835
 6223TIP3    H242865   0.703   1.236   1.003 -0.1431  0.9801 -0.7638
 6224TIP3   OH242866   3.340   4.104   3.737 -0.4831 -0.3689  0.0507
 6224TIP3    H142867   3.299   4.028   3.696 -0.9599  0.6789 -1.4726
 6224TIP3    H242868   3.421   4.070   3.775 -0.4264 -1.5373 -1.0571
 6225TIP3   OH242869   1.781   4.464   2.831 -0.0841 -0.1672 -0.1274
 6225TIP3    H142870   1.864   4.509   2.822  0.1665 -0.2038  1.7507
 6225TIP3    H242871   1.715   4.533   2.819  0.2895  0.7609  2.4929
 6226TIP3   OH242872   5.170   6.170   0.593 -0.0780 -0.2214  0.4385
 6226TIP3    H142873   5.261   6.147   0.611 -0.5568 -1.2989  1.6962
 6226TIP3    H242874   5.121   6.131   0.666 -1.6245 -0.3040 -0.5945
 6227TIP3   OH242875   0.047   0.371   3.929  0.5998  0.1120  0.1160
 6227TIP3    H142876   0.058   0.430   3.855  0.3541  0.8414  0.6496
 6227TIP3    H242877   0.079   0.286   3.897 -0.6846  0.0942 -1.2370
 6228TIP3   OH242878   2.059   6.321   1.300 -0.1783 -0.4177 -0.2294
 6228TIP3    H142879   2.036   6.343   1.210 -0.2470 -0.3520 -0.1957
 6228TIP3    H242880   1.978   6.286   1.337  0.2664 -2.0593 -0.7015
 6229TIP3   OH242881   3.173   4.875   2.445 -0.3199 -0.1058 -0.1420
 6229TIP3    H142882   3.152   4.791   2.405  0.1248  0.0041 -0.6186
 6229TIP3    H242883   3.097   4.895   2.501 -1.0569 -0.1598 -1.0945
 6230TIP3   OH242884   2.668   5.071   2.115  0.4218  0.6282  0.2201
 6230TIP3    H142885   2.753   5.102   2.082 -0.2450  0.6378 -1.5864
 6230TIP3    H242886   2.647   4.995   2.060 -0.4953  0.3025  0.9959
 6231TIP3   OH242887   3.043   6.593   3.441  1.1459 -0.3084  0.0100
 6231TIP3    H142888   2.971   6.652   3.417  0.9132  0.2244  1.8519
 6231TIP3    H242889   3.122   6.637   3.411  0.8625  0.2893  0.1335
 6232TIP3   OH242890   2.074   4.441   3.387  0.4532  0.3012 -0.6057
 6232TIP3    H142891   2.027   4.370   3.430  0.5100  1.4663  1.5406
 6232TIP3    H242892   2.161   4.406   3.370 -0.2349 -0.8987 -1.8712
 6233TIP3   OH242893   4.502   2.939   2.288  0.3979  0.1316 -0.8083
 6233TIP3    H142894   4.581   2.903   2.329  0.1568 -0.0755 -0.5180
 6233TIP3    H242895   4.502   2.902   2.200  1.7708  1.8284 -1.5837
 6234TIP3   OH242896   5.436   6.072   2.810 -0.3044 -0.1923 -0.3811
 6234TIP3    H142897   5.373   6.001   2.811  0.4886 -0.9076  0.0879
 6234TIP3    H242898   5.519   6.031   2.835 -0.3303  1.3670  2.7641
 6235TIP3   OH242899   0.815   0.784   0.585  0.0398  0.3023  0.3821
 6235TIP3    H142900   0.821   0.875   0.554 -0.4313  0.0327 -0.5135
 6235TIP3    H242901   0.721   0.768   0.592  0.1197  0.4064  2.1295
 6236TIP3   OH242902   2.839   1.161   0.650 -0.1991  0.1161 -0.3185
 6236TIP3    H142903   2.748   1.145   0.624 -1.0102  0.9806  1.7541
 6236TIP3    H242904   2.846   1.121   0.737  1.2468  0.5726 -0.2046
 6237TIP3   OH242905   1.991   3.002   1.522  1.2057  0.3360 -0.1054
 6237TIP3    H142906   2.057   2.980   1.456 -0.5068  0.9410 -2.1086
 6237TIP3    H242907   1.971   2.919   1.564  1.5604 -0.2783 -1.1046
 6238TIP3   OH242908   3.578   2.521   1.222  0.1798  0.2089  0.7467
 6238TIP3    H142909   3.536   2.532   1.308  0.8943  3.0135  0.8488
 6238TIP3    H242910   3.672   2.524   1.241  0.4231 -1.5325  0.0476
 6239TIP3   OH242911   1.297   5.502   2.687  0.2619  0.1983  0.1546
 6239TIP3    H142912   1.234   5.539   2.625  0.9021  1.5223  0.2559
 6239TIP3    H242913   1.344   5.435   2.637  0.3147  0.7895 -0.6026
 6240TIP3   OH242914   0.893   4.878   3.294 -0.2705  0.0598 -0.5014
 6240TIP3    H142915   0.894   4.783   3.288 -0.4777  0.1069 -1.5549
 6240TIP3    H242916   0.942   4.898   3.373 -1.2485 -0.9614  0.4079
 6241TIP3   OH242917   2.346   1.583   2.134  0.5659 -0.2901 -0.1334
 6241TIP3    H142918   2.290   1.529   2.078 -0.0963  1.5421 -1.3108
 6241TIP3    H242919   2.430   1.537   2.134  0.2663 -0.9139 -1.7796
 6242TIP3   OH242920   4.402   1.339   2.498  0.6960 -0.6819 -0.5459
 6242TIP3    H142921   4.344   1.333   2.574 -0.4388 -0.1483 -1.3418
 6242TIP3    H242922   4.487   1.309   2.530  0.9980  2.1160  1.7062
 6243TIP3   OH242923   1.527   5.065   1.687 -0.4539  0.4475  0.1068
 6243TIP3    H142924   1.572   5.149   1.677 -0.8612  0.4711 -2.1972
 6243TIP3    H242925   1.443   5.088   1.728 -1.2836  1.4943 -2.0159
 6244TIP3   OH242926   1.040   4.940   3.543  0.2729  0.1017  0.1949
 6244TIP3    H142927   1.084   4.863   3.577 -0.9740  0.1330  1.9910
 6244TIP3    H242928   1.030   4.998   3.618 -0.7396  1.0882 -0.6574
 6245TIP3   OH242929   1.450   6.187   2.122  0.8008 -0.1122 -0.3677
 6245TIP3    H142930   1.400   6.268   2.110 -1.6258 -1.0170  2.5873
 6245TIP3    H242931   1.397   6.134   2.180  3.9948 -2.3828  0.7527
 6246TIP3   OH242932   0.957   4.060   2.758 -0.0024 -0.4659  0.0882
 6246TIP3    H142933   0.925   4.139   2.715 -0.5952  0.4876  2.1502
 6246TIP3    H242934   0.909   3.989   2.717  0.4605  0.2339 -1.7356
 6247TIP3   OH242935   4.626   4.000   0.973  0.2550  0.7255  0.4431
 6247TIP3    H142936   4.542   3.998   1.019 -0.3129  0.9196 -0.5510
 6247TIP3    H242937   4.634   4.091   0.943  0.6410  0.6197  0.2242
 6248TIP3   OH242938   1.607   6.375   1.495  0.6037 -0.2745  0.3899
 6248TIP3    H142939   1.597   6.302   1.434 -1.1149  0.8330 -0.7594
 6248TIP3    H242940   1.549   6.354   1.568  1.2934 -0.7590  0.8096
 6249TIP3   OH242941   3.549   6.439   1.359 -0.4001  0.0305 -0.2824
 6249TIP3    H142942   3.642   6.416   1.351 -0.1730  1.0898 -0.7715
 6249TIP3    H242943   3.505   6.382   1.296  0.2253  1.3038 -1.9290
 6250TIP3   OH242944   1.045   1.463   3.082 -0.3989  0.6042  0.0348
 6250TIP3    H142945   1.020   1.499   3.167 -1.8887 -0.0679 -0.1001
 6250TIP3    H242946   0.984   1.503   3.020 -1.5624 -1.4383 -0.2375
 6251TIP3   OH242947   3.316   6.408   3.011  0.1107 -0.2414  0.3597
 6251TIP3    H142948   3.237   6.387   3.061 -0.4454  0.8744 -0.0069
 6251TIP3    H242949   3.289   6.403   2.919 -0.0331  1.7774  0.2361
 6252TIP3   OH242950   6.253   5.211   3.404  0.2649  0.5341 -0.1771
 6252TIP3    H142951   6.246   5.145   3.473  0.9822 -0.7413 -1.2848
 6252TIP3    H242952   6.173   5.263   3.413 -0.2501 -0.3851  0.8183
 6253TIP3   OH242953   1.586   0.089   2.361  1.0844 -0.1282 -0.2719
 6253TIP3    H142954   1.501   0.133   2.372  1.0139 -0.4550  0.5071
 6253TIP3    H242955   1.588   0.023   2.430  1.1655 -1.4003 -1.4542
 6254TIP3   OH242956   0.321   1.002   0.806  0.5469 -0.5312 -0.1165
 6254TIP3    H142957   0.384   1.046   0.748  1.4587 -2.0179 -0.3005
 6254TIP3    H242958   0.362   0.918   0.826 -0.4396 -0.6603  1.4934
 6255TIP3   OH242959   0.295   5.299   2.801  0.5960 -0.2995 -0.7889
 6255TIP3    H142960   0.284   5.372   2.863  0.2859  0.2232 -1.4454
 6255TIP3    H242961   0.370   5.324   2.748  1.9950 -1.5821  0.5025
 6256TIP3   OH242962   3.277   1.622   1.453 -0.5083 -0.0317  0.1951
 6256TIP3    H142963   3.226   1.564   1.396  0.0090 -1.1758  0.8721
 6256TIP3    H242964   3.270   1.584   1.540  1.5744 -0.3088  0.3007
 6257TIP3   OH242965   4.618   5.956   1.490 -0.0875 -0.1537 -0.2511
 6257TIP3    H142966   4.561   6.003   1.429  0.9992 -0.6317 -1.6923
 6257TIP3    H242967   4.704   5.995   1.477  0.5393 -1.5446 -0.4247
 6258TIP3   OH242968   4.602   0.502   3.342  0.2363  0.2005  0.1615
 6258TIP3    H142969   4.598   0.594   3.316 -1.3688  0.9194  2.6339
 6258TIP3    H242970   4.512   0.470   3.333  0.5341 -0.7702  0.5262
 6259TIP3   OH242971   3.275   5.527   1.894 -0.1682 -0.1143  0.3177
 6259TIP3    H142972   3.194   5.487   1.863 -1.3339  1.2637  1.4048
 6259TIP3    H242973   3.329   5.454   1.924 -0.6080 -1.1264 -1.2414
 6260TIP3   OH242974   0.920   4.925   2.860  0.1339  0.0070  0.3684
 6260TIP3    H142975   0.965   4.936   2.944  2.1721  1.8636 -0.8532
 6260TIP3    H242976   0.857   4.998   2.858 -1.4249 -1.2639  1.1102
 6261TIP3   OH242977   4.844   1.803   2.858  0.0895  0.0707  0.1252
 6261TIP3    H142978   4.876   1.871   2.798 -1.2774  1.0813  0.5081
 6261TIP3    H242979   4.922   1.750   2.876  0.8653  0.6364 -1.3463
 6262TIP3   OH242980   3.051   2.493   3.345  0.2592  0.2965 -0.1298
 6262TIP3    H142981   3.133   2.453   3.316  0.3990  1.2084 -1.0582
 6262TIP3    H242982   3.078   2.563   3.404  0.1103  0.2429  0.0041
 6263TIP3   OH242983   5.383   1.060   2.127 -0.7079 -0.0579 -0.3227
 6263TIP3    H142984   5.386   0.977   2.174 -1.6220 -0.5343 -1.0635
 6263TIP3    H242985   5.443   1.117   2.174 -0.5875 -0.9295  0.6038
 6264TIP3   OH242986   2.503   0.883   0.387  0.2143  0.8237  0.0948
 6264TIP3    H142987   2.449   0.818   0.432  1.2529 -0.1749 -0.0524
 6264TIP3    H242988   2.490   0.864   0.294  1.5193 -0.0591  0.0655
 6265TIP3   OH242989   4.741   4.613   3.431  0.1449 -0.3815  0.0786
 6265TIP3    H142990   4.736   4.579   3.521  0.4206 -0.8969 -0.0971
 6265TIP3    H242991   4.764   4.537   3.378  1.4475  0.2107 -0.2398
 6266TIP3   OH242992   1.385   0.296   3.507 -0.2640 -0.2354  0.2463
 6266TIP3    H142993   1.406   0.344   3.588 -1.3987  0.0319  0.3964
 6266TIP3    H242994   1.354   0.364   3.447  0.4490 -0.4536 -0.3782
 6267TIP3   OH242995   2.108   2.055   1.516 -0.0291 -0.1758 -0.1227
 6267TIP3    H142996   2.035   2.005   1.480  0.4252 -0.2597 -0.9667
 6267TIP3    H242997   2.141   2.000   1.587  0.8610 -1.4342 -1.4411
 6268TIP3   OH242998   6.002   2.316   2.479 -0.2684  0.6417  0.2144
 6268TIP3    H142999   6.029   2.266   2.556 -0.7468 -0.2363 -0.1765
 6268TIP3    H243000   6.081   2.321   2.424 -0.3430 -0.1033  0.0361
 6269TIP3   OH243001   5.556   4.742   2.195 -0.2298 -0.3423  0.0309
 6269TIP3    H143002   5.597   4.691   2.265  0.3385 -2.6551 -1.8627
 6269TIP3    H243003   5.470   4.702   2.183 -0.8106  0.8185  0.1756
 6270TIP3   OH243004   3.508   3.535   2.263 -0.3991  0.3133 -0.4761
 6270TIP3    H143005   3.489   3.448   2.228 -0.5821  0.0567  0.2429
 6270TIP3    H243006   3.434   3.590   2.235 -0.6391  0.0641 -0.3328
 6271TIP3   OH243007   1.649   3.576   3.087  0.1812  0.1005 -0.5145
 6271TIP3    H143008   1.600   3.601   3.009  0.0063 -0.0608 -0.4582
 6271TIP3    H243009   1.609   3.626   3.158 -0.1914 -0.3569 -0.3967
 6272TIP3   OH243010   3.014   5.315   2.604  0.2360 -0.8319 -0.3846
 6272TIP3    H143011   3.068   5.321   2.525  1.4823  1.5172  0.5615
 6272TIP3    H243012   3.071   5.342   2.675 -1.1516 -1.9137  1.2319
 6273TIP3   OH243013   3.687   4.576   1.551 -0.0943  0.2200  0.3144
 6273TIP3    H143014   3.609   4.624   1.578 -0.6728 -0.6787  0.2772
 6273TIP3    H243015   3.736   4.563   1.632  0.1033  0.9261  0.3137
 6274TIP3   OH243016   2.301   2.871   1.435 -0.4715 -0.0786  0.3384
 6274TIP3    H143017   2.309   2.869   1.530 -0.3104 -0.9036  0.3123
 6274TIP3    H243018   2.391   2.882   1.403 -0.4708 -0.2713  0.2716
 6275TIP3   OH243019   5.568   4.179   3.620 -0.2430  0.0786 -0.4092
 6275TIP3    H143020   5.512   4.105   3.644 -1.9633  0.8626 -1.7467
 6275TIP3    H243021   5.527   4.215   3.542  1.2467  1.7195 -0.4907
 6276TIP3   OH243022   5.995   0.144   2.585 -0.6273 -0.0660 -0.1497
 6276TIP3    H143023   5.924   0.200   2.616  0.5445  0.5798  1.5763
 6276TIP3    H243024   6.074   0.197   2.598  0.2058 -0.7607 -1.9935
 6277TIP3   OH243025   3.287   0.656   2.269 -0.4864  0.0568 -0.1594
 6277TIP3    H143026   3.297   0.561   2.262  1.9146  0.2747 -0.8513
 6277TIP3    H243027   3.248   0.683   2.186  1.1337 -0.1556 -1.0521
 6278TIP3   OH243028   6.146   2.861   2.098  0.3329 -0.5394  0.2387
 6278TIP3    H143029   6.223   2.912   2.121  0.2273  0.0608 -0.6908
 6278TIP3    H243030   6.180   2.789   2.044  0.2721 -0.4173  0.0368
 6279TIP3   OH243031   2.154   5.507   0.388  0.1417  0.0389 -0.9565
 6279TIP3    H143032   2.143   5.593   0.429 -0.9138  0.6205 -2.3721
 6279TIP3    H243033   2.238   5.512   0.344  0.8542 -0.2641  0.3317
 6280TIP3   OH243034   2.033   3.842   3.751 -0.1546 -0.3397 -0.0861
 6280TIP3    H143035   2.079   3.764   3.719  0.2402  0.5274 -1.7269
 6280TIP3    H243036   1.953   3.808   3.790  0.6254 -1.6655  0.4411
 6281TIP3   OH243037   5.041   0.934   1.194 -0.2578 -0.7046  0.3402
 6281TIP3    H143038   4.979   0.875   1.236 -0.8022  0.3620  1.0962
 6281TIP3    H243039   4.989   1.013   1.174  0.3766 -0.5659 -0.8873
 6282TIP3   OH243040   0.768   2.043   2.271  0.2417  0.3032 -0.4580
 6282TIP3    H143041   0.820   1.985   2.326 -0.9240 -0.3119  0.0407
 6282TIP3    H243042   0.830   2.080   2.208  1.3395 -0.0425  0.4066
 6283TIP3   OH243043   0.665   4.211   3.549 -0.0939 -0.6037 -0.1073
 6283TIP3    H143044   0.711   4.173   3.624 -0.1425 -2.4438 -0.9732
 6283TIP3    H243045   0.727   4.205   3.477  0.0382  1.3720 -0.2226
 6284TIP3   OH243046   5.350   4.412   2.920 -0.4182 -0.1732 -0.1182
 6284TIP3    H143047   5.434   4.423   2.965 -0.0444 -1.5896 -0.4240
 6284TIP3    H243048   5.291   4.379   2.987 -0.0398 -1.6254 -0.4654
 6285TIP3   OH243049   2.189   6.025   0.704 -0.0532 -0.1002  0.4097
 6285TIP3    H143050   2.234   5.968   0.766  0.7167  0.1217  0.0717
 6285TIP3    H243051   2.109   6.051   0.749  0.6492  0.3399  1.4528
 6286TIP3   OH243052   5.157   1.464   2.692  0.7686 -0.1486 -0.1037
 6286TIP3    H143053   5.244   1.499   2.672  1.2816 -0.4570  1.4443
 6286TIP3    H243054   5.118   1.528   2.750 -0.0886  0.0222 -0.8482
 6287TIP3   OH243055   5.950   6.427   0.542 -0.3051  0.2720 -0.0371
 6287TIP3    H143056   5.943   6.520   0.522 -0.6552  0.3957  0.6469
 6287TIP3    H243057   5.867   6.390   0.513 -0.7970  0.4446  1.1083
 6288TIP3   OH243058   3.256   1.472   1.687 -0.6767 -0.0678 -0.8835
 6288TIP3    H143059   3.259   1.487   1.781 -1.9704 -0.7958 -0.7046
 6288TIP3    H243060   3.189   1.405   1.675  0.9385 -1.5618 -2.1385
 6289TIP3   OH243061   5.290   6.310   2.287 -0.3704 -0.0298 -0.1008
 6289TIP3    H143062   5.216   6.260   2.323 -0.3619  0.0817  0.0742
 6289TIP3    H243063   5.353   6.243   2.260 -0.8982 -0.1516 -1.0532
 6290TIP3   OH243064   3.599   3.824   1.038 -0.6851  0.3334 -0.2206
 6290TIP3    H143065   3.578   3.853   0.949 -1.0326  0.5042 -0.0847
 6290TIP3    H243066   3.683   3.779   1.029 -2.9673 -4.2560 -1.5804
 6291TIP3   OH243067   6.459   0.894   2.473 -0.1312  0.6314  0.0264
 6291TIP3    H143068   6.518   0.841   2.418 -0.9032 -0.6139  0.3702
 6291TIP3    H243069   6.517   0.959   2.513  1.0766 -0.6437  0.4709
 6292TIP3   OH243070   3.891   4.954   1.409  0.3533 -0.1655  0.1882
 6292TIP3    H143071   3.857   4.917   1.328  0.7408  0.2030 -0.1431
 6292TIP3    H243072   3.813   4.966   1.464  0.1231 -0.6530 -0.0291
 6293TIP3   OH243073   0.328   5.888   0.742  0.1468 -0.0710 -0.2571
 6293TIP3    H143074   0.418   5.881   0.775  0.0368  1.5377  0.5030
 6293TIP3    H243075   0.294   5.968   0.783 -1.4454 -0.3365 -0.9835
 6294TIP3   OH243076   3.267   5.753   3.265 -0.0207  0.4294 -0.0205
 6294TIP3    H143077   3.319   5.797   3.199 -0.0071  1.1161  0.4399
 6294TIP3    H243078   3.218   5.823   3.308  3.8938  0.9286  4.3529
 6295TIP3   OH243079   0.065   4.206   1.658  0.5372 -0.4478 -0.3835
 6295TIP3    H143080   0.136   4.173   1.603 -0.5962 -0.7953 -1.7085
 6295TIP3    H243081   0.072   4.301   1.653  1.3245 -0.4797  0.0669
 6296TIP3   OH243082   6.082   1.617   2.722  0.2246  0.0270  0.7562
 6296TIP3    H143083   6.009   1.653   2.673 -0.8861 -0.3478  2.0666
 6296TIP3    H243084   6.159   1.664   2.689 -0.3366 -0.7457 -1.8197
 6297TIP3   OH243085   1.802   0.531   1.955  0.5029 -0.2272 -0.5529
 6297TIP3    H143086   1.739   0.520   2.027  0.2093  0.3290 -0.7153
 6297TIP3    H243087   1.885   0.500   1.991  0.3727  0.0991  0.0544
 6298TIP3   OH243088   0.117   3.594   0.995 -0.6402 -0.4139  0.1964
 6298TIP3    H143089   0.055   3.522   0.992 -0.3403 -0.9141  2.9618
 6298TIP3    H243090   0.131   3.610   1.089  1.7440  1.1100 -0.3177
 6299TIP3   OH243091   3.688   0.342   3.906 -0.6169  0.0291 -0.7801
 6299TIP3    H143092   3.749   0.416   3.900 -1.3429  0.9657  1.9035
 6299TIP3    H243093   3.601   0.382   3.902 -1.0901 -1.0348 -2.0930
 6300TIP3   OH243094   0.194   4.504   2.539  0.0873  0.1343 -0.4399
 6300TIP3    H143095   0.098   4.502   2.531  0.0441  1.3036 -0.4408
 6300TIP3    H243096   0.223   4.423   2.497 -0.8000  0.7182 -2.2914
 6301TIP3   OH243097   1.064   5.479   1.322  0.1721  0.1289  0.7823
 6301TIP3    H143098   0.973   5.511   1.322 -0.3308 -1.1802  1.9720
 6301TIP3    H243099   1.109   5.537   1.384 -0.3694 -0.4587  1.7643
 6302TIP3   OH243100   6.012   0.403   2.401  0.2850  0.2742 -0.2058
 6302TIP3    H143101   5.919   0.382   2.395 -0.0275 -0.0726  3.5873
 6302TIP3    H243102   6.017   0.480   2.457  2.2956 -0.3107  0.5283
 6303TIP3   OH243103   0.885   2.074   0.383  0.1371 -0.0299 -0.0899
 6303TIP3    H143104   0.914   2.149   0.331  0.7850 -1.0891 -1.2793
 6303TIP3    H243105   0.963   2.047   0.432  1.0542 -2.2810 -2.5688
 6304TIP3   OH243106   4.858   2.139   1.935  0.5419  0.4796  0.3401
 6304TIP3    H143107   4.877   2.094   1.852  1.5335  0.0454  0.7864
 6304TIP3    H243108   4.791   2.086   1.976  0.9755 -0.0397  0.3954
 6305TIP3   OH243109   2.589   2.900   0.729 -0.0125  0.2890  0.6070
 6305TIP3    H143110   2.628   2.893   0.641 -1.7093  0.2395 -0.1713
 6305TIP3    H243111   2.597   2.993   0.750  2.6545 -0.0697  1.5229
 6306TIP3   OH243112   5.351   5.662   3.718 -0.0096  0.1079  0.0752
 6306TIP3    H143113   5.374   5.745   3.758  2.0994 -0.2666 -0.2532
 6306TIP3    H243114   5.432   5.631   3.676 -0.6621 -2.1685  0.3171
 6307TIP3   OH243115   3.679   1.444   3.070 -0.0833  0.2270 -0.1296
 6307TIP3    H143116   3.677   1.533   3.108  1.7334 -0.4622  1.7984
 6307TIP3    H243117   3.666   1.457   2.977 -1.5326  2.3657  0.2932
 6308TIP3   OH243118   5.961   6.116   3.232 -0.0340 -0.6398 -0.0047
 6308TIP3    H143119   5.957   6.034   3.183  0.3997 -0.2408 -0.7372
 6308TIP3    H243120   5.935   6.183   3.169 -0.5123 -0.2261  0.6222
 6309TIP3   OH243121   2.764   5.589   2.764  0.8211 -0.3123  0.0808
 6309TIP3    H143122   2.760   5.493   2.767  0.1613 -0.2689  0.8698
 6309TIP3    H243123   2.801   5.608   2.678 -0.8224 -1.2434 -0.8932
 6310TIP3   OH243124   1.200   6.310   1.626 -0.0525  0.1930  0.6239
 6310TIP3    H143125   1.240   6.290   1.541 -0.6143  3.0673 -0.4365
 6310TIP3    H243126   1.106   6.305   1.610 -0.1673 -0.4251  1.4286
 6311TIP3   OH243127   3.005   2.100   3.078 -0.6424  0.1182  0.4783
 6311TIP3    H143128   3.072   2.046   3.121 -2.3589 -1.3420  1.4537
 6311TIP3    H243129   2.963   2.147   3.150  0.0596  1.9508 -0.2459
 6312TIP3   OH243130   0.219   4.771   1.030 -0.2116  0.4821 -0.7527
 6312TIP3    H143131   0.255   4.795   1.115 -0.4555 -0.0662 -0.4909
 6312TIP3    H243132   0.291   4.726   0.986 -0.1002  0.7263 -0.8252
 6313TIP3   OH243133   6.013   4.867   0.671  0.0779  0.2078 -0.0975
 6313TIP3    H143134   6.051   4.935   0.727  0.3266 -0.1496  0.1749
 6313TIP3    H243135   6.088   4.814   0.644 -0.2284 -0.5660  0.5313
 6314TIP3   OH243136   1.025   1.604   1.620  0.1076  0.2300 -0.2160
 6314TIP3    H143137   0.966   1.535   1.589  0.6915  0.4682 -1.9316
 6314TIP3    H243138   0.981   1.685   1.596 -0.2307  0.4806  1.1530
 6315TIP3   OH243139   5.821   3.838   0.892  0.0355 -0.2846 -0.7212
 6315TIP3    H143140   5.800   3.848   0.985  1.3808 -0.1534 -0.4165
 6315TIP3    H243141   5.870   3.756   0.888  0.7318  0.1541 -1.1846
 6316TIP3   OH243142   4.919   4.595   2.617 -0.5765 -0.6848 -0.6809
 6316TIP3    H143143   4.902   4.501   2.616  1.1418 -1.0303 -2.5487
 6316TIP3    H243144   4.972   4.609   2.696 -0.8825 -1.2520 -0.3677
 6317TIP3   OH243145   3.741   3.909   3.480 -0.2036  0.0101 -0.1059
 6317TIP3    H143146   3.714   3.999   3.462 -0.9813 -0.5346 -1.9711
 6317TIP3    H243147   3.771   3.876   3.395 -0.5592 -1.6823  0.3912
 6318TIP3   OH243148   5.167   5.170   3.371 -0.8427 -0.5007 -0.6708
 6318TIP3    H143149   5.244   5.225   3.386 -0.7626 -0.7601 -0.0937
 6318TIP3    H243150   5.184   5.127   3.287  0.2933 -1.6153  0.0976
 6319TIP3   OH243151   4.921   2.057   1.103  0.0515  0.4492 -0.4505
 6319TIP3    H143152   4.887   1.977   1.061 -0.5296  0.2493  0.3753
 6319TIP3    H243153   4.870   2.065   1.184 -0.0872  1.8083 -0.6442
 6320TIP3   OH243154   6.515   0.631   0.974  0.0102  0.7330 -0.1322
 6320TIP3    H143155   6.607   0.628   1.001 -0.0397 -0.1063 -0.0172
 6320TIP3    H243156   6.480   0.709   1.016  0.8666  1.5200 -0.8424
 6321TIP3   OH243157   4.938   2.417   0.670 -0.4499 -0.2256 -0.3297
 6321TIP3    H143158   4.853   2.461   0.663 -0.5893 -0.2131  1.2244
 6321TIP3    H243159   4.920   2.336   0.718  0.1952 -0.8973 -1.1887
 6322TIP3   OH243160   0.424   4.157   3.409  0.5535  0.5482  0.7195
 6322TIP3    H143161   0.499   4.181   3.464 -0.4292  2.2709  1.3883
 6322TIP3    H243162   0.445   4.190   3.322  0.8884  0.3569  0.7278
 6323TIP3   OH243163   4.600   2.135   3.962  0.4909 -0.0132  0.3281
 6323TIP3    H143164   4.536   2.065   3.977  0.3489  0.1997  0.7280
 6323TIP3    H243165   4.683   2.098   3.996  1.1780 -1.2847 -2.4705
 6324TIP3   OH243166   4.209   5.282   0.717 -0.0260 -0.1957  0.2662
 6324TIP3    H143167   4.294   5.237   0.720 -1.1963 -2.5491  1.2463
 6324TIP3    H243168   4.177   5.266   0.629  0.0254 -0.3773  0.2789
 6325TIP3   OH243169   5.823   1.322   1.117 -0.0252 -0.5358  0.5697
 6325TIP3    H143170   5.841   1.371   1.038 -0.5646 -1.1300  0.0633
 6325TIP3    H243171   5.880   1.245   1.112 -0.7840 -1.0908  0.2454
 6326TIP3   OH243172   5.298   0.657   0.367  0.4230  0.6643 -0.0677
 6326TIP3    H143173   5.269   0.733   0.418  2.1875  0.5911  1.1428
 6326TIP3    H243174   5.275   0.679   0.277 -2.2092  1.0794  0.6310
 6327TIP3   OH243175   6.102   5.605   3.250 -0.0305 -0.2310  0.0754
 6327TIP3    H143176   6.015   5.633   3.279  0.1503  2.2502 -1.4556
 6327TIP3    H243177   6.085   5.549   3.175 -0.3271  0.0709 -0.0856
 6328TIP3   OH243178   5.611   1.696   2.763  0.4363  0.2496  0.3303
 6328TIP3    H143179   5.686   1.737   2.807  0.2001 -1.2902  2.3148
 6328TIP3    H243180   5.542   1.696   2.830 -1.0262  0.6956 -1.1199
 6329TIP3   OH243181   5.686   4.394   3.364 -0.0665 -0.1681 -0.0958
 6329TIP3    H143182   5.671   4.473   3.312  1.4212 -0.2679 -0.7404
 6329TIP3    H243183   5.613   4.336   3.342  0.1299  0.0902 -1.5363
 6330TIP3   OH243184   6.122   1.356   1.071  0.0204  0.6456 -0.0470
 6330TIP3    H143185   6.212   1.322   1.071  0.6816  2.3123 -0.4348
 6330TIP3    H243186   6.079   1.308   1.000  0.1624 -1.2035  1.0606
 6331TIP3   OH243187   1.165   3.398   2.616  0.2471  0.4258  0.0955
 6331TIP3    H143188   1.232   3.331   2.631  0.6370  0.8363  0.1937
 6331TIP3    H243189   1.127   3.414   2.702 -3.1557 -3.0356 -0.4575
 6332TIP3   OH243190   3.585   2.111   3.152  0.1662  0.5079  0.0219
 6332TIP3    H143191   3.613   2.027   3.115  2.2762  1.9065 -1.8202
 6332TIP3    H243192   3.666   2.153   3.180 -0.5162  3.0050 -1.5132
 6333TIP3   OH243193   4.377   4.649   1.999 -0.0451  0.0854  0.1590
 6333TIP3    H143194   4.379   4.704   2.077 -0.4394  0.0370  0.2083
 6333TIP3    H243195   4.290   4.664   1.961 -0.0655 -0.3093  0.0371
 6334TIP3   OH243196   4.447   2.260   0.566 -0.3609  0.1048 -0.2330
 6334TIP3    H143197   4.427   2.168   0.545  0.0762 -0.3903  1.4208
 6334TIP3    H243198   4.361   2.299   0.584 -0.4075 -0.4450  0.7989
 6335TIP3   OH243199   1.961   1.820   0.963  0.0563  0.2804  0.0128
 6335TIP3    H143200   2.028   1.855   1.022 -0.2640  0.8896  0.0256
 6335TIP3    H243201   1.905   1.766   1.019  1.9602 -2.3018 -0.4491
 6336TIP3   OH243202   2.266   1.277   0.943  0.5177  0.2309 -0.0421
 6336TIP3    H143203   2.211   1.331   1.001  0.2330  1.6225 -1.5213
 6336TIP3    H243204   2.207   1.209   0.911  0.4577 -0.0558  0.6670
 6337TIP3   OH243205   0.224   3.804   0.579  0.2858 -0.1878 -0.0642
 6337TIP3    H143206   0.226   3.878   0.518 -1.8784  1.1349  1.3451
 6337TIP3    H243207   0.143   3.815   0.628  1.8136 -1.2164  3.0093
 6338TIP3   OH243208   3.582   2.089   1.599  0.3451 -0.2530 -0.6254
 6338TIP3    H143209   3.543   2.069   1.684  0.7933 -1.5156 -0.6921
 6338TIP3    H243210   3.523   2.047   1.536  0.9396 -0.8211 -0.8193
 6339TIP3   OH243211   2.479   0.788   3.504  0.3127 -0.1054 -0.2009
 6339TIP3    H143212   2.479   0.748   3.592  0.0846 -0.6690 -0.4508
 6339TIP3    H243213   2.471   0.882   3.521  3.8003  0.2008  0.5349
 6340TIP3   OH243214   5.053   5.367   2.517 -0.0437  0.0182  0.2106
 6340TIP3    H143215   5.057   5.405   2.429  0.9354  0.4359  0.4283
 6340TIP3    H243216   5.095   5.432   2.573  0.5327 -0.8316  0.7856
 6341TIP3   OH243217   4.597   3.438   0.870  0.2146  0.0906  0.1133
 6341TIP3    H143218   4.572   3.444   0.778  0.3858  2.6248  0.1742
 6341TIP3    H243219   4.513   3.433   0.917  0.0271  1.1593 -0.0810
 6342TIP3   OH243220   6.146   5.031   3.864 -0.0013 -0.5712 -0.3595
 6342TIP3    H143221   6.208   5.012   3.935  0.1612 -2.8701 -1.0588
 6342TIP3    H243222   6.066   4.987   3.890 -1.3621  2.0773  0.3596
 6343TIP3   OH243223   1.024   4.394   2.319 -0.0180  0.4707 -0.0095
 6343TIP3    H143224   1.005   4.458   2.387  1.5608  1.6743 -0.6499
 6343TIP3    H243225   0.961   4.414   2.249 -0.7567  0.0839  0.5210
 6344TIP3   OH243226   3.792   6.175   2.161  0.0181 -0.2224 -0.2811
 6344TIP3    H143227   3.786   6.107   2.228  1.5355 -0.5845 -0.4866
 6344TIP3    H243228   3.866   6.149   2.106 -1.3345 -0.0847 -2.2882
 6345TIP3   OH243229   3.170   6.038   0.988  0.9692  0.6444  0.3019
 6345TIP3    H143230   3.087   5.991   0.996  1.1376  0.1171 -0.8440
 6345TIP3    H243231   3.149   6.128   1.013  0.3724  0.2400  1.3405
 6346TIP3   OH243232   2.926   3.808   1.616 -0.5047  0.6337 -0.6343
 6346TIP3    H143233   2.984   3.883   1.599 -0.6925  0.9682  0.1783
 6346TIP3    H243234   2.982   3.731   1.601  0.9094  0.9184  2.3657
 6347TIP3   OH243235   2.800   6.601   1.717 -0.2843 -0.2639  0.0426
 6347TIP3    H143236   2.797   6.567   1.628 -1.7219  1.5520 -0.6545
 6347TIP3    H243237   2.874   6.662   1.717 -1.0388  0.6648 -0.2817
 6348TIP3   OH243238   0.204   2.634   2.362 -0.6113 -0.3210  0.2764
 6348TIP3    H143239   0.252   2.576   2.421  0.3120 -0.9873 -1.0755
 6348TIP3    H243240   0.239   2.721   2.379 -2.0294 -0.0790  2.3533
 6349TIP3   OH243241   6.242   1.087   1.627  0.2956 -0.3523 -0.1584
 6349TIP3    H143242   6.303   1.160   1.635 -1.0659  0.9962 -1.3845
 6349TIP3    H243243   6.298   1.010   1.617  1.7760  0.6355  0.1488
 6350TIP3   OH243244   1.621   5.566   1.545  0.0783 -0.4446 -0.5445
 6350TIP3    H143245   1.526   5.565   1.538  0.1664  0.1911 -2.4158
 6350TIP3    H243246   1.651   5.492   1.492  0.6263 -1.3326  0.9359
 6351TIP3   OH243247   6.426   2.522   2.321 -0.4246  0.6498  0.2953
 6351TIP3    H143248   6.468   2.602   2.351  0.7546 -0.0330  0.5326
 6351TIP3    H243249   6.499   2.466   2.291 -1.3310  0.2550 -1.3058
 6352TIP3   OH243250   0.602   6.438   1.982  0.0852  0.4833  0.8179
 6352TIP3    H143251   0.607   6.514   2.041  0.4501 -0.3324  1.8794
 6352TIP3    H243252   0.669   6.455   1.916 -0.1645  1.3063  0.7583
 6353TIP3   OH243253   5.151   0.706   3.747 -0.5006  0.1571 -0.6332
 6353TIP3    H143254   5.124   0.795   3.727 -1.2550 -0.0597 -0.6161
 6353TIP3    H243255   5.102   0.684   3.827  0.0098 -0.1210 -0.3922
 6354TIP3   OH243256   3.791   3.032   2.844  0.1257  0.2237  0.1093
 6354TIP3    H143257   3.868   2.982   2.817  0.0360  0.2735 -0.2450
 6354TIP3    H243258   3.787   3.021   2.939 -0.6097 -1.4981 -0.0791
 6355TIP3   OH243259   2.030   0.159   2.735  0.3503  0.4063  0.5304
 6355TIP3    H143260   2.028   0.255   2.730 -2.1992  0.3796 -0.8835
 6355TIP3    H243261   2.013   0.139   2.827 -0.9443  1.3670  0.5409
 6356TIP3   OH243262   5.288   0.089   0.674 -0.0912 -0.0967 -0.1500
 6356TIP3    H143263   5.312   0.086   0.582  3.0238  1.5285  0.4264
 6356TIP3    H243264   5.358   0.041   0.718 -0.8078  0.2576  1.4509
 6357TIP3   OH243265   0.996   4.700   1.808 -0.1381  0.2154  0.1480
 6357TIP3    H143266   1.059   4.660   1.868  0.1921 -0.5960 -0.7170
 6357TIP3    H243267   1.023   4.670   1.721 -1.5320  0.0960 -0.2689
 6358TIP3   OH243268   6.046   1.915   1.741  0.4717 -0.2308  0.1983
 6358TIP3    H143269   5.950   1.908   1.737  0.3644 -1.5230  2.7584
 6358TIP3    H243270   6.065   2.000   1.703 -1.6636 -0.0966 -0.7299
 6359TIP3   OH243271   4.451   0.915   3.415  0.2900  0.2734 -0.1456
 6359TIP3    H143272   4.470   0.942   3.505 -0.5120  0.6689 -0.0846
 6359TIP3    H243273   4.359   0.889   3.417  0.5132 -0.5925 -0.6521
 6360TIP3   OH243274   5.898   0.271   1.387  0.1765  0.3018  0.2908
 6360TIP3    H143275   5.880   0.329   1.313 -0.0978  1.9888  1.6410
 6360TIP3    H243276   5.839   0.197   1.373 -1.1936  1.4450 -0.2375
 6361TIP3   OH243277   4.072   0.808   2.280 -0.2949 -0.1420  0.3072
 6361TIP3    H143278   4.018   0.756   2.339  1.1260 -1.5621  0.4158
 6361TIP3    H243279   4.158   0.766   2.283  0.6046  1.5586 -0.4831
 6362TIP3   OH243280   2.249   1.536   0.678  0.0089 -0.4424 -0.3864
 6362TIP3    H143281   2.239   1.441   0.677  2.0100 -0.7475  1.4276
 6362TIP3    H243282   2.298   1.554   0.759  0.2876  2.0695 -1.0348
 6363TIP3   OH243283   6.063   1.338   2.730  0.1544  0.3504 -0.0348
 6363TIP3    H143284   6.087   1.427   2.703  0.1273  0.8986  1.6598
 6363TIP3    H243285   6.144   1.299   2.762  0.3748 -0.6127 -1.6189
 6364TIP3   OH243286   4.162   6.464   4.200  0.1700 -0.2424 -0.1209
 6364TIP3    H143287   4.187   6.457   4.292  0.4810  0.9745 -0.0868
 6364TIP3    H243288   4.067   6.479   4.203  0.3378  0.8728  0.0778
 6365TIP3   OH243289   3.910   2.353   1.936  0.1413  0.0296  0.1148
 6365TIP3    H143290   3.924   2.393   2.022  1.2316  0.1990 -0.1163
 6365TIP3    H243291   3.947   2.265   1.945 -1.6584 -0.7375  0.4290
 6366TIP3   OH243292   0.539   5.701   0.893 -0.0513 -0.6828  0.4738
 6366TIP3    H143293   0.541   5.605   0.893  0.4205 -0.6735  0.4467
 6366TIP3    H243294   0.618   5.727   0.846  0.0409 -0.2738  0.8476
 6367TIP3   OH243295   0.704   0.040   3.914  1.0890 -0.5951 -0.4529
 6367TIP3    H143296   0.710   0.116   3.972  1.3703 -1.5378  0.7990
 6367TIP3    H243297   0.774  -0.019   3.943 -0.5266 -2.3393  0.1946
 6368TIP3   OH243298   3.739   1.709   3.125 -0.3513 -0.4591 -0.0486
 6368TIP3    H143299   3.828   1.675   3.113  1.1532  2.5159  1.5870
 6368TIP3    H243300   3.736   1.736   3.217 -1.3842  3.4284 -1.0630
 6369TIP3   OH243301   3.889   4.519   3.217 -0.0751  0.3508  0.2492
 6369TIP3    H143302   3.821   4.486   3.276 -1.1907 -1.6760 -2.0033
 6369TIP3    H243303   3.968   4.473   3.244 -0.3505  0.1913  0.8005
 6370TIP3   OH243304   0.782   3.236   2.690 -0.0030 -0.2158 -0.1118
 6370TIP3    H143305   0.740   3.309   2.736  0.4264  0.3319 -0.5782
 6370TIP3    H243306   0.761   3.159   2.743 -2.2028 -0.0775 -0.6988
 6371TIP3   OH243307   5.071   0.405   1.408  0.0632  0.2679 -0.4931
 6371TIP3    H143308   5.080   0.411   1.313 -1.6718 -1.0231 -0.7901
 6371TIP3    H243309   5.086   0.495   1.439 -1.2166  1.1238 -2.1740
 6372TIP3   OH243310   3.580   5.753   2.587  0.2258  0.2637 -0.0488
 6372TIP3    H143311   3.523   5.702   2.644  1.2884 -1.6405 -0.5934
 6372TIP3    H243312   3.652   5.783   2.643  1.3643 -1.7578 -0.3322
 6373TIP3   OH243313   1.576   6.204   1.313  0.3128  0.9153 -0.0322
 6373TIP3    H143314   1.627   6.129   1.344  1.8639  1.6578 -0.6536
 6373TIP3    H243315   1.564   6.188   1.220 -0.5120  0.8057  0.0903
 6374TIP3   OH243316   1.338   2.922   0.755 -0.5449  0.2665  0.6845
 6374TIP3    H143317   1.424   2.900   0.790 -0.7376  0.4373  1.2790
 6374TIP3    H243318   1.318   2.852   0.693  0.8388  1.1936 -0.9146
 6375TIP3   OH243319   4.997   0.616   3.972  0.7128  0.2342  0.5467
 6375TIP3    H143320   4.927   0.677   3.951  0.7567  0.0429 -0.1572
 6375TIP3    H243321   5.003   0.619   4.068 -1.8801 -1.5337  0.8729
 6376TIP3   OH243322   5.333   0.200   0.346 -0.1982 -0.1094 -0.3702
 6376TIP3    H143323   5.270   0.261   0.308 -1.2470 -1.2285 -0.4978
 6376TIP3    H243324   5.291   0.114   0.337  1.1267 -0.8232  0.0203
 6377TIP3   OH243325   1.492   4.792   0.607 -0.2877 -0.1986 -0.3751
 6377TIP3    H143326   1.564   4.736   0.579  1.1759  1.7924 -0.7822
 6377TIP3    H243327   1.532   4.855   0.667 -1.7378  0.7901 -0.3951
 6378TIP3   OH243328   6.368   4.633   4.287 -0.0120  0.0404 -0.7332
 6378TIP3    H143329   6.334   4.722   4.279  1.3319  0.6305 -0.2610
 6378TIP3    H243330   6.293   4.581   4.317 -0.7348  1.0800 -0.6759
 6379TIP3   OH243331   5.604   4.957  10.711  0.7680  0.7385 -0.2594
 6379TIP3    H143332   5.614   5.044  10.672  0.4143  0.5629 -0.7513
 6379TIP3    H243333   5.542   4.969  10.782  0.0291  0.7235 -0.8940
 6380TIP3   OH243334   1.193   6.319   2.966 -0.1105  0.8169 -0.2116
 6380TIP3    H143335   1.145   6.318   2.883 -2.1718  1.2526  0.9124
 6380TIP3    H243336   1.208   6.412   2.984  0.1658  0.7319  0.0065
 6381TIP3   OH243337   0.483   0.416   2.347  0.8824  0.4054  0.3232
 6381TIP3    H143338   0.486   0.456   2.260  1.8687 -0.1611  0.0799
 6381TIP3    H243339   0.389   0.408   2.366  0.5264 -1.5809 -1.7260
 6382TIP3   OH243340   0.345   6.453   2.365  0.1575  0.1482 -0.0009
 6382TIP3    H143341   0.411   6.473   2.431  0.2277  1.5178 -0.4479
 6382TIP3    H243342   0.387   6.390   2.306  0.7714  0.3947  0.1739
 6383TIP3   OH243343   1.137   3.583   3.564 -0.6854  0.4987 -0.6164
 6383TIP3    H143344   1.164   3.494   3.543  1.0549  1.3968 -2.5800
 6383TIP3    H243345   1.145   3.589   3.659 -0.3118 -1.2707 -0.5007
 6384TIP3   OH243346   6.144   1.555   2.180 -0.2591 -0.2488  0.1545
 6384TIP3    H143347   6.108   1.535   2.094 -0.5548  1.7936 -0.2448
 6384TIP3    H243348   6.232   1.588   2.163  0.1212 -0.9295  0.7467
 6385TIP3   OH243349   3.198   0.077   1.279 -0.1889 -0.2222 -0.1709
 6385TIP3    H143350   3.128   0.104   1.219 -0.0914 -1.2208 -0.7765
 6385TIP3    H243351   3.188  -0.018   1.285  0.5938 -0.2784  0.4150
 6386TIP3   OH243352   0.489   3.324   2.950 -0.4904 -0.0626  0.5972
 6386TIP3    H143353   0.563   3.385   2.958 -0.2838 -0.2792  0.3592
 6386TIP3    H243354   0.452   3.343   2.864  0.0645 -0.8174  0.1838
 6387TIP3   OH243355   5.052   0.915   2.396 -0.3871 -0.0637 -0.1530
 6387TIP3    H143356   5.143   0.932   2.371 -0.1645 -0.5363  0.3136
 6387TIP3    H243357   5.006   0.903   2.312 -0.1955  0.9852 -0.4231
 6388TIP3   OH243358   6.452   2.848   1.526 -0.4295 -0.3853 -0.2269
 6388TIP3    H143359   6.416   2.830   1.613  0.7664 -0.4455  0.2690
 6388TIP3    H243360   6.429   2.771   1.474 -1.0491 -0.3997  0.0589
 6389TIP3   OH243361   3.928   4.791   3.077 -0.0605  0.3087 -0.1563
 6389TIP3    H143362   3.904   4.736   3.002 -0.6577 -1.4739  1.2639
 6389TIP3    H243363   3.906   4.738   3.154  2.3283  1.2797  1.3115
 6390TIP3   OH243364   0.141   3.209   3.153  0.3671  0.7999  0.1048
 6390TIP3    H143365   0.089   3.236   3.077 -0.3374  1.1984  0.7152
 6390TIP3    H243366   0.174   3.291   3.189  1.1045  0.5735 -0.0531
 6391TIP3   OH243367   4.938   1.779   4.777  0.1777 -0.2192 -0.2236
 6391TIP3    H143368   4.986   1.742   4.703 -0.0016 -2.4908  0.7294
 6391TIP3    H243369   4.854   1.734   4.776 -0.0836  0.2168  0.9646
 6392TIP3   OH243370   2.266   3.500   1.104 -0.0005  0.2763 -0.1886
 6392TIP3    H143371   2.322   3.557   1.157  1.4006 -1.0576 -0.1723
 6392TIP3    H243372   2.326   3.453   1.046 -0.7628 -2.7139  1.2145
 6393TIP3   OH243373   5.369   5.025   3.678 -0.0691  0.1924  0.1285
 6393TIP3    H143374   5.357   5.116   3.651  1.1627  0.5868  0.8224
 6393TIP3    H243375   5.332   5.021   3.766  0.1979  0.1229  0.2399
 6394TIP3   OH243376   1.183   2.726   1.359  0.0782 -0.4956 -0.6056
 6394TIP3    H143377   1.212   2.777   1.435 -0.0870 -0.2201 -0.7246
 6394TIP3    H243378   1.122   2.784   1.313  0.9209 -0.2672 -1.4855
 6395TIP3   OH243379   0.680   3.502   2.831 -0.2143 -0.5951  0.3474
 6395TIP3    H143380   0.630   3.578   2.801 -2.4221 -1.3274  1.8959
 6395TIP3    H243381   0.741   3.537   2.896 -2.6775 -0.2766  2.6674
 6396TIP3   OH243382   0.051   5.427   9.640 -0.1337  0.4202  0.2293
 6396TIP3    H143383   0.140   5.413   9.608  0.0400  1.9626 -0.0036
 6396TIP3    H243384  -0.004   5.419   9.562 -0.6597 -3.6427  0.7672
 6397TIP3   OH243385   6.151   1.488   1.446  0.4223  0.0249  0.3757
 6397TIP3    H143386   6.212   1.427   1.486  0.4738  0.3059  0.7277
 6397TIP3    H243387   6.181   1.496   1.355 -0.1237 -1.1611  0.0707
 6398TIP3   OH243388   5.167   3.014   1.224 -0.0400 -0.1800 -0.7099
 6398TIP3    H143389   5.174   2.920   1.207  1.3544 -0.3809  0.7211
 6398TIP3    H243390   5.116   3.048   1.151 -0.7337 -2.0731 -1.1601
 6399TIP3   OH243391   3.052   2.527   1.140 -0.2550 -0.5083 -0.3584
 6399TIP3    H143392   3.129   2.534   1.083 -0.9185  0.4012 -1.1811
 6399TIP3    H243393   3.088   2.506   1.226  0.6943 -3.0728 -1.3090
 6400TIP3   OH243394   5.960   3.087   2.059  0.1636 -0.0564  0.4524
 6400TIP3    H143395   6.027   3.019   2.069  0.0807 -0.0895  0.8108
 6400TIP3    H243396   6.004   3.159   2.015  0.5181  0.0339  0.9420
 6401TIP3   OH243397   0.281   4.133   2.015 -0.3133 -0.0090 -0.0934
 6401TIP3    H143398   0.283   4.112   1.922  1.6094 -0.5276  0.0295
 6401TIP3    H243399   0.352   4.196   2.027  0.2384 -0.8463  1.2188
 6402TIP3   OH243400   1.641   4.778   3.150 -0.0481  0.4196 -0.1333
 6402TIP3    H143401   1.724   4.753   3.192  1.4186  1.1728 -2.3664
 6402TIP3    H243402   1.631   4.871   3.170 -0.3674  0.3254  0.1453
 6403TIP3   OH243403   4.491   1.802   1.449 -0.1223 -0.4728 -0.2741
 6403TIP3    H143404   4.443   1.880   1.421  0.8637  0.0310 -0.6250
 6403TIP3    H243405   4.425   1.733   1.453 -1.0331  0.3875  0.1217
 6404TIP3   OH243406   6.584   6.092   0.733  0.4081  0.0221  0.0570
 6404TIP3    H143407   6.514   6.123   0.790 -1.6362 -1.3143 -1.5447
 6404TIP3    H243408   6.581   6.151   0.657 -1.2308 -1.8219 -1.4516
 6405TIP3   OH243409   5.092   3.980   3.120  0.5206 -0.1244  0.2979
 6405TIP3    H143410   5.058   4.021   3.041  0.0692 -0.5966  0.2388
 6405TIP3    H243411   5.177   3.945   3.095  0.9175  0.7673  0.3522
 6406TIP3   OH243412   3.781   2.038   2.347 -0.2196 -0.1458 -0.1685
 6406TIP3    H143413   3.767   1.985   2.268 -0.2324  1.7080 -1.4751
 6406TIP3    H243414   3.871   2.018   2.373  1.3496  2.1687 -3.1449
 6407TIP3   OH243415   2.337   2.894   1.706 -0.2001  0.4717 -0.1427
 6407TIP3    H143416   2.243   2.878   1.712 -0.1858 -0.0133 -1.0649
 6407TIP3    H243417   2.357   2.947   1.783 -0.9486 -0.7254  0.9320
 6408TIP3   OH243418   0.058   4.711   2.327  0.6406 -0.2040  0.2182
 6408TIP3    H143419  -0.037   4.723   2.328  0.6462 -0.0711  1.4734
 6408TIP3    H243420   0.071   4.630   2.279 -0.1202 -0.2448  0.0607
 6409TIP3   OH243421   2.594   4.447   2.699 -0.0809  0.2874 -0.2267
 6409TIP3    H143422   2.675   4.476   2.657  0.9519  0.7432  1.9386
 6409TIP3    H243423   2.593   4.352   2.686  0.5946  0.3276 -0.6291
 6410TIP3   OH243424   5.640   2.888   3.354  0.1002 -0.4598 -0.0582
 6410TIP3    H143425   5.610   2.924   3.437  0.5400  3.3995 -1.3515
 6410TIP3    H243426   5.578   2.818   3.334 -0.0620 -1.4823  3.3790
 6411TIP3   OH243427   1.236   5.659   1.207 -0.1718  0.6233  0.3305
 6411TIP3    H143428   1.165   5.598   1.223  0.0562 -0.1337 -1.3860
 6411TIP3    H243429   1.267   5.638   1.119  2.9990  0.0879  1.4515
 6412TIP3   OH243430   5.550   0.499   0.466  0.0086  0.5960  0.2171
 6412TIP3    H143431   5.475   0.548   0.431 -1.4529 -1.4966  0.2257
 6412TIP3    H243432   5.516   0.454   0.543  1.1005 -0.8075 -0.0653
 6413TIP3   OH243433   4.525   4.143   2.949 -0.0526  0.1011 -0.3364
 6413TIP3    H143434   4.561   4.232   2.948 -0.9592  0.4824 -1.8721
 6413TIP3    H243435   4.443   4.150   2.901 -2.8444 -0.5083  3.8398
 6414TIP3   OH243436   2.771   3.227   2.919 -0.3516 -0.2129  0.4556
 6414TIP3    H143437   2.714   3.187   2.853  0.0910  1.4866 -1.0246
 6414TIP3    H243438   2.742   3.318   2.923  0.3427 -0.0246  1.8688
 6415TIP3   OH243439   6.230   4.918   0.893  0.1585  0.1819 -0.6057
 6415TIP3    H143440   6.271   4.989   0.942 -0.1965  0.0095 -0.0532
 6415TIP3    H243441   6.290   4.901   0.821 -0.0298  1.4429 -1.0857
 6416TIP3   OH243442   4.454   5.513   2.127  0.4898  0.1204 -0.7089
 6416TIP3    H143443   4.401   5.521   2.205  0.4803 -3.3749 -0.1746
 6416TIP3    H243444   4.399   5.546   2.056 -1.0378 -0.2182  0.2873
 6417TIP3   OH243445   4.502   3.651   2.832  0.0457  0.0527  0.2796
 6417TIP3    H143446   4.449   3.650   2.752  0.2612 -0.7203  0.1351
 6417TIP3    H243447   4.484   3.736   2.872 -0.5589  0.1860 -0.2622
 6418TIP3   OH243448   4.922   0.374   2.745  0.5129  0.7690 -0.2170
 6418TIP3    H143449   4.853   0.316   2.712  0.7284 -0.0177  0.6646
 6418TIP3    H243450   4.966   0.407   2.667 -0.4912  0.8345 -0.7779
 6419TIP3   OH243451   1.438   0.905   3.473 -0.4002  0.2055  0.1973
 6419TIP3    H143452   1.482   0.833   3.428  0.4068 -0.1514  1.5052
 6419TIP3    H243453   1.361   0.866   3.514 -0.6439  0.3492 -0.1173
 6420TIP3   OH243454   4.152   0.421   3.032  0.2016 -0.1043  0.1963
 6420TIP3    H143455   4.201   0.342   3.009 -0.0546  0.4258 -2.6346
 6420TIP3    H243456   4.063   0.391   3.050  0.8775 -0.7800  2.7097
 6421TIP3   OH243457   3.694   4.132   1.652  0.8000  0.2830  0.0298
 6421TIP3    H143458   3.708   4.129   1.747  3.1779  1.8912 -0.1820
 6421TIP3    H243459   3.731   4.049   1.620 -0.9705 -0.7646  0.5178
 6422TIP3   OH243460   3.221   1.976   3.475  0.4954  0.3850  0.6985
 6422TIP3    H143461   3.290   1.994   3.539  0.4206  0.2672  0.8133
 6422TIP3    H243462   3.177   2.060   3.463  1.4047  0.7474 -0.2698
 6423TIP3   OH243463   1.613   2.161   2.042 -0.4852 -0.4464  0.5404
 6423TIP3    H143464   1.574   2.129   2.123 -0.2681 -1.9852  0.0628
 6423TIP3    H243465   1.708   2.157   2.058 -0.4569  0.4995  0.6624
 6424TIP3   OH243466   5.450   3.340   2.674  0.1895  0.3418 -0.3283
 6424TIP3    H143467   5.378   3.282   2.701 -0.5767  0.9827 -0.9371
 6424TIP3    H243468   5.434   3.422   2.722  0.4573  0.5259 -0.5528
 6425TIP3   OH243469   4.356   5.889   2.400 -0.2414 -0.3854 -0.4344
 6425TIP3    H143470   4.393   5.896   2.312  0.2040 -2.3309 -0.4462
 6425TIP3    H243471   4.263   5.911   2.389 -0.1616 -0.4828 -1.3658
 6426TIP3   OH243472   0.412   2.845   3.271 -0.5411 -0.3229 -0.0562
 6426TIP3    H143473   0.361   2.855   3.352  0.4730 -0.0051  0.5678
 6426TIP3    H243474   0.399   2.927   3.224  0.0758  0.1144  0.5156
 6427TIP3   OH243475   1.416   4.440   2.317  0.0410  0.3432  0.4495
 6427TIP3    H143476   1.441   4.388   2.241 -2.5222 -0.6111  0.1564
 6427TIP3    H243477   1.487   4.427   2.380  1.4122 -0.1792 -1.1364
 6428TIP3   OH243478   0.986   2.391   0.403  0.0691 -0.1227 -0.4702
 6428TIP3    H143479   1.020   2.479   0.420 -0.2300  0.1233 -1.1202
 6428TIP3    H243480   0.925   2.375   0.475  1.8397 -0.7509  0.9814
 6429TIP3   OH243481   1.879   1.399   3.627 -0.7950  0.4246 -0.4343
 6429TIP3    H143482   1.854   1.314   3.665  1.4615  0.1249  0.5392
 6429TIP3    H243483   1.833   1.463   3.680 -1.3385 -0.1445 -0.2040
 6430TIP3   OH243484   6.386   3.454   3.790 -0.3046 -0.8268  0.4697
 6430TIP3    H143485   6.371   3.437   3.883 -0.5306 -0.5941  0.4772
 6430TIP3    H243486   6.386   3.367   3.750  1.4603 -1.0630  0.9099
 6431TIP3   OH243487   3.351   4.107   1.401  0.2058  0.0459  0.4823
 6431TIP3    H143488   3.398   4.058   1.333 -2.3630 -0.0762 -1.3488
 6431TIP3    H243489   3.413   4.173   1.431  2.1373 -1.2690 -0.4275
 6432TIP3   OH243490   0.729   4.153   0.958 -0.1436  0.0390  0.6614
 6432TIP3    H143491   0.786   4.075   0.966  0.0973  0.2076  0.6093
 6432TIP3    H243492   0.789   4.227   0.968  0.2828  0.3252 -2.6997
 6433TIP3   OH243493   5.526   6.174   3.252 -0.0728 -0.4803  0.3077
 6433TIP3    H143494   5.527   6.241   3.321 -2.3439 -0.1856  0.1060
 6433TIP3    H243495   5.434   6.163   3.230  0.5663 -0.4443 -2.8387
 6434TIP3   OH243496   1.906   6.357   1.061  0.0252  0.1738  0.3806
 6434TIP3    H143497   1.841   6.426   1.075 -2.9738 -1.9278 -1.8704
 6434TIP3    H243498   1.958   6.389   0.986  0.9496  1.3477  1.4618
 6435TIP3   OH243499   5.442   5.135   3.199 -0.5214 -0.0278 -0.0073
 6435TIP3    H143500   5.523   5.093   3.230  0.2637  2.3908  1.4969
 6435TIP3    H243501   5.447   5.225   3.232 -3.3049  0.5510 -0.8726
 6436TIP3   OH243502   4.186   1.027   1.917  0.3836  0.4104 -0.3359
 6436TIP3    H143503   4.109   1.030   1.860 -1.3624 -0.3580  1.7902
 6436TIP3    H243504   4.232   0.948   1.892 -0.6607 -0.2127 -0.3659
 6437TIP3   OH243505   1.431   5.978   1.546 -0.4598  0.2540 -0.0832
 6437TIP3    H143506   1.472   5.938   1.623 -1.1986  1.5882  1.0373
 6437TIP3    H243507   1.425   6.071   1.567  1.4653  1.1003 -2.7175
 6438TIP3   OH243508   3.504   3.368   2.021  0.3114 -0.0934  0.0985
 6438TIP3    H143509   3.537   3.280   2.042  0.7899  0.0235 -0.1347
 6438TIP3    H243510   3.583   3.419   2.001 -0.0518  0.0179 -1.1666
 6439TIP3   OH243511   4.761   4.959   0.663  0.2006 -0.2710 -0.7240
 6439TIP3    H143512   4.678   5.007   0.668  1.2465  1.5498  0.5814
 6439TIP3    H243513   4.769   4.914   0.747  0.9787  0.4284 -0.4016
 6440TIP3   OH243514   2.023   6.449   4.305  0.4606 -0.4877  0.3212
 6440TIP3    H143515   2.049   6.531   4.264 -1.0945  0.4593  1.1198
 6440TIP3    H243516   1.932   6.436   4.278  0.7831 -2.1368 -0.0546
 6441TIP3   OH243517   0.008   3.338   1.166 -0.1543  0.2638 -0.5544
 6441TIP3    H143518  -0.073   3.294   1.140 -0.3737 -0.4297  1.1542
 6441TIP3    H243519  -0.020   3.406   1.227  0.4306  1.1455 -1.2287
 6442TIP3   OH243520   1.697   5.429   3.204 -0.3612  0.4020  0.1787
 6442TIP3    H143521   1.611   5.387   3.196 -0.3412  0.4609 -0.4526
 6442TIP3    H243522   1.757   5.357   3.225 -0.7216  0.5260  1.7428
 6443TIP3   OH243523   2.150   1.370   3.671  0.2439  0.1399 -0.6313
 6443TIP3    H143524   2.164   1.285   3.712  1.9009  0.9452  0.6103
 6443TIP3    H243525   2.061   1.365   3.636  0.0749 -1.8765 -0.0824
 6444TIP3   OH243526   2.393   3.431   2.762 -0.5107  0.1406  0.0789
 6444TIP3    H143527   2.451   3.501   2.791 -0.2786  0.8320 -1.9073
 6444TIP3    H243528   2.401   3.363   2.829 -0.1671  1.6870  1.6604
 6445TIP3   OH243529   5.969   6.147   3.938 -0.3259  0.6946  0.0415
 6445TIP3    H143530   5.882   6.179   3.965 -1.2020 -0.4337 -1.3598
 6445TIP3    H243531   5.953   6.062   3.900  1.2623  0.9644 -1.3343
 6446TIP3   OH243532   4.896   0.847   3.834  0.4471  0.6662 -0.1915
 6446TIP3    H143533   4.979   0.894   3.849  0.9041 -0.7985  2.7217
 6446TIP3    H243534   4.829   0.904   3.873  0.2042  1.3069 -1.4955
 6447TIP3   OH243535   4.737   5.516   2.152  0.2930 -0.1876  0.1735
 6447TIP3    H143536   4.642   5.513   2.141  0.3386  0.7167 -0.6931
 6447TIP3    H243537   4.751   5.537   2.244 -0.3004 -1.7494  0.6391
 6448TIP3   OH243538   3.109   3.616   1.783 -0.9558  0.4157 -0.1696
 6448TIP3    H143539   3.021   3.579   1.782  0.2592 -2.7987 -1.0508
 6448TIP3    H243540   3.135   3.618   1.691  0.4784 -0.3301  0.1905
 6449TIP3   OH243541   3.100   0.172   1.022 -0.3151  0.5118  0.6132
 6449TIP3    H143542   3.009   0.200   1.013 -0.3338  0.0065 -1.2019
 6449TIP3    H243543   3.151   0.252   1.009 -0.4735  0.8855  2.0938
 6450TIP3   OH243544   3.911   2.800   1.805 -0.1288 -0.3074 -0.1181
 6450TIP3    H143545   3.979   2.867   1.806 -0.2366 -0.1986  0.7043
 6450TIP3    H243546   3.958   2.717   1.804  0.0062 -0.2274 -0.7076
 6451TIP3   OH243547   5.565   6.290   1.709 -0.4564  0.1047  0.4902
 6451TIP3    H143548   5.539   6.225   1.643 -0.8511 -0.3076  1.0442
 6451TIP3    H243549   5.528   6.257   1.791  0.9228  0.0484  1.1181
 6452TIP3   OH243550   1.933   5.349   0.466  0.1754  0.1669  0.5268
 6452TIP3    H143551   1.992   5.386   0.400 -0.5805 -0.5469 -0.5878
 6452TIP3    H243552   1.895   5.426   0.509 -1.1435  0.7732 -1.5394
 6453TIP3   OH243553   0.530   5.299   2.651 -0.4472  0.1127  0.1002
 6453TIP3    H143554   0.477   5.277   2.574 -1.2977 -0.8321  0.9293
 6453TIP3    H243555   0.620   5.282   2.624 -0.6889  0.2374 -0.8285
 6454TIP3   OH243556   0.123   1.688   3.175 -0.3651  0.3231  0.0634
 6454TIP3    H143557   0.185   1.735   3.231  0.4044 -0.5791 -0.0152
 6454TIP3    H243558   0.159   1.696   3.087 -0.9295  0.6911 -0.1428
 6455TIP3   OH243559   2.689   5.210   3.179  0.2971 -0.1966  0.0181
 6455TIP3    H143560   2.682   5.119   3.152 -1.0650 -0.8421  2.2492
 6455TIP3    H243561   2.743   5.207   3.259 -0.3893  0.8357  0.5369
 6456TIP3   OH243562   1.948   1.291   3.916  0.7219  0.1459 -0.1615
 6456TIP3    H143563   1.968   1.224   3.851 -0.1039  1.1284 -1.5188
 6456TIP3    H243564   1.853   1.283   3.930  0.5864  1.0777 -0.4429
 6457TIP3   OH243565   4.717   6.388   2.973 -0.4063 -0.0201  0.1381
 6457TIP3    H143566   4.660   6.324   3.017  1.1006 -1.8874 -0.4720
 6457TIP3    H243567   4.797   6.339   2.954  0.0634  1.5187 -2.1948
 6458TIP3   OH243568   1.798   5.710   3.502 -0.2238  0.1058  0.3386
 6458TIP3    H143569   1.748   5.777   3.456 -0.2067 -0.0636  0.0728
 6458TIP3    H243570   1.868   5.758   3.546  2.7320 -0.0828 -3.6174
 6459TIP3   OH243571   4.555   3.769   1.269 -0.3838  0.1251  0.3223
 6459TIP3    H143572   4.566   3.761   1.174 -1.4876 -1.3496  0.2910
 6459TIP3    H243573   4.634   3.728   1.305 -0.1351  0.3534  0.0404
 6460TIP3   OH243574   5.711   5.770   0.617 -0.0120 -0.4773  0.2992
 6460TIP3    H143575   5.619   5.750   0.634 -0.0695  0.8100  1.7725
 6460TIP3    H243576   5.759   5.696   0.653 -0.4556 -0.8255  0.1743
 6461TIP3   OH243577   3.862   4.794   2.620 -0.1576  0.0890  0.3520
 6461TIP3    H143578   3.869   4.867   2.559  0.1666  1.2949  1.7885
 6461TIP3    H243579   3.953   4.768   2.637 -0.1375  0.9971  1.7395
 6462TIP3   OH243580   1.566   5.583   2.905  0.7069  0.5003  0.4620
 6462TIP3    H143581   1.558   5.617   2.995  0.4283  2.1554 -0.1485
 6462TIP3    H243582   1.511   5.642   2.853 -0.2861 -1.3050 -0.6049
 6463TIP3   OH243583   3.975   6.246   1.519  0.5415  0.2799 -0.4702
 6463TIP3    H143584   3.999   6.316   1.580  0.7098 -0.0426 -0.1692
 6463TIP3    H243585   4.058   6.203   1.498  0.5967  0.8241 -1.4696
 6464TIP3   OH243586   1.470   6.610   1.519  0.4983  0.0797  0.1433
 6464TIP3    H143587   1.517   6.634   1.599  2.7225 -1.6630 -0.5395
 6464TIP3    H243588   1.508   6.526   1.493 -1.4573 -0.3026 -1.7668
 6465TIP3   OH243589   2.015   6.390   2.898 -0.0731  0.0041 -0.1254
 6465TIP3    H143590   2.063   6.330   2.956  1.0822  0.8917 -0.1313
 6465TIP3    H243591   2.070   6.396   2.820  0.4254  1.9436  0.3339
 6466TIP3   OH243592   6.491   5.274   2.195  0.1718 -0.1796  0.1638
 6466TIP3    H143593   6.408   5.305   2.158 -0.4366 -0.6752  1.0693
 6466TIP3    H243594   6.506   5.331   2.270  1.2267  0.6086 -0.6190
 6467TIP3   OH243595   0.722   5.759   3.541 -0.2361 -0.0517  0.1284
 6467TIP3    H143596   0.790   5.704   3.579  0.2705  0.7037  0.3469
 6467TIP3    H243597   0.656   5.697   3.508 -0.2191 -0.7519  1.3492
 6468TIP3   OH243598   0.661   3.878   3.661  0.0551 -0.3821  0.1053
 6468TIP3    H143599   0.689   3.948   3.719 -1.3558  0.2469  0.0599
 6468TIP3    H243600   0.684   3.798   3.709  1.7839  0.0616  0.1050
 6469TIP3   OH243601   0.954   0.685   2.544 -0.4533  0.5048  0.0386
 6469TIP3    H143602   0.906   0.602   2.542  0.5533 -0.1500  1.6935
 6469TIP3    H243603   0.951   0.713   2.635 -0.1486  1.9241 -0.3687
 6470TIP3   OH243604   1.380   4.145   4.190 -0.0326 -0.0831  0.6667
 6470TIP3    H143605   1.424   4.190   4.262  1.3271  2.6300 -1.6249
 6470TIP3    H243606   1.352   4.061   4.227  1.7992  0.5594  3.9082
 6471TIP3   OH243607   1.223   4.681   2.512  0.5354  0.4450 -0.6233
 6471TIP3    H143608   1.155   4.653   2.574  0.9317 -0.6732 -0.6651
 6471TIP3    H243609   1.176   4.726   2.443 -0.1866 -0.4200 -0.7130
 6472TIP3   OH243610   5.843   5.969   3.757 -0.0980 -0.2686  0.1199
 6472TIP3    H143611   5.868   6.012   3.675 -2.4063 -0.2724 -0.6480
 6472TIP3    H243612   5.800   5.888   3.730 -0.4282 -0.5319  1.3564
 6473TIP3   OH243613   2.523   2.142   1.793  0.4180 -0.1616  0.0323
 6473TIP3    H143614   2.475   2.161   1.712 -0.6815  0.3837  0.8002
 6473TIP3    H243615   2.570   2.061   1.774 -0.8602 -0.7575 -0.7241
 6474TIP3   OH243616   1.947   1.152   3.367  0.0592  0.0494 -0.2822
 6474TIP3    H143617   1.882   1.161   3.436  0.6128 -0.2696  0.2916
 6474TIP3    H243618   1.961   1.241   3.335  1.1646  0.4737  1.2977
 6475TIP3   OH243619   6.066   6.570   3.203 -0.6297  0.1029 -0.0459
 6475TIP3    H143620   5.970   6.570   3.200 -0.6234 -0.3739 -0.3207
 6475TIP3    H243621   6.087   6.533   3.289 -0.6893 -0.6818 -0.3609
 6476TIP3   OH243622   3.603   5.115   3.156  0.6955 -0.6792  0.1181
 6476TIP3    H143623   3.689   5.089   3.123  1.5407 -0.1606  1.7831
 6476TIP3    H243624   3.541   5.063   3.106  1.9860 -1.1366 -1.0582
 6477TIP3   OH243625   5.726   3.501   2.992 -0.0178 -0.4626 -0.0120
 6477TIP3    H143626   5.717   3.405   2.996  1.7375 -0.6203  2.3995
 6477TIP3    H243627   5.810   3.519   3.034 -0.6557  2.2061  0.3039
 6478TIP3   OH243628   2.412   1.417   3.720  0.0108  0.5409 -0.4766
 6478TIP3    H143629   2.318   1.400   3.715  0.0650  0.3498 -0.9034
 6478TIP3    H243630   2.418   1.513   3.720 -0.1404  0.5747 -1.6587
 6479TIP3   OH243631   4.750   2.611   1.492  0.1291  0.1000 -0.1236
 6479TIP3    H143632   4.689   2.541   1.516  1.3397 -0.7724  0.5510
 6479TIP3    H243633   4.695   2.687   1.477 -1.1511 -0.7485  0.1090
 6480TIP3   OH243634   5.494   1.617   2.491 -0.1840 -0.0400  0.5279
 6480TIP3    H143635   5.444   1.697   2.511  0.1922  0.2353  0.3762
 6480TIP3    H243636   5.562   1.615   2.558 -0.4792 -0.4882  0.8162
 6481TIP3   OH243637   1.121   6.429   1.021 -0.2276  0.5677 -0.2860
 6481TIP3    H143638   1.103   6.495   0.954 -2.6324  0.0729 -0.1934
 6481TIP3    H243639   1.092   6.469   1.103  0.1025  0.1199  0.0565
 6482TIP3   OH243640   1.272   3.760   3.749  0.3647  0.5316 -0.0524
 6482TIP3    H143641   1.320   3.798   3.675  2.1015 -1.2507  0.0850
 6482TIP3    H243642   1.301   3.669   3.753 -2.4080 -0.4171  0.6370
 6483TIP3   OH243643   5.144   6.379   0.431 -0.4109  0.2432 -0.5916
 6483TIP3    H143644   5.138   6.311   0.498  1.6453  0.7130  0.1434
 6483TIP3    H243645   5.129   6.333   0.348 -1.1910 -0.6902  0.0504
 6484TIP3   OH243646   5.000   1.766   2.492  0.2568  0.2593  0.3112
 6484TIP3    H143647   4.960   1.809   2.417 -1.8104  1.9556  2.2557
 6484TIP3    H243648   4.944   1.691   2.510 -1.1904  1.6466  1.9745
 6485TIP3   OH243649   5.260   1.516   0.435  0.3944  0.0647  0.4837
 6485TIP3    H143650   5.342   1.528   0.483  0.5242 -0.2620  0.3478
 6485TIP3    H243651   5.287   1.506   0.344  0.2745 -0.9235  0.5471
 6486TIP3   OH243652   0.191   4.947   3.982  0.4503  0.0320 -0.2329
 6486TIP3    H143653   0.180   5.027   4.033 -1.8912 -0.0793 -0.4537
 6486TIP3    H243654   0.174   4.973   3.892  0.6915 -0.5308 -0.4510
 6487TIP3   OH243655   4.554   0.107   3.829  0.5608 -0.5550  0.4669
 6487TIP3    H143656   4.485   0.140   3.888  0.0558 -1.8023  0.6064
 6487TIP3    H243657   4.517   0.027   3.791  1.5678 -0.7209 -0.2090
 6488TIP3   OH243658   2.037   5.215   1.571 -0.1663  0.4690 -0.0497
 6488TIP3    H143659   1.986   5.296   1.574 -0.2185  0.4628 -0.6553
 6488TIP3    H243660   2.016   5.171   1.653  0.3077  1.3321  0.5586
 6489TIP3   OH243661   5.305   6.547   1.943  0.1007 -0.6918  0.0408
 6489TIP3    H143662   5.237   6.549   1.877 -0.8728  0.1832  1.0157
 6489TIP3    H243663   5.304   6.635   1.981  1.4097 -0.8222  0.4388
 6490TIP3   OH243664   2.173   4.577   3.136 -0.1716 -0.0098  0.4485
 6490TIP3    H143665   2.094   4.611   3.178 -1.2547 -1.5051 -0.2773
 6490TIP3    H243666   2.152   4.576   3.043 -0.3771 -2.9520  0.4477
 6491TIP3   OH243667   4.587   6.262   2.105 -0.5315  0.1746 -0.5299
 6491TIP3    H143668   4.606   6.305   2.188 -2.4956 -0.0829  0.1145
 6491TIP3    H243669   4.615   6.171   2.118 -1.3336  0.0038  0.0720
 6492TIP3   OH243670   0.560   6.334   0.995 -0.6651 -0.2183  0.1307
 6492TIP3    H143671   0.478   6.341   0.947 -0.5961 -1.2464 -0.1528
 6492TIP3    H243672   0.541   6.374   1.080 -1.0160  0.9008 -0.4573
 6493TIP3   OH243673   4.011   4.258   3.094  0.2325  0.1571 -0.3405
 6493TIP3    H143674   4.034   4.174   3.055  1.8379  0.3569  0.1129
 6493TIP3    H243675   3.975   4.236   3.180 -0.2255 -0.1122 -0.6016
 6494TIP3   OH243676   2.197   0.796   3.033 -0.6081 -0.0458  0.3118
 6494TIP3    H143677   2.128   0.756   3.087  0.6795 -0.4491  1.7171
 6494TIP3    H243678   2.271   0.806   3.092  0.8558 -0.4556 -1.3735
 6495TIP3   OH243679   4.435   4.238   1.249 -0.2154  0.1797  0.0290
 6495TIP3    H143680   4.371   4.259   1.180  0.2393  1.6926  0.0386
 6495TIP3    H243681   4.386   4.247   1.330 -0.1490  0.7486  0.0084
 6496TIP3   OH243682   3.890   0.027   2.420 -0.0261  0.2660 -0.6417
 6496TIP3    H143683   3.870  -0.051   2.369  0.1427  0.3267 -0.8057
 6496TIP3    H243684   3.824   0.091   2.393  0.4377  0.5045 -1.2684
 6497TIP3   OH243685   1.829   2.095   0.405 -0.6464  0.0801  0.3060
 6497TIP3    H143686   1.838   2.046   0.323  1.2194  1.6567 -0.5041
 6497TIP3    H243687   1.903   2.066   0.458 -1.5184 -0.5000  1.2483
 6498TIP3   OH243688   0.089   1.177   3.956  0.1354 -0.2885  0.4841
 6498TIP3    H143689   0.130   1.092   3.938  0.1935  0.1203 -1.5989
 6498TIP3    H243690   0.162   1.240   3.952 -0.3906  0.2813 -1.9098
 6499TIP3   OH243691   5.790   6.116   2.802 -0.0075  0.1008  0.3612
 6499TIP3    H143692   5.850   6.047   2.829 -0.6926 -0.4314  0.5548
 6499TIP3    H243693   5.752   6.149   2.884  0.2889  0.6981  0.2694
 6500TIP3   OH243694   3.862   4.183   0.883  0.2593  0.7956  0.4276
 6500TIP3    H143695   3.914   4.151   0.809  0.2219  3.0471 -0.6796
 6500TIP3    H243696   3.926   4.200   0.952  0.3704 -0.7508  0.7415
 6501TIP3   OH243697   0.705   2.955   1.140  0.4227 -0.6966  0.8582
 6501TIP3    H143698   0.666   2.868   1.133  0.5793 -0.7972  1.2063
 6501TIP3    H243699   0.746   2.970   1.054 -0.9386 -0.3033  0.2416
 6502TIP3   OH243700   3.635   2.712   3.033  0.4367 -0.1362  0.8582
 6502TIP3    H143701   3.636   2.808   3.033  1.3443 -0.0598 -1.8227
 6502TIP3    H243702   3.549   2.689   3.068 -1.4052  1.8184 -2.0136
 6503TIP3   OH243703   0.192   0.917   3.956 -0.0949 -0.3493 -0.1841
 6503TIP3    H143704   0.151   0.847   3.906 -0.6866  0.0103 -0.2086
 6503TIP3    H243705   0.283   0.890   3.965 -0.5432 -1.6382  0.7271
 6504TIP3   OH243706   1.201   2.908   3.019  0.5235 -0.1930 -0.4322
 6504TIP3    H143707   1.188   2.935   2.929 -0.1849 -0.4462 -0.4138
 6504TIP3    H243708   1.213   2.813   3.014  1.6421 -0.0665 -0.3664
 6505TIP3   OH243709   6.005   5.245   3.735 -0.3899  0.3939  0.1445
 6505TIP3    H143710   6.069   5.188   3.778 -0.6979 -0.4261 -0.4609
 6505TIP3    H243711   5.957   5.286   3.807 -1.6757 -1.8299  0.6341
 6506TIP3   OH243712   4.842   4.297   0.841  0.3873 -0.2926  0.3852
 6506TIP3    H143713   4.929   4.262   0.857  0.9823  0.6408 -0.6326
 6506TIP3    H243714   4.829   4.287   0.746  0.4984  1.9299  0.0709
 6507TIP3   OH243715   5.195   4.871   2.042  0.1495 -0.2104  0.6184
 6507TIP3    H143716   5.192   4.833   2.129  0.8297  0.5738  1.0007
 6507TIP3    H243717   5.287   4.896   2.030 -0.4132  2.2705  0.8281
 6508TIP3   OH243718   6.211   1.802   2.995  0.1895  0.2915  0.4662
 6508TIP3    H143719   6.168   1.745   2.931  1.2959 -0.3745  0.2943
 6508TIP3    H243720   6.291   1.830   2.952 -0.0408  1.5012  0.7949
 6509TIP3   OH243721   6.452   3.709   1.100  0.2930  0.2695 -0.2013
 6509TIP3    H143722   6.415   3.782   1.151  1.5024  0.3171  0.6692
 6509TIP3    H243723   6.522   3.675   1.156 -0.0563 -1.3791 -0.7328
 6510TIP3   OH243724   6.269   2.453   3.167  0.6352 -0.4968  0.6468
 6510TIP3    H143725   6.315   2.511   3.107 -1.1483  2.2054  1.6792
 6510TIP3    H243726   6.188   2.430   3.121  0.2831 -0.2309  1.1169
 6511TIP3   OH243727   2.220   2.469   2.284  0.4560  0.3302 -0.3438
 6511TIP3    H143728   2.195   2.382   2.315  0.8833  0.7693  1.3514
 6511TIP3    H243729   2.137   2.515   2.274  0.2697 -0.0377 -0.5184
 6512TIP3   OH243730   1.035   0.135   4.128 -0.3088 -0.1573  0.8504
 6512TIP3    H143731   0.948   0.107   4.158 -0.1022 -0.8473  0.8373
 6512TIP3    H243732   1.075   0.055   4.094  0.6127 -0.0123  1.5378
 6513TIP3   OH243733   2.956   2.232   1.119 -0.0385  0.5699  0.2549
 6513TIP3    H143734   2.997   2.289   1.054  1.7895 -0.2598  0.6327
 6513TIP3    H243735   2.866   2.220   1.087  0.2363  1.7506 -1.0562
 6514TIP3   OH243736   1.184   0.019   1.925 -0.1509  0.5072 -0.5872
 6514TIP3    H143737   1.198   0.114   1.923  0.5703  0.4191 -0.1061
 6514TIP3    H243738   1.167  -0.004   1.834 -1.5235  1.2631 -0.5455
 6515TIP3   OH243739   5.701   0.231   3.086 -0.1030  0.0132  0.4857
 6515TIP3    H143740   5.630   0.247   3.023 -1.2226 -1.0650  1.4190
 6515TIP3    H243741   5.670   0.270   3.168 -0.0968 -1.3556  1.1665
 6516TIP3   OH243742   5.534   4.102   4.016  0.1754 -0.0761 -0.0848
 6516TIP3    H143743   5.510   4.024   3.965 -0.9929  1.1139 -1.4411
 6516TIP3    H243744   5.486   4.092   4.099  1.0008 -1.3540  0.2756
 6517TIP3   OH243745   1.246   4.907   1.160  0.2416  0.1691 -0.1251
 6517TIP3    H143746   1.186   4.975   1.128  0.3545  0.0970 -0.4925
 6517TIP3    H243747   1.309   4.896   1.089  1.1149  0.7506  0.5409
 6518TIP3   OH243748   5.186   2.427   0.566  0.9069  0.4155  0.1209
 6518TIP3    H143749   5.197   2.332   0.574  1.7380  0.5920  1.4025
 6518TIP3    H243750   5.092   2.442   0.580  0.8537 -0.1731  0.4068
 6519TIP3   OH243751   0.247   3.693   3.176  0.0098  0.2069 -0.0071
 6519TIP3    H143752   0.285   3.763   3.122 -1.1672  1.4970  0.7779
 6519TIP3    H243753   0.238   3.731   3.263 -2.8796 -0.0571 -0.0911
 6520TIP3   OH243754   3.341   4.135   2.915  0.0352 -0.4108  0.0177
 6520TIP3    H143755   3.317   4.208   2.971  0.4302 -1.9529  2.3297
 6520TIP3    H243756   3.305   4.058   2.959 -0.5563 -1.6510 -2.4184
 6521TIP3   OH243757   3.371   0.381   2.231  0.0307  0.3328  0.4899
 6521TIP3    H143758   3.340   0.304   2.183 -1.8110  1.2957  0.0416
 6521TIP3    H243759   3.389   0.349   2.319 -3.0262 -0.1959  1.0080
 6522TIP3   OH243760   1.300   3.680   2.819  0.0701 -0.2859 -0.3973
 6522TIP3    H143761   1.311   3.773   2.841  2.8780 -0.1804 -1.7880
 6522TIP3    H243762   1.213   3.675   2.778 -0.6599  1.4529  0.7975
 6523TIP3   OH243763   6.480   4.923   1.683 -0.6403  0.0254  0.0970
 6523TIP3    H143764   6.473   4.908   1.778  0.1161 -0.5014  0.0823
 6523TIP3    H243765   6.485   4.835   1.646  0.8241  0.2410 -0.2709
 6524TIP3   OH243766   5.011   3.343   1.847  0.0537 -0.2210 -0.1337
 6524TIP3    H143767   4.957   3.268   1.824  0.2393 -1.3255  2.6267
 6524TIP3    H243768   5.024   3.335   1.941  1.5546  2.3386 -0.0302
 6525TIP3   OH243769   4.759   5.381   3.368 -0.5135  0.3068 -0.2547
 6525TIP3    H143770   4.792   5.297   3.399 -3.0092 -0.9233 -0.6758
 6525TIP3    H243771   4.741   5.368   3.275 -1.6127  1.0580 -0.1745
 6526TIP3   OH243772   4.690   2.565   0.780  0.2081  0.0424 -0.4583
 6526TIP3    H143773   4.731   2.503   0.840  1.2184 -0.4660 -1.6284
 6526TIP3    H243774   4.666   2.640   0.835 -1.8962 -1.7080  1.1657
 6527TIP3   OH243775   6.356   6.556   2.507 -0.0826  0.2700  0.3642
 6527TIP3    H143776   6.360   6.651   2.498  3.0908  0.3175  1.0591
 6527TIP3    H243777   6.270   6.532   2.473 -1.6473  3.5114  1.6270
 6528TIP3   OH243778   1.876   6.258   1.545 -0.4086 -0.3029 -0.1517
 6528TIP3    H143779   1.789   6.288   1.522 -0.8584 -2.0045 -0.8438
 6528TIP3    H243780   1.861   6.190   1.611  0.5741  1.0735  1.5743
 6529TIP3   OH243781   2.718   0.511   0.853 -0.1729  0.1776 -0.1154
 6529TIP3    H143782   2.775   0.508   0.775  1.4465 -1.1854  1.0485
 6529TIP3    H243783   2.776   0.491   0.926 -2.0694 -0.8086  1.2110
 6530TIP3   OH243784   3.553   5.745   1.186  0.1888  0.5854  0.2738
 6530TIP3    H143785   3.568   5.829   1.230  2.8006  0.8689 -0.9863
 6530TIP3    H243786   3.629   5.734   1.129 -0.6785 -2.0921 -0.4921
 6531TIP3   OH243787   3.968   3.056   0.851 -0.1781  0.1115  0.1703
 6531TIP3    H143788   3.971   2.963   0.829 -0.5520 -0.3058  1.7306
 6531TIP3    H243789   3.876   3.080   0.846 -0.0950  0.3668 -0.1324
 6532TIP3   OH243790   0.939   3.198   2.489 -0.3157 -0.3149  0.1768
 6532TIP3    H143791   0.998   3.261   2.531 -0.1946  0.1900 -0.7234
 6532TIP3    H243792   0.862   3.196   2.545  0.7548 -1.3888  1.6739
 6533TIP3   OH243793   4.051   1.663   2.084 -0.2261  0.7151  0.3214
 6533TIP3    H143794   4.129   1.717   2.087  0.1559  0.2284 -0.4333
 6533TIP3    H243795   3.980   1.720   2.112  0.4059  1.1522  1.0461
 6534TIP3   OH243796   0.633   0.613   2.622 -0.2549 -0.5735  0.0139
 6534TIP3    H143797   0.653   0.566   2.541 -0.8706  0.2505 -0.6264
 6534TIP3    H243798   0.706   0.593   2.680  1.5193  0.8481 -1.6043
 6535TIP3   OH243799   1.295   2.396   0.701  0.4999  0.3462  0.1401
 6535TIP3    H143800   1.332   2.373   0.787  1.8749  0.9762 -0.2560
 6535TIP3    H243801   1.202   2.379   0.710  0.9191 -1.6853  1.0659
 6536TIP3   OH243802   6.192   3.994   2.250 -0.1966  0.1622 -0.2532
 6536TIP3    H143803   6.115   3.964   2.300 -0.5266  0.9647 -0.2724
 6536TIP3    H243804   6.203   3.928   2.182 -0.7249 -0.0862 -0.1042
 6537TIP3   OH243805   5.626   2.085   0.865  0.3200 -0.2087 -0.4762
 6537TIP3    H143806   5.606   2.027   0.792  0.5086 -0.4172 -0.3618
 6537TIP3    H243807   5.698   2.140   0.833  1.8463 -1.6910  0.2568
 6538TIP3   OH243808   0.834   1.748   1.320  0.2772 -0.3804 -0.0733
 6538TIP3    H143809   0.793   1.806   1.385  0.3660 -0.3511 -0.0441
 6538TIP3    H243810   0.855   1.668   1.369  0.9935 -0.0923  0.1030
 6539TIP3   OH243811   5.252   1.658   1.622  0.1509  0.0891 -1.0906
 6539TIP3    H143812   5.326   1.607   1.655  0.4041 -0.0209 -1.8203
 6539TIP3    H243813   5.187   1.653   1.692 -0.9499 -3.5518 -2.1997
 6540TIP3   OH243814   1.717   1.201   2.994  0.4266 -0.1062  1.1178
 6540TIP3    H143815   1.759   1.245   3.068  1.8056  1.6784 -0.6122
 6540TIP3    H243816   1.779   1.133   2.968  0.3017 -0.2261  1.1346
 6541TIP3   OH243817   4.455   3.878   3.005  0.2911 -0.6144  0.2100
 6541TIP3    H143818   4.393   3.862   3.076  0.8616  0.2152  0.9078
 6541TIP3    H243819   4.479   3.970   3.014  1.4010 -0.8483 -0.2404
 6542TIP3   OH243820   6.400   2.628   4.182  0.5318  0.1039  0.2845
 6542TIP3    H143821   6.463   2.697   4.160  1.0818 -0.1444  1.0397
 6542TIP3    H243822   6.317   2.659   4.147  0.4162  1.9277  1.9821
 6543TIP3   OH243823   2.944   2.338   1.827 -0.1463 -0.1597  0.5539
 6543TIP3    H143824   2.915   2.319   1.916  1.2283 -3.2142  0.4929
 6543TIP3    H243825   2.889   2.282   1.771 -0.4228  1.0811 -0.4530
 6544TIP3   OH243826   1.340   3.166   2.623  0.2800  0.2931 -0.3712
 6544TIP3    H143827   1.433   3.158   2.644 -0.0454 -0.7367  0.8334
 6544TIP3    H243828   1.300   3.088   2.661 -1.2374  1.2556  0.1281
 6545TIP3   OH243829   3.586   2.442   3.301  0.2523 -0.6863 -0.4171
 6545TIP3    H143830   3.607   2.413   3.212  1.5449  0.1544 -0.4177
 6545TIP3    H243831   3.599   2.364   3.355 -0.8432 -1.2839 -0.9901
 6546TIP3   OH243832   0.854   4.492   2.840  0.1189  0.2223 -0.4533
 6546TIP3    H143833   0.817   4.570   2.799  0.3806  0.4223 -0.3147
 6546TIP3    H243834   0.923   4.463   2.780  0.9087  0.8645  0.1207
 6547TIP3   OH243835   2.352   0.058   2.077 -0.1506 -0.1787  0.1575
 6547TIP3    H143836   2.417   0.043   2.009  0.6704  0.5284  0.7647
 6547TIP3    H243837   2.299   0.130   2.044  1.1212  1.1202  0.8331
 6548TIP3   OH243838   4.665   6.113   0.668  0.3773 -0.3885 -0.0633
 6548TIP3    H143839   4.570   6.101   0.657  0.4028  0.7898 -2.2966
 6548TIP3    H243840   4.677   6.129   0.762 -1.3895 -2.2239  0.5431
 6549TIP3   OH243841   6.109   5.226   4.213  0.1162  0.2022  0.0597
 6549TIP3    H143842   6.139   5.136   4.198 -0.4781 -0.1721  1.0378
 6549TIP3    H243843   6.174   5.264   4.271  0.0309  0.2027  0.1548
 6550TIP3   OH243844   4.539   5.552   3.394  0.2478  0.1538 -0.1615
 6550TIP3    H143845   4.446   5.549   3.370 -0.2787 -0.3321  1.7141
 6550TIP3    H243846   4.564   5.460   3.405 -0.1510  0.2983  2.9443
 6551TIP3   OH243847   2.826   1.478   3.320 -0.2636 -0.1325 -0.5160
 6551TIP3    H143848   2.805   1.551   3.261 -0.3789  0.3905  0.1547
 6551TIP3    H243849   2.747   1.424   3.320 -0.0059 -0.5210 -1.3875
 6552TIP3   OH243850   6.433   6.155   0.458  0.3585  0.2527 -0.0081
 6552TIP3    H143851   6.344   6.190   0.454  0.0196 -0.0966  2.7292
 6552TIP3    H243852   6.485   6.225   0.496  0.2402 -1.0594  2.8204
 6553TIP3   OH243853   5.791   5.219   4.105 -0.0813 -0.2921  0.4994
 6553TIP3    H143854   5.722   5.246   4.166 -1.7492 -0.1723 -1.3498
 6553TIP3    H243855   5.800   5.125   4.118 -0.5973 -0.3089  0.7630
 6554TIP3   OH243856   0.213   2.752   3.029 -0.6762 -0.1344 -0.0322
 6554TIP3    H143857   0.295   2.781   3.071  0.3297 -1.1493 -1.1977
 6554TIP3    H243858   0.155   2.827   3.036  0.5171  0.7875  0.4528
 6555TIP3   OH243859   0.128   4.686   1.762 -0.2807 -0.0189 -0.0683
 6555TIP3    H143860   0.224   4.679   1.762 -0.2207  0.6598 -1.0313
 6555TIP3    H243861   0.107   4.731   1.843  0.3016  0.7741 -0.3542
 6556TIP3   OH243862   4.871   2.393   3.970  0.3101 -0.4941  0.5001
 6556TIP3    H143863   4.776   2.400   3.977  0.3316 -0.5080  0.8024
 6556TIP3    H243864   4.885   2.347   3.887  0.1448  2.8504 -1.5979
 6557TIP3   OH243865   6.420   5.317   1.589 -0.3194  0.1734  0.7468
 6557TIP3    H143866   6.468   5.327   1.507  0.5684  0.5527  1.2998
 6557TIP3    H243867   6.402   5.407   1.617 -2.1107  0.0546  0.1378
 6558TIP3   OH243868   1.716   5.578   0.904  0.1245  0.3442  0.2209
 6558TIP3    H143869   1.680   5.666   0.917  0.7088  0.7446 -0.8440
 6558TIP3    H243870   1.800   5.580   0.949  0.7846  0.7955 -0.9858
 6559TIP3   OH243871   3.159   6.353   2.117 -0.7102  0.4148 -0.3128
 6559TIP3    H143872   3.136   6.379   2.206  0.5507  1.5309 -0.2917
 6559TIP3    H243873   3.134   6.427   2.063  2.1304  1.4304 -0.3585
 6560TIP3   OH243874   3.974   1.914   0.509  0.4204 -0.3207  0.3205
 6560TIP3    H143875   4.044   1.974   0.483 -0.6917  0.6287 -0.6302
 6560TIP3    H243876   4.016   1.829   0.519  1.9421  0.4992  1.1249
 6561TIP3   OH243877   1.573   5.027   3.159 -0.6327  0.1276  0.4869
 6561TIP3    H143878   1.634   5.076   3.104  0.6024 -0.8351  0.9688
 6561TIP3    H243879   1.487   5.043   3.119 -0.3097  2.6568  0.6287
 6562TIP3   OH243880   6.247   4.749   3.190 -0.2032 -0.3652 -0.5526
 6562TIP3    H143881   6.328   4.784   3.152  0.7310 -1.3923  0.4154
 6562TIP3    H243882   6.187   4.823   3.189  0.7162  0.4098 -1.3585
 6563TIP3   OH243883   2.589   4.246   2.080  0.0858 -0.1698 -0.2007
 6563TIP3    H143884   2.681   4.270   2.083 -0.4107  1.8837  0.4997
 6563TIP3    H243885   2.556   4.288   2.000  0.0041 -2.0048 -1.1770
 6564TIP3   OH243886   1.532   1.333   1.696 -0.3764  0.6365 -0.3140
 6564TIP3    H143887   1.441   1.360   1.712  0.2471  2.0005  1.2169
 6564TIP3    H243888   1.533   1.240   1.718 -1.7350  0.1819 -1.9404
 6565TIP3   OH243889   1.743   5.163   2.988 -0.2852  0.0489  0.2302
 6565TIP3    H143890   1.734   5.255   2.964  1.1030  0.2651  0.4969
 6565TIP3    H243891   1.777   5.121   2.909 -1.7333 -0.4236 -0.1790
 6566TIP3   OH243892   5.380   3.003   4.030  0.2152 -0.1188 -0.3338
 6566TIP3    H143893   5.379   3.052   4.112  0.0607 -2.5875  1.2661
 6566TIP3    H243894   5.288   2.999   4.003 -0.0719 -1.2359  0.6983
 6567TIP3   OH243895   5.921   2.669   1.968 -0.2843 -0.1652  0.5171
 6567TIP3    H143896   5.983   2.642   2.035  1.0237 -1.6790 -1.2056
 6567TIP3    H243897   5.842   2.619   1.986 -0.3522  0.2943  1.5628
 6568TIP3   OH243898   3.389   2.738   3.918  0.4582  0.2306  0.4339
 6568TIP3    H143899   3.344   2.814   3.880 -0.4816  0.1909  1.4104
 6568TIP3    H243900   3.471   2.773   3.951  0.1989  0.7596  0.5307
 6569TIP3   OH243901   3.449   4.764   1.651  0.0725  0.5222  0.5753
 6569TIP3    H143902   3.360   4.733   1.669  0.3942 -0.1992  0.9965
 6569TIP3    H243903   3.453   4.851   1.691 -0.9419  1.2695 -0.8620
 6570TIP3   OH243904   0.207   3.188   4.235 -0.5215  0.4635  0.2277
 6570TIP3    H143905   0.152   3.130   4.183 -0.4951  0.6858 -0.0536
 6570TIP3    H243906   0.157   3.269   4.242 -1.1931 -0.0662  1.8436
 6571TIP3   OH243907   6.360   2.597   1.321 -0.6533  0.0318 -0.3016
 6571TIP3    H143908   6.388   2.645   1.242  0.3374 -0.5659 -0.3311
 6571TIP3    H243909   6.377   2.506   1.300 -0.6363 -0.1555  0.5153
 6572TIP3   OH243910   0.222   2.725   0.739  0.0059  0.0344 -0.5259
 6572TIP3    H143911   0.207   2.798   0.679 -1.1826  0.7475  0.5862
 6572TIP3    H243912   0.244   2.767   0.823  3.7853 -0.9210 -0.8492
 6573TIP3   OH243913   4.516   0.032   1.414  0.2645  0.3309  0.1907
 6573TIP3    H143914   4.569   0.007   1.338  0.4028 -0.5537  0.5620
 6573TIP3    H243915   4.531  -0.038   1.477 -2.7858 -0.9916 -0.3663
 6574TIP3   OH243916   2.819   0.014   1.264 -0.2156 -0.1717  0.4471
 6574TIP3    H143917   2.886  -0.037   1.310 -0.1282  0.5854  1.2081
 6574TIP3    H243918   2.826   0.101   1.303 -0.7919  0.2466 -0.3655
 6575TIP3   OH243919   0.356   2.978   4.323  0.2858 -0.3772  0.0915
 6575TIP3    H143920   0.325   3.067   4.305  1.8696  0.2043  0.0649
 6575TIP3    H243921   0.450   2.989   4.339  0.4317 -2.0054  0.4546
 6576TIP3   OH243922   0.572   1.082   2.730  0.1493 -0.2212 -0.2411
 6576TIP3    H143923   0.597   1.156   2.784  2.5684 -1.9370  1.1700
 6576TIP3    H243924   0.621   1.094   2.649  0.9307 -0.5208  0.1818
 6577TIP3   OH243925   4.846   1.106   2.128  0.2831  0.1132 -0.3709
 6577TIP3    H143926   4.853   1.170   2.057 -0.1854  1.4130  0.7155
 6577TIP3    H243927   4.785   1.146   2.190 -0.6701 -1.7655 -0.0237
 6578TIP3   OH243928   2.898   6.291   3.732 -0.1767  0.0695 -0.1719
 6578TIP3    H143929   2.890   6.383   3.708 -0.6920 -0.1055 -0.7205
 6578TIP3    H243930   2.930   6.292   3.822 -0.9990  0.8020  0.1299
 6579TIP3   OH243931   6.396   2.301   1.024  0.1831  0.1731 -0.7324
 6579TIP3    H143932   6.425   2.321   1.113  0.8928 -2.4652 -0.2821
 6579TIP3    H243933   6.300   2.299   1.030  0.2491 -2.3401  0.6350
 6580TIP3   OH243934   3.825   3.145   1.133 -0.1549  0.5358 -0.0206
 6580TIP3    H143935   3.878   3.164   1.056  1.7235  0.7422  1.2718
 6580TIP3    H243936   3.745   3.197   1.121  0.7329  1.6866 -1.1251
 6581TIP3   OH243937   1.001   3.643   2.722 -0.4363  0.2772  0.2849
 6581TIP3    H143938   1.011   3.584   2.797 -1.8096  0.1056  0.3621
 6581TIP3    H243939   0.911   3.628   2.692 -0.2478  1.1061 -0.7490
 6582TIP3   OH243940   0.119   1.785   0.834  0.2934  0.3475  0.2766
 6582TIP3    H143941   0.171   1.818   0.907  2.0206  2.1431 -1.6285
 6582TIP3    H243942   0.183   1.741   0.778 -0.9694 -0.9154 -0.2242
 6583TIP3   OH243943   5.993   5.458   1.515 -0.4202  0.3564 -0.1957
 6583TIP3    H143944   5.998   5.513   1.593  0.0937  1.0908 -0.7356
 6583TIP3    H243945   5.916   5.490   1.468  0.1850  1.0086 -0.7812
 6584TIP3   OH243946   2.885   5.156   1.979 -0.0719 -0.2603 -0.2022
 6584TIP3    H143947   2.952   5.092   1.955 -2.9970 -4.0855  1.0190
 6584TIP3    H243948   2.935   5.228   2.019  3.3173 -2.5912  0.1959
 6585TIP3   OH243949   6.500   1.004   1.325  0.3887 -0.2859  0.2395
 6585TIP3    H143950   6.556   1.075   1.357  0.9345 -1.0729  1.1285
 6585TIP3    H243951   6.526   0.929   1.379  1.4827 -1.7670 -2.1673
 6586TIP3   OH243952   4.534   6.248   2.776  0.0970  0.2987  0.3238
 6586TIP3    H143953   4.627   6.251   2.754  0.0117 -2.7531 -0.9792
 6586TIP3    H243954   4.501   6.170   2.731 -3.2830  1.6467  0.1510
 6587TIP3   OH243955   5.626   2.995   2.584 -0.5115 -0.1677  0.9198
 6587TIP3    H143956   5.569   2.921   2.564  1.9073 -1.9347  0.1419
 6587TIP3    H243957   5.709   2.974   2.541  0.4234  2.8148  1.0358
 6588TIP3   OH243958   0.145   2.143   1.183  0.2167 -0.3030 -0.1259
 6588TIP3    H143959   0.172   2.229   1.215 -3.2099  0.8914 -0.0946
 6588TIP3    H243960   0.092   2.106   1.254 -2.1874 -0.3605 -1.8343
 6589TIP3   OH243961   1.280   4.243   3.681  0.0283 -0.3744 -0.4634
 6589TIP3    H143962   1.235   4.223   3.599 -1.4749  2.0997 -0.3415
 6589TIP3    H243963   1.214   4.288   3.734  1.9778  1.3140  0.6614
 6590TIP3   OH243964   4.148   3.529   2.263  0.2162 -0.0547  0.1819
 6590TIP3    H143965   4.177   3.439   2.253 -2.0939 -0.9355  0.7694
 6590TIP3    H243966   4.092   3.528   2.341  1.2497  2.2054  1.0637
 6591TIP3   OH243967   1.616   1.271   3.631 -0.3131  0.1093  0.0183
 6591TIP3    H143968   1.593   1.188   3.589  1.4120  0.3298 -1.4913
 6591TIP3    H243969   1.626   1.332   3.558  0.4506  1.1202  0.9410
 6592TIP3   OH243970   6.489   5.776   5.004  0.0030  0.0539 -0.5226
 6592TIP3    H143971   6.397   5.755   5.019  0.2338  0.6556  2.4053
 6592TIP3    H243972   6.537   5.705   5.047  0.7612  2.6092  3.3750
 6593TIP3   OH243973   0.891   3.030   0.620 -0.3708  0.1872  0.6261
 6593TIP3    H143974   0.858   3.114   0.586  0.2972 -0.3609 -1.5220
 6593TIP3    H243975   0.986   3.044   0.628 -0.4646  0.1623  1.9435
 6594TIP3   OH243976   4.707   1.646   1.816 -0.3833 -0.5203 -0.1655
 6594TIP3    H143977   4.708   1.566   1.763 -1.0736  0.8981 -2.4291
 6594TIP3    H243978   4.725   1.716   1.754 -1.7850  1.2968  1.3812
 6595TIP3   OH243979   0.798   3.814   2.231  0.1960 -0.1914  0.0907
 6595TIP3    H143980   0.758   3.871   2.165 -0.3323 -0.1967  0.3927
 6595TIP3    H243981   0.846   3.873   2.288 -0.1811 -0.0641  0.2822
 6596TIP3   OH243982   2.957   3.781   2.249  0.6933 -0.3370  0.0364
 6596TIP3    H143983   2.890   3.819   2.306  0.8513 -1.2506  0.8681
 6596TIP3    H243984   2.915   3.773   2.164  0.0219 -0.1349  0.3434
 6597TIP3   OH243985   3.714   4.799   2.869 -0.5513 -0.0590 -0.3166
 6597TIP3    H143986   3.762   4.772   2.790 -0.1374  0.5395 -0.2820
 6597TIP3    H243987   3.671   4.880   2.843 -1.1835 -0.3582 -0.2077
 6598TIP3   OH243988   4.494   2.490   3.152  0.1616  0.0146 -1.1437
 6598TIP3    H143989   4.411   2.536   3.140 -0.1529 -0.2904 -0.2208
 6598TIP3    H243990   4.560   2.559   3.152 -0.3767  0.6013  1.0643
 6599TIP3   OH243991   5.920   0.433   3.822 -0.2841 -0.2556 -0.3040
 6599TIP3    H143992   5.837   0.435   3.870 -0.8386 -1.5523 -1.1507
 6599TIP3    H243993   5.987   0.446   3.889 -1.1442  0.4159  0.4506
 6600TIP3   OH243994   1.647   3.545   2.305 -0.2358 -0.1287 -0.3401
 6600TIP3    H143995   1.714   3.527   2.370 -1.0051  0.6124  0.6846
 6600TIP3    H243996   1.682   3.508   2.224  0.4988 -1.5630  0.5898
 6601TIP3   OH243997   4.375   2.873   1.369  0.8915 -0.2918  0.3984
 6601TIP3    H143998   4.397   2.950   1.317 -2.6832  0.3385 -0.4340
 6601TIP3    H243999   4.297   2.898   1.418  0.2310 -3.0395  0.9383
 6602TIP3   OH244000   3.634   1.799   1.624 -0.1875 -0.6887 -0.1154
 6602TIP3    H144001   3.669   1.871   1.676 -0.6000  0.2523 -1.0957
 6602TIP3    H244002   3.712   1.748   1.599  0.3141  0.3448 -0.7498
 6603TIP3   OH244003   3.760   0.496   2.830  0.3879 -0.1670  0.4207
 6603TIP3    H144004   3.730   0.495   2.921  1.2458  0.4442  0.7223
 6603TIP3    H244005   3.855   0.501   2.836  0.6255 -2.3391 -0.5054
 6604TIP3   OH244006   0.557   6.138   0.521  0.2015  0.3679 -0.0381
 6604TIP3    H144007   0.584   6.126   0.612  1.4664  1.0814 -0.3007
 6604TIP3    H244008   0.616   6.205   0.486  0.2968 -0.4715 -1.6128
 6605TIP3   OH244009   5.986   1.174   2.266  0.4257  0.0793 -0.0371
 6605TIP3    H144010   6.020   1.250   2.312  1.0300 -1.3859  2.0852
 6605TIP3    H244011   6.020   1.099   2.315  0.8964 -1.6156 -2.7822
 6606TIP3   OH244012   5.890   5.668   2.926  0.2067  0.0575 -0.1664
 6606TIP3    H144013   5.947   5.606   2.880  0.1076 -1.6150  1.8183
 6606TIP3    H244014   5.819   5.614   2.961  1.1841  0.7896  3.4201
 6607TIP3   OH244015   3.793   1.980   3.341  0.5109 -0.3157 -0.2896
 6607TIP3    H144016   3.861   1.934   3.293  0.3523  0.3705 -1.2149
 6607TIP3    H244017   3.749   1.913   3.393  1.9985 -0.7346  0.4644
 6608TIP3   OH244018   4.063   2.935   4.040  0.2678 -0.0237 -0.0688
 6608TIP3    H144019   4.115   2.867   4.082  0.8638 -1.6838 -3.2027
 6608TIP3    H244020   3.976   2.898   4.033  0.9737 -1.3828 -3.3247
 6609TIP3   OH244021   3.351   4.936   0.983 -0.5218  0.1036 -0.0348
 6609TIP3    H144022   3.299   4.933   0.903  0.3370  2.2076 -0.7494
 6609TIP3    H244023   3.371   4.845   1.002 -1.4578 -0.5075 -1.7287
 6610TIP3   OH244024   0.525   3.023  11.238  0.0119 -0.0093  0.3893
 6610TIP3    H144025   0.439   3.064  11.249  0.2458  1.1215 -1.5636
 6610TIP3    H244026   0.534   3.009  11.144  0.9532 -2.4606  0.7639
 6611TIP3   OH244027   1.845   3.174   3.069 -0.0412 -0.5562 -0.1275
 6611TIP3    H144028   1.789   3.141   2.999  1.4175  0.1297 -1.7013
 6611TIP3    H244029   1.831   3.114   3.141 -1.8508 -1.1056 -0.8759
 6612TIP3   OH244030   3.067   2.864   1.346  0.4668 -0.5142  0.0264
 6612TIP3    H144031   3.104   2.921   1.414 -0.6181 -1.1250  1.1802
 6612TIP3    H244032   3.140   2.808   1.320  0.9850 -0.0485  0.4460
 6613TIP3   OH244033   6.610   1.897   1.892  0.5307  0.0608  0.1479
 6613TIP3    H144034   6.516   1.877   1.896  0.4950  0.3354  0.7541
 6613TIP3    H244035   6.629   1.939   1.976  1.3775 -0.7657  0.3808
 6614TIP3   OH244036   2.955   5.718   3.018  0.0045  0.0450  0.4531
 6614TIP3    H144037   2.986   5.677   3.099  0.4408 -3.3482 -1.2345
 6614TIP3    H244038   2.998   5.669   2.948 -2.3946  1.0048 -1.9006
 6615TIP3   OH244039   4.755   4.917   1.412 -0.5440  0.5698  0.4804
 6615TIP3    H144040   4.828   4.956   1.459 -0.7028  2.8126 -0.9974
 6615TIP3    H244041   4.697   4.885   1.480  1.3546 -0.4558  1.6986
 6616TIP3   OH244042   3.380   6.018   1.139 -0.7500  0.9777  0.4697
 6616TIP3    H144043   3.295   6.042   1.103 -1.1155  1.2240  1.4670
 6616TIP3    H244044   3.412   5.950   1.080 -1.4157  1.2200 -0.1954
 6617TIP3   OH244045   6.375   1.843   0.546  0.0051 -0.4458  0.0280
 6617TIP3    H144046   6.335   1.922   0.509  0.9053 -0.1743 -0.4038
 6617TIP3    H244047   6.468   1.865   0.553  0.4468 -1.8265 -1.0548
 6618TIP3   OH244048   4.310   6.310   2.321 -0.1584  0.2766  0.2534
 6618TIP3    H144049   4.402   6.306   2.349  0.6383 -2.2917 -2.2239
 6618TIP3    H244050   4.304   6.391   2.270  0.6740  0.5453  0.5622
 6619TIP3   OH244051   5.725   5.725   4.404  0.0158 -0.6691  0.2409
 6619TIP3    H144052   5.678   5.803   4.374  0.3524 -0.2013  0.9044
 6619TIP3    H244053   5.657   5.658   4.413 -0.1681 -0.6910 -1.0757
 6620TIP3   OH244054   2.459   1.262   2.945 -0.3296 -0.1675 -0.1996
 6620TIP3    H144055   2.441   1.356   2.939  2.0548  0.3803  0.1236
 6620TIP3    H244056   2.417   1.235   3.026  0.4804  1.0602  0.6711
 6621TIP3   OH244057   1.312   6.220   1.375 -0.0013  0.3013 -0.2417
 6621TIP3    H144058   1.274   6.159   1.313  1.7592 -0.3222 -0.7733
 6621TIP3    H244059   1.407   6.212   1.361  0.3135  2.3320  0.4568
 6622TIP3   OH244060   3.636   5.305   1.338 -0.6178 -0.0341  1.1130
 6622TIP3    H144061   3.593   5.290   1.422 -0.6947 -2.2284  0.7200
 6622TIP3    H244062   3.690   5.227   1.323  0.5496  0.9545 -0.2068
 6623TIP3   OH244063   0.127   5.286   1.859 -0.0931 -0.0994  0.4244
 6623TIP3    H144064   0.181   5.345   1.807  1.0657 -1.0936  0.4418
 6623TIP3    H244065   0.102   5.216   1.799  0.0052 -0.4780  0.8134
 6624TIP3   OH244066   2.058   4.079   1.851 -0.0104 -0.0303 -0.0675
 6624TIP3    H144067   2.048   4.164   1.808  0.3006  0.2572  0.4173
 6624TIP3    H244068   2.148   4.080   1.884 -0.5238  0.1545  1.4121
 6625TIP3   OH244069   5.588   3.264   1.555  0.3795 -0.4057 -0.4127
 6625TIP3    H144070   5.515   3.234   1.501  1.0922 -0.6955 -1.2471
 6625TIP3    H244071   5.633   3.329   1.500 -0.6059  1.6092  1.0033
 6626TIP3   OH244072   5.698   3.355   1.324  0.2781 -0.3167  0.1013
 6626TIP3    H144073   5.671   3.291   1.257  0.3182 -0.4482  0.2096
 6626TIP3    H244074   5.691   3.440   1.281  0.4402 -0.4122 -0.1154
 6627TIP3   OH244075   0.628   5.240   1.692 -0.0300  1.1850  0.0007
 6627TIP3    H144076   0.614   5.193   1.610  0.2414  0.1530  0.5401
 6627TIP3    H244077   0.557   5.212   1.749  0.1891  1.3509  0.3601
 6628TIP3   OH244078   3.270   1.573   1.996  0.4590  0.0679  0.5066
 6628TIP3    H144079   3.222   1.626   2.059 -0.2942  0.4896 -0.4079
 6628TIP3    H244080   3.326   1.636   1.950 -0.2844  0.0564 -0.4385
 6629TIP3   OH244081   5.473   0.823   1.214  0.5789  0.4620 -0.0687
 6629TIP3    H144082   5.556   0.858   1.247 -0.7276  2.6614  1.1073
 6629TIP3    H244083   5.454   0.875   1.136 -0.7581  1.5965  0.9600
 6630TIP3   OH244084   2.778   1.378   1.443  0.2908 -0.1093 -0.2294
 6630TIP3    H144085   2.774   1.422   1.358  1.7282  0.9017  0.1981
 6630TIP3    H244086   2.809   1.289   1.422 -1.2125 -0.4911 -0.9386
 6631TIP3   OH244087   3.234   5.041   2.210 -0.5544 -0.4701  0.0304
 6631TIP3    H144088   3.238   5.049   2.115  2.1498 -1.5919 -0.0439
 6631TIP3    H244089   3.208   4.950   2.226 -0.3182 -0.4838  0.3553
 6632TIP3   OH244090   2.808   3.479   1.776 -0.0350  0.0497 -0.1833
 6632TIP3    H144091   2.715   3.502   1.775 -0.2849 -0.8347 -2.2178
 6632TIP3    H244092   2.810   3.385   1.792  0.5594  0.1927  0.6130
 6633TIP3   OH244093   3.582   2.331   0.878 -0.3129 -0.4468  0.0370
 6633TIP3    H144094   3.629   2.251   0.857 -0.8979 -0.9076  0.4466
 6633TIP3    H244095   3.560   2.322   0.971  0.4382  0.6181  0.3434
 6634TIP3   OH244096   5.650   6.207   0.971  0.6595 -0.2899 -0.8291
 6634TIP3    H144097   5.591   6.228   1.044  0.1542 -0.9287 -1.0478
 6634TIP3    H244098   5.670   6.114   0.983 -0.1529 -0.6312 -2.0236
 6635TIP3   OH244099   1.627   3.742   2.838  0.1074 -0.4137 -0.3217
 6635TIP3    H144100   1.706   3.729   2.784 -0.5693 -0.0104 -1.4519
 6635TIP3    H244101   1.602   3.833   2.821 -0.1251 -0.2742  0.7043
 6636TIP3   OH244102   3.066   0.426   1.213  0.3637 -0.2701  0.0835
 6636TIP3    H144103   3.094   0.435   1.122  0.6471 -2.5072 -0.0978
 6636TIP3    H244104   3.060   0.516   1.245 -0.4335  0.6220 -2.3381
 6637TIP3   OH244105   2.047   4.160   3.114 -0.6849  0.1871 -0.2318
 6637TIP3    H144106   2.080   4.182   3.201  0.7996 -0.7355 -0.5188
 6637TIP3    H244107   2.092   4.222   3.055  0.6433 -1.0995 -0.6309
 6638TIP3   OH244108   6.096   4.689   0.995  0.2580  0.1373 -0.0256
 6638TIP3    H144109   6.025   4.722   1.050  0.8043 -0.0681  0.8147
 6638TIP3    H244110   6.136   4.768   0.958  1.4292  0.4677  1.8094
 6639TIP3   OH244111   0.531   5.747   2.893 -0.6130  0.2385  0.6720
 6639TIP3    H144112   0.601   5.787   2.944  1.2152  0.4577 -1.8254
 6639TIP3    H244113   0.469   5.818   2.876  1.4410  1.6032 -1.7640
 6640TIP3   OH244114   2.530   3.276   2.023 -0.1076  0.3833  1.0488
 6640TIP3    H144115   2.458   3.212   2.025  0.7163 -0.5632  1.1974
 6640TIP3    H244116   2.495   3.353   2.068 -0.2830 -0.8809  3.1919
 6641TIP3   OH244117   4.848   0.298   1.577  0.4853  0.0086 -0.8493
 6641TIP3    H144118   4.756   0.287   1.553  0.2483 -0.0131  0.0523
 6641TIP3    H244119   4.888   0.338   1.499 -0.6640  1.7708 -0.5841
 6642TIP3   OH244120   4.826   2.629   3.116 -0.1439  0.2963  0.4808
 6642TIP3    H144121   4.782   2.665   3.193 -1.4052  0.3902 -0.2526
 6642TIP3    H244122   4.895   2.693   3.097  0.2444  0.2235  1.5740
 6643TIP3   OH244123   2.651   6.372   1.294  0.6298  0.2719 -0.2154
 6643TIP3    H144124   2.656   6.460   1.255 -0.6930  0.2167 -0.5771
 6643TIP3    H244125   2.742   6.349   1.313  1.3066  0.5381 -2.7701
 6644TIP3   OH244126   3.429   5.528   1.268  0.3746  0.1149 -0.2737
 6644TIP3    H144127   3.392   5.554   1.352 -1.3915 -0.9086 -0.6739
 6644TIP3    H244128   3.467   5.609   1.233  0.8802  0.6187  1.3512
 6645TIP3   OH244129   4.028   6.459   1.698 -0.1429  0.5793  0.7763
 6645TIP3    H144130   4.098   6.524   1.703 -1.1598  1.6772  1.3173
 6645TIP3    H244131   3.955   6.505   1.658 -0.4185 -0.6944 -0.2611
 6646TIP3   OH244132   1.955   4.120   2.346 -0.0003 -0.2015 -0.2031
 6646TIP3    H144133   1.925   4.123   2.255  0.9364 -0.5019 -0.5418
 6646TIP3    H244134   1.885   4.077   2.394 -0.2233 -0.6362 -0.9122
 6647TIP3   OH244135   5.420   0.119   1.310 -0.1690  0.0619  0.0209
 6647TIP3    H144136   5.378   0.138   1.393 -1.3239 -1.0401 -0.2749
 6647TIP3    H244137   5.387   0.032   1.286  2.2332 -0.8560 -0.2724
 6648TIP3   OH244138   5.452   6.550   2.265  0.5714  0.1524  0.0546
 6648TIP3    H144139   5.379   6.487   2.266 -1.5577  2.3772 -1.8027
 6648TIP3    H244140   5.508   6.520   2.193  0.2243 -0.2636 -0.0517
 6649TIP3   OH244141   0.424   6.409   3.244 -0.2673 -0.4217  0.0965
 6649TIP3    H144142   0.415   6.333   3.187 -1.8474 -1.6890  1.9148
 6649TIP3    H244143   0.355   6.468   3.216  0.1124 -0.2307 -0.4533
 6650TIP3   OH244144   2.890   2.521   2.873 -0.4610  0.0301 -0.0861
 6650TIP3    H144145   2.872   2.427   2.880 -0.1831 -0.0545 -0.5167
 6650TIP3    H244146   2.980   2.530   2.905 -0.5496  0.1781  0.1260
 6651TIP3   OH244147   0.872   2.684   1.076  1.1707  0.5991  0.6550
 6651TIP3    H144148   0.782   2.705   1.051  1.4196  1.4895  0.4676
 6651TIP3    H244149   0.883   2.591   1.054 -0.1848  0.0448  2.1180
 6652TIP3   OH244150   4.544   4.874   1.627  0.8533  0.9862 -0.1109
 6652TIP3    H144151   4.527   4.811   1.696  1.4507  0.6215 -0.2796
 6652TIP3    H244152   4.460   4.915   1.609  0.5733  0.6373  0.3947
 6653TIP3   OH244153   2.598   1.587   1.525  0.0359  0.0177  0.2001
 6653TIP3    H144154   2.682   1.632   1.533  0.3653 -0.1408 -1.8586
 6653TIP3    H244155   2.619   1.505   1.481 -1.2360  0.1153 -0.6437
 6654TIP3   OH244156   4.549   1.415   0.695 -0.1711 -0.0112  0.4503
 6654TIP3    H144157   4.636   1.448   0.717  0.8428 -0.8538 -1.8671
 6654TIP3    H244158   4.544   1.329   0.737  0.6644 -0.4864 -0.3736
 6655TIP3   OH244159   0.658   1.285   2.908  0.0901  0.1921 -0.0059
 6655TIP3    H144160   0.711   1.237   2.972  0.9857  0.2106 -0.7068
 6655TIP3    H244161   0.570   1.285   2.944  0.5781  0.1948  1.2172
 6656TIP3   OH244162   0.601   5.280   2.924  0.0938  0.1995 -0.0975
 6656TIP3    H144163   0.573   5.304   2.835 -0.6519 -0.0319  0.0672
 6656TIP3    H244164   0.523   5.242   2.964  0.3202  0.6234  0.7763
 6657TIP3   OH244165   4.458   2.257   3.015  0.7968 -0.0952  0.0549
 6657TIP3    H144166   4.515   2.188   3.050  0.2570 -0.6318 -0.0947
 6657TIP3    H244167   4.482   2.336   3.064  2.5358 -0.0112 -0.8533
 6658TIP3   OH244168   6.100   2.660   3.579  0.2128 -0.1684 -0.3019
 6658TIP3    H144169   6.071   2.700   3.660  0.9833 -2.0571  0.9838
 6658TIP3    H244170   6.158   2.724   3.539  0.5899  0.4097  1.1332
 6659TIP3   OH244171   6.183   0.990   0.953 -0.4024  0.0455  0.4249
 6659TIP3    H144172   6.237   0.911   0.958 -1.0280 -0.3954  0.3765
 6659TIP3    H244173   6.240   1.056   0.914  0.0244 -0.4772  0.1465
 6660TIP3   OH244174   5.162   5.880   1.769 -0.0612 -0.0938 -0.3147
 6660TIP3    H144175   5.163   5.784   1.769  0.1385 -0.0913 -0.0854
 6660TIP3    H244176   5.091   5.904   1.829 -0.1562 -0.0966 -0.4242
 6661TIP3   OH244177   6.196   3.353   0.884 -0.1594  0.0188  0.2099
 6661TIP3    H144178   6.111   3.324   0.917  1.4871 -2.7743  2.4537
 6661TIP3    H244179   6.233   3.406   0.955  0.2942  0.5703 -0.4260
 6662TIP3   OH244180   6.378   2.098   3.065  0.0188 -0.7888 -0.4126
 6662TIP3    H144181   6.397   2.126   3.155  0.7384  0.1481 -0.8316
 6662TIP3    H244182   6.428   2.016   3.054  2.4529  0.6545 -0.8785
 6663TIP3   OH244183   0.012   2.616   2.908  0.3287  0.3153  0.1777
 6663TIP3    H144184   0.000   2.675   2.834 -0.1072  1.7417  1.3366
 6663TIP3    H244185   0.082   2.655   2.960  0.0500 -0.1801  0.9530
 6664TIP3   OH244186   5.334   1.883   3.257 -0.4662 -1.0059 -0.3470
 6664TIP3    H144187   5.351   1.862   3.348  0.4971  0.8225 -0.0590
 6664TIP3    H244188   5.266   1.950   3.259  1.4009  1.0556 -0.7098
 6665TIP3   OH244189   1.829   2.329   0.595 -0.1050  0.5018  0.2647
 6665TIP3    H144190   1.824   2.279   0.514 -0.8204 -0.2710  0.7669
 6665TIP3    H244191   1.844   2.264   0.663  0.2141  1.1086  0.7938
 6666TIP3   OH244192   2.138   5.684   2.549  0.0116 -0.3080  0.2406
 6666TIP3    H144193   2.086   5.668   2.628  1.6895 -1.6085  1.1610
 6666TIP3    H244194   2.193   5.759   2.571 -0.1028 -0.1468 -0.0151
 6667TIP3   OH244195   3.229   3.024   3.267 -0.5699  0.2277  0.0517
 6667TIP3    H144196   3.197   2.960   3.331  1.0497 -0.0124  0.6857
 6667TIP3    H244197   3.210   3.109   3.307 -1.4165  0.1261 -0.1174
 6668TIP3   OH244198   3.670   4.842   0.781 -0.4869  0.3347 -0.4495
 6668TIP3    H144199   3.578   4.836   0.754 -0.5138 -1.4380 -0.1046
 6668TIP3    H244200   3.682   4.933   0.807 -2.6938  0.2120  1.3093
 6669TIP3   OH244201   4.509   6.126   1.311  0.3415  0.2494  0.4550
 6669TIP3    H144202   4.469   6.186   1.373 -0.7630 -0.7811  0.7827
 6669TIP3    H244203   4.548   6.182   1.244 -0.8911  1.3184  0.6023
 6670TIP3   OH244204   2.904   2.359   1.354 -0.3578  0.0585  0.0352
 6670TIP3    H144205   2.863   2.281   1.390  0.4495  0.2911  1.5546
 6670TIP3    H244206   2.956   2.327   1.280 -3.5953 -0.1619 -2.3490
 6671TIP3   OH244207   3.255   0.770   1.763 -0.1545  0.3619  0.0976
 6671TIP3    H144208   3.293   0.826   1.695 -3.6130  1.4118 -1.1891
 6671TIP3    H244209   3.246   0.828   1.839 -0.9202  0.6722 -0.2263
 6672TIP3   OH244210   0.195   5.411   2.213 -0.3697 -0.0162  0.4877
 6672TIP3    H144211   0.111   5.430   2.256  0.7853  0.7065  2.5311
 6672TIP3    H244212   0.193   5.463   2.133 -2.2185 -0.7107  0.0106
 6673TIP3   OH244213   4.391   2.301   4.254 -0.4126  0.5547 -0.0504
 6673TIP3    H144214   4.386   2.386   4.209 -0.5147  0.2448 -0.6281
 6673TIP3    H244215   4.482   2.274   4.244 -0.8654 -0.4327 -1.7867
 6674TIP3   OH244216   1.665   2.062   3.210 -0.1971 -0.2366  0.2212
 6674TIP3    H144217   1.700   2.152   3.207 -0.3521 -0.1872 -2.1305
 6674TIP3    H244218   1.571   2.073   3.221 -0.2313 -0.0950 -0.1940
 6675TIP3   OH244219   0.414   3.935   3.578 -0.6357 -0.5896 -0.4181
 6675TIP3    H144220   0.422   3.995   3.504 -2.6084 -0.2767 -0.4224
 6675TIP3    H244221   0.504   3.926   3.611  0.3989 -1.0271 -3.0406
 6676TIP3   OH244222   2.927   4.257   3.090  0.3154 -0.5686 -0.3502
 6676TIP3    H144223   2.869   4.326   3.056  1.9850  0.3442 -1.4945
 6676TIP3    H244224   2.976   4.227   3.014  1.3993 -1.2629  0.5897
 6677TIP3   OH244225   2.445   6.045   1.156  0.0507  0.5153 -0.0523
 6677TIP3    H144226   2.440   6.120   1.216 -0.7994  0.6656 -0.2950
 6677TIP3    H244227   2.355   6.012   1.152  0.2539  0.0294 -0.6412
 6678TIP3   OH244228   2.334   1.122   3.175 -0.1705 -0.5299  0.3547
 6678TIP3    H144229   2.271   1.192   3.193  1.4980  0.9956  0.5799
 6678TIP3    H244230   2.321   1.060   3.246 -1.7462 -0.5210  0.1141
 6679TIP3   OH244231   4.458   5.574   1.071  0.3814  0.3050 -0.3890
 6679TIP3    H144232   4.391   5.548   1.008 -0.0518 -0.1841  0.2484
 6679TIP3    H244233   4.424   5.543   1.155  0.5948  1.5815  0.1965
 6680TIP3   OH244234   2.176   0.978   2.387 -0.1819  0.1157  0.5819
 6680TIP3    H144235   2.203   1.058   2.342 -0.4696 -0.1772 -0.1166
 6680TIP3    H244236   2.082   0.989   2.403 -0.6514 -0.8590 -1.2097
 6681TIP3   OH244237   5.155   4.448   3.984 -0.5197  0.0374 -0.1109
 6681TIP3    H144238   5.177   4.540   3.967 -3.7349  0.4780 -2.9868
 6681TIP3    H244239   5.209   4.399   3.923  0.1266  0.1225  0.3821
 6682TIP3   OH244240   3.480   2.833   3.362  0.0003  0.1564 -0.3015
 6682TIP3    H144241   3.416   2.876   3.418  0.2266 -1.1681  1.0284
 6682TIP3    H244242   3.562   2.877   3.382  0.2816 -0.9841  1.2515
 6683TIP3   OH244243   0.864   5.974   3.462  0.1078  0.2272 -0.0532
 6683TIP3    H144244   0.792   6.006   3.408  0.5175 -0.4943 -1.0680
 6683TIP3    H244245   0.827   5.901   3.512 -0.1642  0.6256  0.3340
 6684TIP3   OH244246   4.870   4.301   4.118  0.2466  0.3265  1.1500
 6684TIP3    H144247   4.829   4.340   4.040 -0.6110  1.4834  2.1345
 6684TIP3    H244248   4.811   4.230   4.143 -0.9077  1.6270  2.2341
 6685TIP3   OH244249   5.775   6.191   1.476  0.2327  0.0763 -0.4726
 6685TIP3    H144250   5.733   6.110   1.446 -0.5452  0.4026 -0.3016
 6685TIP3    H244251   5.729   6.260   1.429 -0.7247  0.5744  1.1003
 6686TIP3   OH244252   5.112   5.008   0.646 -0.4956 -0.3839  0.1006
 6686TIP3    H144253   5.162   5.044   0.573  1.0436 -1.3455  0.6170
 6686TIP3    H244254   5.038   5.067   0.656  2.0401  2.9060  1.1688
 6687TIP3   OH244255   1.687   3.815   2.238  0.2123 -0.7076 -0.0568
 6687TIP3    H144256   1.766   3.810   2.184 -0.7243  0.9254 -1.6901
 6687TIP3    H244257   1.667   3.724   2.260  2.0108 -1.2234 -0.3718
 6688TIP3   OH244258   0.109   0.140   3.811 -0.3047  0.0368  0.2446
 6688TIP3    H144259   0.127   0.053   3.847 -0.7243 -0.8783 -1.6031
 6688TIP3    H244260   0.192   0.167   3.772 -0.0467  0.6965  1.2266
 6689TIP3   OH244261   4.803   0.048   2.479 -0.2052 -0.6511  0.2020
 6689TIP3    H144262   4.763   0.128   2.446 -1.1811 -1.0734  0.3270
 6689TIP3    H244263   4.729  -0.004   2.512  0.6022 -0.7458  1.9497
 6690TIP3   OH244264   1.504   5.930   3.265  0.1967  0.2995  0.3485
 6690TIP3    H144265   1.599   5.930   3.254  0.0250  1.7860 -1.9555
 6690TIP3    H244266   1.471   5.889   3.185 -1.1116 -0.3074  1.1734
 6691TIP3   OH244267   4.990   2.324   2.675  0.2948  0.3087  0.1011
 6691TIP3    H144268   4.982   2.252   2.738 -0.4024  0.2920  0.0009
 6691TIP3    H244269   5.070   2.369   2.701  0.4554 -0.1871  0.4935
 6692TIP3   OH244270   3.647   1.928   2.911  0.0361 -0.0106 -0.2461
 6692TIP3    H144271   3.691   1.896   2.832 -0.3544  0.9245 -0.8534
 6692TIP3    H244272   3.611   1.849   2.951  0.4573 -0.5316 -0.8638
 6693TIP3   OH244273   0.169   1.087   2.865 -0.6909  0.4055  0.3479
 6693TIP3    H144274   0.217   1.105   2.785  1.9499 -0.8506  1.5160
 6693TIP3    H244275   0.145   0.995   2.860 -1.8012  0.6707  0.4111
 6694TIP3   OH244276   4.709   0.208   3.630 -0.2938  0.2031  0.5115
 6694TIP3    H144277   4.652   0.168   3.696  0.7557 -1.4128  0.5145
 6694TIP3    H244278   4.684   0.300   3.629 -1.9242 -0.1804  1.4943
 6695TIP3   OH244279   4.281   0.110   1.532  0.0457 -0.1908  0.2776
 6695TIP3    H144280   4.289   0.203   1.511  1.0537  0.3466  2.6445
 6695TIP3    H244281   4.364   0.072   1.504  0.2484 -0.0489  0.6718
 6696TIP3   OH244282   1.561   3.357   0.655 -0.2495  0.7099 -0.5626
 6696TIP3    H144283   1.586   3.334   0.745  0.1020 -1.6571 -1.1973
 6696TIP3    H244284   1.644   3.360   0.607 -0.5201  0.8333 -1.0270
 6697TIP3   OH244285   0.784   2.874   1.665  0.2455  0.7705  0.2484
 6697TIP3    H144286   0.745   2.959   1.682  0.3022  1.0957 -1.1659
 6697TIP3    H244287   0.878   2.892   1.657  0.5376  0.2410  1.9698
 6698TIP3   OH244288   4.281   2.761   1.629 -0.2941 -0.3724 -0.0037
 6698TIP3    H144289   4.254   2.847   1.662  1.6321  0.3847 -0.2791
 6698TIP3    H244290   4.282   2.771   1.534  1.2575 -0.2241 -0.0010
 6699TIP3   OH244291   1.746   2.717   2.347 -0.1667  0.6513  0.4960
 6699TIP3    H144292   1.717   2.695   2.435 -0.1628  0.2682  0.4056
 6699TIP3    H244293   1.818   2.778   2.360 -0.2293  0.6704  0.7560
 6700TIP3   OH244294   2.277   4.250   3.304 -0.1423 -0.3316  0.0285
 6700TIP3    H144295   2.332   4.298   3.243  0.1477 -0.5250  0.1392
 6700TIP3    H244296   2.336   4.190   3.349 -0.4997 -0.8017 -0.1137
 6701TIP3   OH244297   3.987   3.560   1.916 -0.3893 -0.3304  0.4662
 6701TIP3    H144298   4.048   3.611   1.969 -1.3859 -1.1884  2.5349
 6701TIP3    H244299   3.942   3.625   1.862  1.2419  0.4791  0.0170
 6702TIP3   OH244300   0.484   5.368   1.919 -0.5046  0.2463  0.2233
 6702TIP3    H144301   0.479   5.430   1.991  0.8497 -0.4905  0.9901
 6702TIP3    H244302   0.429   5.406   1.850 -2.6111  0.4826  1.9543
 6703TIP3   OH244303   4.710   3.706   1.592 -0.3387 -0.1372  0.2199
 6703TIP3    H144304   4.737   3.660   1.672 -2.7992 -1.1813  0.5269
 6703TIP3    H244305   4.674   3.789   1.622 -2.2996 -0.9905  0.3900
 6704TIP3   OH244306   0.295   2.487   3.367 -0.7409  0.6478  0.2735
 6704TIP3    H144307   0.228   2.420   3.379 -1.2571  0.9551 -0.7288
 6704TIP3    H244308   0.311   2.487   3.272 -1.6070  2.7278  0.0732
 6705TIP3   OH244309   0.330   3.401   2.707  0.3968  0.0825 -0.1075
 6705TIP3    H144310   0.288   3.430   2.788  0.5735  1.5503 -0.4996
 6705TIP3    H244311   0.265   3.343   2.666  0.7805 -1.6664  1.6100
 6706TIP3   OH244312   2.214   4.522   0.401 -0.4619  0.3856 -0.4808
 6706TIP3    H144313   2.250   4.586   0.462  0.9458 -0.3156 -0.5439
 6706TIP3    H244314   2.170   4.574   0.335  1.8932  1.4148 -1.3264
 6707TIP3   OH244315   1.675   1.326   3.927  0.3685 -0.3624  0.1449
 6707TIP3    H144316   1.703   1.418   3.927 -0.0036 -0.1872  2.6514
 6707TIP3    H244317   1.627   1.317   3.845  0.2242  1.7456 -0.0747
 6708TIP3   OH244318   5.821   3.454   1.656 -0.1038  0.3276  0.5554
 6708TIP3    H144319   5.744   3.491   1.614 -0.5882  0.0945  1.2380
 6708TIP3    H244320   5.853   3.389   1.593 -1.0105 -0.2443  0.6766
 6709TIP3   OH244321   1.816   3.429   2.464  0.3175  0.5066 -0.8744
 6709TIP3    H144322   1.758   3.363   2.503  0.1650  1.5594  0.8112
 6709TIP3    H244323   1.901   3.386   2.457  0.2329  0.1265  0.2472
 6710TIP3   OH244324   0.088   4.222   3.150  0.0736 -0.3398 -0.5306
 6710TIP3    H144325   0.134   4.231   3.067  1.2672  1.2529  0.2568
 6710TIP3    H244326   0.052   4.309   3.167  1.6862 -0.0038  1.6241
 6711TIP3   OH244327   4.294   4.088   2.386 -0.3473 -0.2524 -0.2269
 6711TIP3    H144328   4.378   4.126   2.359  0.0923 -0.7678  0.3866
 6711TIP3    H244329   4.248   4.160   2.428 -0.7385  0.3693 -1.6394
 6712TIP3   OH244330   2.436   4.118   1.347  0.0983 -0.1291 -0.4196
 6712TIP3    H144331   2.474   4.031   1.349 -0.5409 -0.3973  0.9384
 6712TIP3    H244332   2.508   4.175   1.320  0.7425 -0.9632 -0.4927
 6713TIP3   OH244333   3.235   0.119   3.292 -0.0753  0.1464  0.6001
 6713TIP3    H144334   3.225   0.147   3.201 -0.2136 -2.5438 -0.2980
 6713TIP3    H244335   3.265   0.197   3.338 -2.2726  2.2479 -1.2504
 6714TIP3   OH244336   6.275   3.165   2.910 -0.4639  0.2191 -0.2903
 6714TIP3    H144337   6.289   3.239   2.969  0.0898 -0.2010  0.1190
 6714TIP3    H244338   6.314   3.193   2.826 -0.2834  0.4041 -0.1461
 6715TIP3   OH244339   2.230   0.741   1.550  0.3238 -0.1856  0.0365
 6715TIP3    H144340   2.170   0.784   1.611  2.8505  1.4163  1.5498
 6715TIP3    H244341   2.236   0.800   1.476  1.3145  0.5227  0.6645
 6716TIP3   OH244342   2.983   0.133   2.570 -0.0869 -0.5587 -0.5814
 6716TIP3    H144343   2.926   0.125   2.493 -0.8698  0.6770 -0.1628
 6716TIP3    H244344   3.071   0.122   2.535 -0.4853 -0.9209 -1.5116
 6717TIP3   OH244345   3.048   3.579   2.614 -0.2683 -0.3094 -0.2487
 6717TIP3    H144346   2.988   3.512   2.581 -0.1545  0.9387 -3.2591
 6717TIP3    H244347   2.994   3.632   2.673 -1.0752 -1.3871  0.0163
 6718TIP3   OH244348   4.369   3.974   1.097 -0.6678  0.4675 -0.0382
 6718TIP3    H144349   4.313   4.048   1.072 -0.7059 -0.2102 -2.1906
 6718TIP3    H244350   4.324   3.897   1.062  0.9395 -0.2327 -0.6578
 6719TIP3   OH244351   0.603   0.027   2.151 -0.2254 -0.1164 -0.4614
 6719TIP3    H144352   0.618  -0.011   2.237 -1.0972  1.1307  0.2685
 6719TIP3    H244353   0.666   0.099   2.145 -2.4634  2.1073  0.6772
 6720TIP3   OH244354   5.374   3.205   4.223  0.3890  0.8227 -0.3426
 6720TIP3    H144355   5.427   3.270   4.269  1.7804 -1.5198  1.5510
 6720TIP3    H244356   5.305   3.182   4.285 -0.5905  1.0412 -1.3138
 6721TIP3   OH244357   2.483   1.525   3.994 -0.2287 -0.0419  0.5105
 6721TIP3    H144358   2.400   1.547   4.035 -0.8806 -1.2997 -0.0817
 6721TIP3    H244359   2.460   1.462   3.926  1.2060 -0.3580  0.2908
 6722TIP3   OH244360   3.715   6.098   3.960 -0.5058 -0.2227  0.2475
 6722TIP3    H144361   3.641   6.051   3.921 -1.1967 -0.7411  2.0806
 6722TIP3    H244362   3.724   6.177   3.906 -2.8549  0.1967  0.3365
 6723TIP3   OH244363   1.340   1.278   3.769 -0.1529  0.0400  0.4497
 6723TIP3    H144364   1.262   1.245   3.813  0.1301 -1.3471 -0.0091
 6723TIP3    H244365   1.319   1.270   3.676  0.4446 -0.1352  0.3271
 6724TIP3   OH244366   0.480   3.359   3.318 -0.2121 -0.2269 -0.1197
 6724TIP3    H144367   0.534   3.288   3.283 -0.0343 -1.1407  1.9028
 6724TIP3    H244368   0.542   3.425   3.347 -0.2374 -0.5498  0.6868
 6725TIP3   OH244369   0.005   5.332   1.010 -0.3036  0.5048 -0.4918
 6725TIP3    H144370   0.098   5.342   0.988  0.1263  1.3631  1.4529
 6725TIP3    H244371  -0.042   5.386   0.947  0.6090  0.8818 -0.8583
 6726TIP3   OH244372   1.188   3.941   2.928 -0.3053  0.4024 -0.0016
 6726TIP3    H144373   1.103   3.981   2.912 -0.1744  1.3169  1.3947
 6726TIP3    H244374   1.248   3.989   2.871 -0.6905 -0.1971 -0.9353
 6727TIP3   OH244375   0.701   6.197   0.726 -0.0764 -0.1802  0.5317
 6727TIP3    H144376   0.782   6.236   0.758  0.6059 -0.4403 -0.7955
 6727TIP3    H244377   0.640   6.202   0.800  0.7715  1.1021  1.1618
 6728TIP3   OH244378   6.215   2.675   4.002 -0.1057  0.4753  0.4349
 6728TIP3    H144379   6.282   2.653   3.936  0.0027  0.7975  0.4342
 6728TIP3    H244380   6.141   2.618   3.981  0.5769 -0.6935  1.1330
 6729TIP3   OH244381   3.057   1.309   3.195 -0.2896 -0.0309  0.6649
 6729TIP3    H144382   3.018   1.263   3.120  0.4106  2.0832 -1.1263
 6729TIP3    H244383   2.992   1.375   3.218 -0.6165 -0.8344  2.1910
 6730TIP3   OH244384   1.142   5.146   2.781 -0.3630  0.3259  0.1928
 6730TIP3    H144385   1.104   5.232   2.800 -2.3161 -0.3387 -0.5117
 6730TIP3    H244386   1.084   5.083   2.824  0.7000 -0.6871  0.2036
 6731TIP3   OH244387   1.735   0.233   0.561 -0.4553 -0.0083  0.7034
 6731TIP3    H144388   1.649   0.270   0.541  0.3700  0.9753 -1.2867
 6731TIP3    H244389   1.737   0.150   0.514  0.0422  0.4627 -0.1344
 6732TIP3   OH244390   2.096   1.285   2.168 -0.1124 -0.1102 -0.0971
 6732TIP3    H144391   2.002   1.283   2.182 -0.3663  1.7016 -1.1564
 6732TIP3    H244392   2.131   1.329   2.246 -0.5075  1.7654 -0.9158
 6733TIP3   OH244393   0.967   0.791   2.826  0.4393 -0.3536  0.0008
 6733TIP3    H144394   0.991   0.880   2.799 -2.6667  0.4738 -0.4576
 6733TIP3    H244395   0.887   0.803   2.879  0.6986 -2.7915  1.0766
 6734TIP3   OH244396   1.010   4.362   0.495 -0.2200  0.0824  0.1495
 6734TIP3    H144397   1.021   4.414   0.415  1.0745 -2.2918 -1.3816
 6734TIP3    H244398   0.917   4.337   0.495 -0.7481  1.9280  0.6720
 6735TIP3   OH244399   1.963   2.121   1.175  0.6550  0.2848 -0.0843
 6735TIP3    H144400   1.879   2.153   1.144  0.0216 -1.1909  0.0393
 6735TIP3    H244401   2.027   2.160   1.115 -0.0751  1.5345 -0.0882
 6736TIP3   OH244402   1.887   0.186   1.442  0.6001 -0.0013 -0.2518
 6736TIP3    H144403   1.799   0.206   1.410 -0.4030 -1.7119  1.2178
 6736TIP3    H244404   1.898   0.092   1.425  1.4855 -0.1540  1.0252
 6737TIP3   OH244405   1.261   3.154   1.403 -0.4371  0.1688  0.0670
 6737TIP3    H144406   1.180   3.180   1.359  0.5077  1.0503 -1.2684
 6737TIP3    H244407   1.253   3.189   1.491 -0.3483  2.8251 -0.8905
 6738TIP3   OH244408   4.823   1.136   1.372 -0.4780  0.0687 -0.4983
 6738TIP3    H144409   4.904   1.182   1.395  0.2133 -1.2585 -0.1808
 6738TIP3    H244410   4.770   1.202   1.327  0.0211  1.4769  0.8861
 6739TIP3   OH244411   3.587   6.258   1.992  0.0097  0.4815 -0.7196
 6739TIP3    H144412   3.602   6.283   1.901  1.1145  0.4715 -0.5551
 6739TIP3    H244413   3.659   6.198   2.012 -1.1912 -0.9025 -0.3601
 6740TIP3   OH244414   1.531   6.211   1.029  0.6042  0.1273  0.0992
 6740TIP3    H144415   1.582   6.221   0.949  2.0074 -2.2225  0.6021
 6740TIP3    H244416   1.453   6.163   1.001  1.6392 -1.7349  0.2398
 6741TIP3   OH244417   2.525   3.751   2.121 -0.1530 -0.1262  0.0349
 6741TIP3    H144418   2.550   3.840   2.147  1.0933 -0.5668  0.4443
 6741TIP3    H244419   2.455   3.763   2.057 -0.3695  1.1290  0.4776
 6742TIP3   OH244420   3.889   6.594   3.739  0.1087  0.1711  0.5253
 6742TIP3    H144421   3.848   6.538   3.674 -0.6995  1.1690  0.1431
 6742TIP3    H244422   3.911   6.536   3.812 -1.0276 -0.5748  0.2926
 6743TIP3   OH244423   2.751   1.113   0.925 -0.1610 -0.2377  0.5448
 6743TIP3    H144424   2.728   1.068   1.006 -1.6067  0.8387  0.7746
 6743TIP3    H244425   2.677   1.098   0.866 -0.4998  1.4325  0.4847
 6744TIP3   OH244426   4.748   2.160   3.435 -0.2959 -0.1733  0.4144
 6744TIP3    H144427   4.783   2.158   3.524  2.6906  2.2731 -0.5225
 6744TIP3    H244428   4.674   2.219   3.441  1.2091  1.7767  0.9970
 6745TIP3   OH244429   1.153   3.078   0.616  0.3309 -0.4678  0.3404
 6745TIP3    H144430   1.222   3.053   0.678  1.6084  2.1165  0.0831
 6745TIP3    H244431   1.190   3.152   0.568 -2.8317  1.4425  0.6027
 6746TIP3   OH244432   1.855   4.261   0.679 -0.1057  0.0426  0.2458
 6746TIP3    H144433   1.896   4.212   0.751 -0.2900 -0.3530  0.0799
 6746TIP3    H244434   1.878   4.212   0.600 -0.3516  0.1837  0.0859
 6747TIP3   OH244435   5.560   3.827   1.480 -0.0787 -0.5642 -0.0218
 6747TIP3    H144436   5.636   3.884   1.485  0.4424 -1.2990  0.9595
 6747TIP3    H244437   5.486   3.885   1.463  0.7753  0.0856 -1.7160
 6748TIP3   OH244438   5.329   2.950   2.543 -0.3085 -0.3570  0.2434
 6748TIP3    H144439   5.319   3.021   2.606  0.9164  0.5945 -0.6039
 6748TIP3    H244440   5.239   2.931   2.514 -0.6889  0.5413  0.8073
 6749TIP3   OH244441   3.371   6.376   2.720 -0.3919 -0.4608 -0.6378
 6749TIP3    H144442   3.348   6.333   2.637 -2.2323  0.3950 -0.6200
 6749TIP3    H244443   3.327   6.461   2.715 -2.0921 -1.0782  1.9536
 6750TIP3   OH244444   2.135   5.540   1.379 -0.2356 -0.3156 -0.2577
 6750TIP3    H144445   2.169   5.610   1.324 -0.0008 -2.0982 -2.5027
 6750TIP3    H244446   2.195   5.467   1.366 -0.4033 -0.9711  2.1084
 6751TIP3   OH244447   4.769   5.377   1.835  0.1307  0.3759  0.2329
 6751TIP3    H144448   4.754   5.417   1.750  0.2860  2.3303  1.0577
 6751TIP3    H244449   4.754   5.284   1.821 -0.7225  0.7512 -1.7094
 6752TIP3   OH244450   5.111   1.738   3.538  0.4210 -0.4970  0.8961
 6752TIP3    H144451   5.074   1.760   3.453  0.8730  1.8887  1.2345
 6752TIP3    H244452   5.201   1.773   3.535  0.5844 -0.7550  2.1908
 6753TIP3   OH244453   1.557   0.402   0.853  0.3183 -0.2574 -0.6401
 6753TIP3    H144454   1.479   0.398   0.798 -0.8463 -0.6273  0.9730
 6753TIP3    H244455   1.531   0.456   0.928  2.0953  0.8830 -0.7741
 6754TIP3   OH244456   6.322   3.903   1.478 -0.6643 -0.0327 -0.0430
 6754TIP3    H144457   6.261   3.873   1.545  0.6909 -0.0598  1.2383
 6754TIP3    H244458   6.357   3.985   1.513 -0.0448  0.0314 -0.7942
 6755TIP3   OH244459   2.077   4.313   2.203 -0.8995 -0.0801  0.1527
 6755TIP3    H144460   2.025   4.263   2.266  0.0443  0.0283  1.0494
 6755TIP3    H244461   2.126   4.375   2.256  1.7460 -1.5616 -0.3654
 6756TIP3   OH244462   4.811   4.232   0.579  0.1361  0.4121  0.1421
 6756TIP3    H144463   4.819   4.321   0.546  2.2401 -0.2554 -1.3201
 6756TIP3    H244464   4.890   4.187   0.548 -0.3371 -1.6856  1.7410
 6757TIP3   OH244465   4.097   1.374   1.271  0.4394 -0.3135  0.1062
 6757TIP3    H144466   4.064   1.354   1.359  0.9654 -0.1624  0.3429
 6757TIP3    H244467   4.180   1.420   1.287  1.0354 -1.1591 -0.4784
 6758TIP3   OH244468   2.949   2.041   2.459 -0.4712  0.2762  0.4133
 6758TIP3    H144469   2.855   2.040   2.441 -0.4110  2.7826 -0.4404
 6758TIP3    H244470   2.989   2.075   2.379  1.1522 -0.3326  0.9165
 6759TIP3   OH244471   5.314   5.837   3.173 -0.3021 -0.2185  0.1136
 6759TIP3    H144472   5.370   5.849   3.250  0.1086 -1.7315  0.0963
 6759TIP3    H244473   5.225   5.854   3.205 -0.0895 -0.4095  0.8242
 6760TIP3   OH244474   5.708   2.082   2.820  0.0899  0.2985  0.2313
 6760TIP3    H144475   5.687   2.000   2.864  1.5743 -0.6832 -0.7813
 6760TIP3    H244476   5.759   2.132   2.883  0.0855 -0.0145  0.4812
 6761TIP3   OH244477   4.482   5.240   3.408 -0.0524  0.1554  0.3791
 6761TIP3    H144478   4.476   5.174   3.339 -2.4965  2.3755 -1.7415
 6761TIP3    H244479   4.413   5.217   3.469 -1.1959  0.8798 -0.5863
 6762TIP3   OH244480   2.718   4.547   0.663 -0.4383 -0.2442  0.2306
 6762TIP3    H144481   2.671   4.504   0.735 -1.9351 -0.8066 -1.0214
 6762TIP3    H244482   2.808   4.517   0.672 -0.8607 -1.3259  1.1209
 6763TIP3   OH244483   1.148   5.276   0.477  0.1696 -0.1596 -0.3161
 6763TIP3    H144484   1.197   5.348   0.438  0.5954 -1.7729 -3.0600
 6763TIP3    H244485   1.211   5.233   0.535  0.0125  1.3996  1.0649
 6764TIP3   OH244486   5.923   4.962   3.377 -0.2723 -0.9394 -0.1167
 6764TIP3    H144487   6.013   4.983   3.353  0.3876 -1.5058  1.7010
 6764TIP3    H244488   5.927   4.943   3.471 -2.5463  0.5362  0.3622
 6765TIP3   OH244489   1.663   1.693   1.486  0.1550 -0.3001 -0.0241
 6765TIP3    H144490   1.668   1.659   1.576 -1.3391 -1.5416 -0.3645
 6765TIP3    H244491   1.597   1.762   1.491  0.5982  0.1202 -0.0244
 6766TIP3   OH244492   3.474   2.033   2.234 -0.3977 -0.2850 -0.2991
 6766TIP3    H144493   3.493   2.089   2.309  1.4096 -0.2885 -0.7232
 6766TIP3    H244494   3.439   1.953   2.273  0.5771 -0.3152  0.5470
 6767TIP3   OH244495   0.299   4.687   3.020  0.5875 -0.6663  0.3589
 6767TIP3    H144496   0.305   4.624   2.949 -0.5999 -1.7723  1.1852
 6767TIP3    H244497   0.361   4.756   2.997 -0.7599 -0.2450 -2.4694
 6768TIP3   OH244498   4.356   2.958   2.721 -0.2729 -0.1309 -0.1610
 6768TIP3    H144499   4.278   3.014   2.725  0.4921  0.9676  3.2133
 6768TIP3    H244500   4.323   2.872   2.693 -2.7683  0.2689  1.2273
 6769TIP3   OH244501   3.931   5.949   4.044 -0.6585 -0.6720 -0.2336
 6769TIP3    H144502   3.908   5.928   4.135  1.0954  0.8667  0.6329
 6769TIP3    H244503   3.854   5.994   4.010 -0.7000  0.3387  1.1080
 6770TIP3   OH244504   2.451   5.967   1.819  0.3049  0.0434 -0.6463
 6770TIP3    H144505   2.388   5.918   1.767  0.8830 -0.8815 -0.4928
 6770TIP3    H244506   2.411   5.972   1.906  0.1782 -0.0310 -0.7003
 6771TIP3   OH244507   2.011   5.727   3.232 -0.2344 -0.2576 -0.0900
 6771TIP3    H144508   2.093   5.713   3.279 -0.9261 -3.6465  0.3328
 6771TIP3    H244509   2.004   5.652   3.173 -2.7575  0.2404 -0.5425
 6772TIP3   OH244510   4.671   5.295   1.000 -0.5017 -0.6873  0.4627
 6772TIP3    H144511   4.597   5.348   1.032 -1.2813 -0.6833 -1.2671
 6772TIP3    H244512   4.700   5.340   0.921 -1.4055 -2.9874 -1.2577
 6773TIP3   OH244513   5.260   0.119   3.568 -0.1673  0.2397  0.3515
 6773TIP3    H144514   5.244   0.189   3.504  0.3729 -0.4012 -0.4997
 6773TIP3    H244515   5.173   0.097   3.601 -0.4656  0.5407 -0.2122
 6774TIP3   OH244516   1.571   3.290   1.482  0.4402  0.6997  0.0178
 6774TIP3    H144517   1.492   3.242   1.460  1.8047 -1.6422 -0.1446
 6774TIP3    H244518   1.572   3.291   1.578  0.3993  0.3558  0.0255
 6775TIP3   OH244519   4.167   4.236   3.414  0.3112  0.5209 -0.8495
 6775TIP3    H144520   4.182   4.165   3.477  1.5428  0.7867 -0.8236
 6775TIP3    H244521   4.073   4.230   3.394 -0.0599  0.2736  0.8034
 6776TIP3   OH244522   6.545   5.289   1.281  0.7046 -0.2904 -0.4416
 6776TIP3    H144523   6.473   5.226   1.292  0.9665 -0.6792 -0.9055
 6776TIP3    H244524   6.550   5.302   1.186  1.2846 -0.3154 -0.4181
 6777TIP3   OH244525   0.168   5.052   1.126  0.0467 -0.3514 -0.3083
 6777TIP3    H144526   0.172   5.079   1.034 -0.8336 -1.0046 -0.5558
 6777TIP3    H244527   0.084   5.006   1.133 -0.0856  0.0624  0.9286
 6778TIP3   OH244528   6.314   0.026   3.783  0.2172  0.4831  0.1999
 6778TIP3    H144529   6.358  -0.057   3.802  0.6952  0.6040 -0.3474
 6778TIP3    H244530   6.312   0.030   3.687  1.9039  1.9705  0.1810
 6779TIP3   OH244531   0.072   2.298   3.452  0.1083  0.0327  0.0460
 6779TIP3    H144532   0.085   2.256   3.537 -1.3675 -0.2999  0.1357
 6779TIP3    H244533   0.126   2.247   3.391 -2.6086 -3.0139 -0.1114
 6780TIP3   OH244534   6.368   4.412   3.013  0.0953  0.2846 -0.4653
 6780TIP3    H144535   6.326   4.330   3.040  1.1533 -0.1144  0.0434
 6780TIP3    H244536   6.406   4.447   3.094 -0.8654  1.6114 -0.5571
 6781TIP3   OH244537   3.709   1.233   1.753  0.4647  0.0487 -0.0734
 6781TIP3    H144538   3.733   1.185   1.833  1.5313 -0.0895 -0.4505
 6781TIP3    H244539   3.786   1.224   1.697 -0.1836  0.3544 -1.0211
 6782TIP3   OH244540   6.298   5.536   0.582  0.2715 -0.9827 -0.2214
 6782TIP3    H144541   6.243   5.466   0.616 -1.4242  0.5085  0.2810
 6782TIP3    H244542   6.243   5.614   0.586  2.2811  0.5308 -0.1362
 6783TIP3   OH244543   1.251   2.290   2.164 -0.2838  0.5548 -0.5293
 6783TIP3    H144544   1.335   2.333   2.148 -0.1815  0.6189  0.1423
 6783TIP3    H244545   1.272   2.219   2.225 -0.7939  0.9099  0.0702
 6784TIP3   OH244546   0.884   2.198   1.706 -0.3156  0.0884  0.3201
 6784TIP3    H144547   0.790   2.191   1.686 -0.4617  0.0648  0.9978
 6784TIP3    H244548   0.906   2.114   1.747 -0.2245  0.4565  1.0458
 6785TIP3   OH244549   2.317   0.848   2.582  0.1537 -0.0430  0.2487
 6785TIP3    H144550   2.291   0.923   2.529  1.7611  1.3978  1.3635
 6785TIP3    H244551   2.281   0.866   2.669 -0.7778 -1.3766  0.1639
 6786TIP3   OH244552   0.153   5.195   0.572  0.0835 -0.5584  0.6248
 6786TIP3    H144553   0.076   5.234   0.613  1.1512 -0.7582  2.9720
 6786TIP3    H244554   0.219   5.263   0.575  0.2933 -0.6883 -0.5489
 6787TIP3   OH244555   0.044   0.840   2.154 -1.0110  0.6512 -0.6332
 6787TIP3    H144556   0.100   0.912   2.126 -0.9915  0.1270 -2.0073
 6787TIP3    H244557   0.088   0.804   2.231 -0.4939  1.4661 -0.5404
 6788TIP3   OH244558   2.943   2.828   2.361 -0.4254 -0.0809 -0.6416
 6788TIP3    H144559   2.911   2.757   2.305  0.4453 -0.3906 -0.7686
 6788TIP3    H244560   2.935   2.906   2.307  1.9279 -0.5933 -1.8827
 6789TIP3   OH244561   1.974   2.589   2.223 -0.2413  0.6848 -0.5732
 6789TIP3    H144562   1.947   2.631   2.142 -0.3624  0.2368 -0.7700
 6789TIP3    H244563   1.918   2.627   2.290 -1.5638 -0.3859 -1.0008
 6790TIP3   OH244564   4.310   1.416   4.039  0.0449  0.2524  0.1129
 6790TIP3    H144565   4.226   1.386   4.073 -0.3791  2.3893  1.1203
 6790TIP3    H244566   4.331   1.355   3.968 -1.8461 -0.9111  0.4999
 6791TIP3   OH244567   3.371   3.649   2.048 -0.1896 -0.1020  0.2662
 6791TIP3    H144568   3.306   3.697   1.996  1.5655  1.8001 -0.2889
 6791TIP3    H244569   3.452   3.654   1.996  0.8211 -1.0003  1.6787
 6792TIP3   OH244570   4.662   2.555   2.361  0.0647  0.4507 -0.6181
 6792TIP3    H144571   4.621   2.530   2.444  0.3395  1.6631 -0.0937
 6792TIP3    H244572   4.754   2.529   2.372 -0.0541 -0.0722 -0.8436
 6793TIP3   OH244573   6.529   4.910   1.381 -0.1188  0.1388  0.6984
 6793TIP3    H144574   6.506   5.002   1.382 -0.5279  0.0347  1.2666
 6793TIP3    H244575   6.460   4.868   1.331  0.2193  0.1760  0.1953
 6794TIP3   OH244576   1.945   5.966   1.598  0.7887 -0.3673 -0.1388
 6794TIP3    H144577   1.895   5.919   1.665 -0.3161  2.3880  1.1376
 6794TIP3    H244578   2.016   6.009   1.647 -0.3606  2.1507 -0.4947
 6795TIP3   OH244579   4.713   4.064   3.154 -0.1468  0.3466  0.3747
 6795TIP3    H144580   4.649   4.052   3.224 -0.3183 -0.9527  0.0142
 6795TIP3    H244581   4.660   4.076   3.075  0.0382 -1.0217  0.0295
 6796TIP3   OH244582   0.662   0.514   3.199 -0.1679  0.4177  0.4040
 6796TIP3    H144583   0.718   0.460   3.256  0.0653 -0.3946 -0.5732
 6796TIP3    H244584   0.685   0.486   3.110  0.3059  2.4688 -0.1692
 6797TIP3   OH244585   2.102   3.861   0.839  0.6858  0.0408  0.9159
 6797TIP3    H144586   2.197   3.871   0.840  0.7118 -0.0727  0.1527
 6797TIP3    H244587   2.087   3.779   0.791  0.1527  0.7993 -0.2553
 6798TIP3   OH244588   0.317   1.762   3.357 -0.6470 -0.4831 -0.5281
 6798TIP3    H144589   0.317   1.675   3.398 -0.8422  0.0707  0.6911
 6798TIP3    H244590   0.366   1.817   3.418  2.1968 -0.3314 -2.7165
 6799TIP3   OH244591   2.401   0.502   2.304  0.3218  0.6966 -0.5019
 6799TIP3    H144592   2.366   0.587   2.275  1.7916  2.3141  2.1115
 6799TIP3    H244593   2.445   0.521   2.386  1.6670 -2.4556 -0.3646
 6800TIP3   OH244594   0.090   4.862   1.979  0.1209  0.4281 -0.3714
 6800TIP3    H144595   0.000   4.887   2.000  0.7213  0.7556  2.1634
 6800TIP3    H244596   0.143   4.933   2.017  1.5355 -1.0497  0.5292
 6801TIP3   OH244597   5.824   0.525   0.577  0.6299 -0.5231 -0.0826
 6801TIP3    H144598   5.804   0.601   0.632  0.0126  1.2246 -2.5565
 6801TIP3    H244599   5.739   0.493   0.547  0.9787 -1.0974 -0.4813
 6802TIP3   OH244600   0.260   5.876   2.848  0.1587  0.5005  0.1819
 6802TIP3    H144601   0.324   5.944   2.828 -0.6207  1.3445  0.4367
 6802TIP3    H244602   0.177   5.912   2.817 -0.6067  0.5520  2.1260
 6803TIP3   OH244603   3.262   5.462   3.628  0.1397 -0.5872  0.1664
 6803TIP3    H144604   3.353   5.453   3.602  0.3619  1.3959  0.1069
 6803TIP3    H244605   3.213   5.461   3.546  0.1340 -1.2568  0.1731
 6804TIP3   OH244606   2.167   6.236   3.072 -0.8111 -0.6035  0.0456
 6804TIP3    H144607   2.112   6.175   3.121  0.4494 -2.7189 -1.0272
 6804TIP3    H244608   2.245   6.247   3.125 -1.0463  0.1257  0.2491
 6805TIP3   OH244609   0.753   0.359   2.980  0.0335  0.0769  0.1923
 6805TIP3    H144610   0.809   0.407   2.920 -1.7453  1.0075 -0.8175
 6805TIP3    H244611   0.743   0.273   2.939  0.6618 -0.0812  0.3594
 6806TIP3   OH244612   5.827   5.653   3.282  0.1551 -0.1263  0.2751
 6806TIP3    H144613   5.795   5.581   3.228 -0.3152 -0.1662  0.6000
 6806TIP3    H244614   5.755   5.672   3.342  1.2429 -1.1411  1.9688
 6807TIP3   OH244615   4.224   2.635   3.128  0.2517 -0.1454 -0.4642
 6807TIP3    H144616   4.192   2.546   3.113 -2.0555  0.5645 -0.1758
 6807TIP3    H244617   4.148   2.691   3.111  1.0791  1.6294  1.2731
 6808TIP3   OH244618   4.311   3.655   3.467 -0.0925  0.5044 -0.1944
 6808TIP3    H144619   4.290   3.654   3.374  0.0847 -0.4162 -0.2271
 6808TIP3    H244620   4.400   3.621   3.472 -0.0993  0.5575  0.3137
 6809TIP3   OH244621   0.499   1.930   1.594 -0.5291 -0.3214 -0.0904
 6809TIP3    H144622   0.477   1.866   1.662  0.6109 -0.4276  0.2014
 6809TIP3    H244623   0.448   1.902   1.518  2.8214 -4.0847 -1.2902
 6810TIP3   OH244624   1.587   0.946   0.569 -0.0783 -0.2929 -0.0252
 6810TIP3    H144625   1.523   1.016   0.578 -0.3808 -0.6944  0.9709
 6810TIP3    H244626   1.672   0.990   0.578 -0.2266  0.0926 -0.4453
 6811TIP3   OH244627   0.510   1.088   0.624  0.0092  0.1955  0.7979
 6811TIP3    H144628   0.507   1.180   0.597  1.1219  0.4063  1.3255
 6811TIP3    H244629   0.601   1.073   0.646  0.0240 -1.3304 -0.2108
 6812TIP3   OH244630   0.906   5.543   1.017  0.3272 -0.7051 -0.1990
 6812TIP3    H144631   0.826   5.510   0.975 -0.1825 -0.4034  0.5083
 6812TIP3    H244632   0.969   5.551   0.946 -0.3701 -0.6622 -0.8232
 6813TIP3   OH244633   5.966   2.578   3.908  0.4556  0.2609  0.1795
 6813TIP3    H144634   5.898   2.618   3.962  1.2933  0.3256  1.2258
 6813TIP3    H244635   5.924   2.563   3.823 -1.6510 -2.0369  1.5011
 6814TIP3   OH244636   3.012   0.158   1.589 -0.0624 -0.4235  0.7483
 6814TIP3    H144637   2.979   0.218   1.656  0.1723  1.0632 -0.4113
 6814TIP3    H244638   3.089   0.203   1.553 -1.2426 -0.2370 -1.8011
 6815TIP3   OH244639   6.237   3.757   2.121 -0.4010 -0.3284  0.1619
 6815TIP3    H144640   6.279   3.767   2.036 -0.3551 -0.6069  0.1511
 6815TIP3    H244641   6.307   3.727   2.180 -0.1560  0.9804  0.5739
 6816TIP3   OH244642   6.326   0.571   2.539 -0.2792  0.3325  0.0779
 6816TIP3    H144643   6.246   0.606   2.500 -0.4524  0.8100  0.8302
 6816TIP3    H244644   6.388   0.565   2.467 -0.7630  0.6517 -0.3707
 6817TIP3   OH244645   6.317   0.931   2.207  0.5471  1.0759  0.4182
 6817TIP3    H144646   6.343   0.892   2.124 -2.5119 -0.6321  0.0885
 6817TIP3    H244647   6.387   0.908   2.268  1.2774 -0.5753 -0.9594
 6818TIP3   OH244648   2.672   0.741   0.581  0.1598 -0.5617 -0.4085
 6818TIP3    H144649   2.662   0.796   0.659 -1.2783 -0.8814 -0.3472
 6818TIP3    H244650   2.583   0.720   0.555  0.6211 -0.4949 -2.1402
 6819TIP3   OH244651   2.325   5.039   3.435 -0.2991 -0.0773 -0.2984
 6819TIP3    H144652   2.364   5.127   3.438 -0.1516 -0.1275 -0.6728
 6819TIP3    H244653   2.399   4.980   3.421 -0.5925 -0.0873 -2.0476
 6820TIP3   OH244654   3.008   1.174   1.022 -0.2508  0.0209 -0.8096
 6820TIP3    H144655   2.935   1.152   0.965 -2.2204  0.2360  1.4771
 6820TIP3    H244656   3.025   1.094   1.072 -0.8647  0.7741  0.6552
 6821TIP3   OH244657   1.751   5.010   1.951  0.2337 -0.3491 -0.3614
 6821TIP3    H144658   1.683   5.002   1.884  0.3961 -1.0967 -0.4481
 6821TIP3    H244659   1.704   5.008   2.034  0.1321 -0.6650 -0.4257
 6822TIP3   OH244660   2.342   1.313   3.436 -0.4056  0.0778  0.5742
 6822TIP3    H144661   2.338   1.251   3.508  0.5658  0.2096  0.7621
 6822TIP3    H244662   2.345   1.399   3.479 -3.7934  0.4678  0.3051
 6823TIP3   OH244663   5.622   0.463   0.806  0.5802  0.0505  0.0718
 6823TIP3    H144664   5.645   0.552   0.779 -0.8561 -0.2333 -2.3287
 6823TIP3    H244665   5.706   0.422   0.826  1.4432  1.3604 -0.6917
 6824TIP3   OH244666   3.785   6.374  10.026  0.1220  0.3792 -0.1500
 6824TIP3    H144667   3.823   6.358   9.939  0.2582  0.1011 -0.0394
 6824TIP3    H244668   3.693   6.395  10.008 -0.2533 -1.2144 -0.2634
 6825TIP3   OH244669   4.111   5.137   1.407 -0.1105  0.1963  0.2184
 6825TIP3    H144670   4.028   5.090   1.397 -0.5428  0.9686  0.0261
 6825TIP3    H244671   4.178   5.069   1.406 -0.6085 -0.3210 -1.4247
 6826TIP3   OH244672   0.249   6.578   3.087  0.7396 -0.1168  0.4147
 6826TIP3    H144673   0.168   6.619   3.056 -0.4157 -1.5725  1.3610
 6826TIP3    H244674   0.294   6.549   3.008 -0.0441  0.0155 -0.0825
 6827TIP3   OH244675   2.985   4.256   1.524 -0.3344 -0.0705  0.1997
 6827TIP3    H144676   3.067   4.244   1.571 -1.9020 -2.3454  2.6057
 6827TIP3    H244677   2.928   4.302   1.585 -0.8938  1.6497 -1.4955
 6828TIP3   OH244678   0.804   4.444   1.147 -0.0703 -0.3762 -0.5216
 6828TIP3    H144679   0.894   4.469   1.169 -0.1994  0.6287 -1.0366
 6828TIP3    H244680   0.793   4.474   1.057 -1.0535 -0.1071 -0.3209
 6829TIP3   OH244681   5.538   3.795   3.686 -0.6092 -0.2778  0.3348
 6829TIP3    H144682   5.534   3.803   3.781  0.0652  1.2235  0.2698
 6829TIP3    H244683   5.617   3.743   3.670  0.6372  1.4861  0.5539
 6830TIP3   OH244684   6.183   5.787   2.557 -0.6245 -0.1612 -0.3460
 6830TIP3    H144685   6.208   5.805   2.466 -0.9529 -0.0312 -0.4151
 6830TIP3    H244686   6.097   5.828   2.566  0.1813  1.4269  0.5663
 6831TIP3   OH244687   6.289   2.235   3.694  0.0678 -0.1189 -0.0225
 6831TIP3    H144688   6.270   2.170   3.626 -0.3367  0.6980 -0.7129
 6831TIP3    H244689   6.339   2.302   3.649  1.8332 -0.6544  1.0366
 6832TIP3   OH244690   3.740   5.837   2.790  0.0560  0.5949 -0.1347
 6832TIP3    H144691   3.736   5.820   2.884  0.8978 -1.0877 -0.3439
 6832TIP3    H244692   3.777   5.925   2.782 -0.8099  1.0859  1.0981
 6833TIP3   OH244693   6.437   0.880   3.233  0.0332  0.3856 -0.3036
 6833TIP3    H144694   6.415   0.858   3.143 -1.3594 -0.7131  0.2727
 6833TIP3    H244695   6.383   0.957   3.253 -2.2540 -1.3336  0.5852
 6834TIP3   OH244696   1.682   4.911   1.016  0.3506  0.0404  0.1074
 6834TIP3    H144697   1.759   4.882   0.967 -0.0696 -1.4285  0.2799
 6834TIP3    H244698   1.620   4.838   1.009  0.3531 -0.3261  3.0092
 6835TIP3   OH244699   5.882   1.224   3.252  0.0553  0.2816 -0.4031
 6835TIP3    H144700   5.962   1.193   3.211 -0.0476 -1.8269  0.8488
 6835TIP3    H244701   5.858   1.154   3.313 -2.0686  1.4134  0.1400
 6836TIP3   OH244702   5.481   2.249   2.951  0.4005  0.5131 -0.5755
 6836TIP3    H144703   5.467   2.155   2.958  2.5313  0.1774 -0.2682
 6836TIP3    H244704   5.475   2.268   2.858 -1.0731  0.2893 -0.5543
 6837TIP3   OH244705   3.618   3.873   1.854  0.0567 -0.0895 -0.3757
 6837TIP3    H144706   3.525   3.848   1.857 -0.4184  1.5884  0.0733
 6837TIP3    H244707   3.620   3.960   1.895  1.4885  0.8666 -2.3502
 6838TIP3   OH244708   5.303   4.873   2.906 -0.2604  0.5989  0.2703
 6838TIP3    H144709   5.263   4.885   2.820  1.1041  1.4333 -0.2842
 6838TIP3    H244710   5.396   4.891   2.892  0.0862  0.1995  1.8140
 6839TIP3   OH244711   1.933   4.155   0.457  0.2348  0.9057  0.0804
 6839TIP3    H144712   1.949   4.061   0.451  0.0198  0.9247 -1.0575
 6839TIP3    H244713   2.017   4.196   0.436  0.0389  0.9730 -0.5808
 6840TIP3   OH244714   6.028   3.746   3.258 -0.3255 -0.2899  0.1164
 6840TIP3    H144715   5.947   3.703   3.233 -0.8480  1.3809 -1.2674
 6840TIP3    H244716   6.097   3.690   3.223 -0.9984  0.3423 -2.4368
 6841TIP3   OH244717   3.031   0.702   1.247  0.0574  0.1347  0.6091
 6841TIP3    H144718   3.035   0.756   1.326 -2.1928 -0.8707  1.4804
 6841TIP3    H244719   2.942   0.714   1.214  0.2030 -1.3537 -0.4208
 6842TIP3   OH244720   3.309   4.807   3.206  0.1592 -0.1356 -0.5490
 6842TIP3    H144721   3.396   4.789   3.243 -0.3724 -2.3196 -0.2001
 6842TIP3    H244722   3.248   4.763   3.266 -0.9644 -0.9784 -2.2238
 6843TIP3   OH244723   1.356   1.751   3.370 -0.1077 -0.4882  0.4702
 6843TIP3    H144724   1.305   1.728   3.448 -0.8570  0.4125  0.2782
 6843TIP3    H244725   1.442   1.712   3.384 -1.0851 -2.8278  0.4049
 6844TIP3   OH244726   6.308   6.601   4.616 -0.5149  0.3692  0.1704
 6844TIP3    H144727   6.399   6.572   4.626 -0.8639 -1.3073 -1.0957
 6844TIP3    H244728   6.260   6.553   4.684 -0.3640  2.0804  1.5839
 6845TIP3   OH244729   4.777   0.439   4.093 -0.0203 -0.5212 -0.1841
 6845TIP3    H144730   4.785   0.440   4.188  0.8728 -1.5306 -0.2387
 6845TIP3    H244731   4.687   0.408   4.077  0.4219 -2.1915  0.3367
 6846TIP3   OH244732   5.017   2.388   1.538 -0.2507 -0.1148  0.7134
 6846TIP3    H144733   4.964   2.309   1.554  0.4459 -0.6464  0.4551
 6846TIP3    H244734   5.004   2.442   1.616 -2.5224  0.5552 -0.0497
 6847TIP3   OH244735   4.456   4.569   3.159  0.0780 -0.0805  0.1763
 6847TIP3    H144736   4.407   4.629   3.102  1.2965  1.0752  0.3085
 6847TIP3    H244737   4.392   4.501   3.182 -0.4556 -0.6594 -2.6235
 6848TIP3   OH244738   6.248   5.005   1.582  0.2410  0.3311  0.2264
 6848TIP3    H144739   6.323   5.012   1.642 -0.3782  0.8269  0.9692
 6848TIP3    H244740   6.177   5.048   1.629 -0.5310 -0.2024 -0.4402
 6849TIP3   OH244741   6.318   0.894   0.586 -0.3624 -0.6739 -0.0569
 6849TIP3    H144742   6.252   0.880   0.518  0.1380 -0.5619 -0.5833
 6849TIP3    H244743   6.271   0.886   0.668 -1.2087  0.2814 -0.4280
 6850TIP3   OH244744   6.416   3.265   4.641 -0.0937  0.1330 -0.4621
 6850TIP3    H144745   6.410   3.267   4.545  1.3699  0.1521 -0.5767
 6850TIP3    H244746   6.473   3.190   4.660 -0.4750  0.0528  0.4029
 6851TIP3   OH244747   2.664   6.279   2.911  0.0593  0.0615  0.3591
 6851TIP3    H144748   2.586   6.224   2.906 -0.8619  1.4022 -2.1285
 6851TIP3    H244749   2.693   6.272   3.002 -1.0757 -2.9770  0.6054
 6852TIP3   OH244750   1.584   6.582   3.242 -0.4991  0.2307  0.2378
 6852TIP3    H144751   1.540   6.616   3.320 -0.1932 -0.8583  0.9069
 6852TIP3    H244752   1.534   6.504   3.218 -0.4783  0.4547 -0.5530
 6853TIP3   OH244753   3.609   4.375   3.102 -0.1035 -0.1397 -0.4704
 6853TIP3    H144754   3.643   4.365   3.191  2.0427  0.0590 -1.1928
 6853TIP3    H244755   3.613   4.469   3.085  0.5545 -0.2812 -1.1391
 6854TIP3   OH244756   6.377   3.729   1.882 -0.0580  0.0961 -0.1548
 6854TIP3    H144757   6.373   3.633   1.885 -2.2042  0.0924 -0.9896
 6854TIP3    H244758   6.450   3.749   1.824  0.1829 -1.0413 -0.2570
 6855TIP3   OH244759   3.630   2.555   3.707  0.3487 -0.7404  0.2077
 6855TIP3    H144760   3.633   2.557   3.803 -0.5324 -1.8666  0.2715
 6855TIP3    H244761   3.542   2.584   3.685  0.0513 -1.9359 -0.2009
 6856TIP3   OH244762   5.609   4.996   3.925 -0.2326  0.0020  0.3243
 6856TIP3    H144763   5.584   5.083   3.956  0.4312  0.8533 -1.4521
 6856TIP3    H244764   5.543   4.938   3.964 -0.5167  1.2311  1.7781
 6857TIP3   OH244765   3.735   2.907   3.421 -0.6627  0.2088  0.4217
 6857TIP3    H144766   3.798   2.969   3.457 -1.3897  1.0933  0.2037
 6857TIP3    H244767   3.783   2.861   3.352 -0.1991  0.7336  0.3878
 6858TIP3   OH244768   2.796   5.935   3.218 -0.1150  0.5208 -0.7426
 6858TIP3    H144769   2.808   5.990   3.295 -1.4439  1.7784 -1.3779
 6858TIP3    H244770   2.836   5.852   3.241  1.8287  1.6809  0.3219
 6859TIP3   OH244771   5.757   6.270   1.974  0.1903 -0.3392 -0.1132
 6859TIP3    H144772   5.771   6.226   1.890  1.6360 -1.1817  0.5204
 6859TIP3    H244773   5.667   6.248   1.998 -0.2967  0.0479 -1.4962
 6860TIP3   OH244774   2.332   3.922   0.646 -0.3357  0.3946  0.0319
 6860TIP3    H144775   2.415   3.902   0.691 -0.9364 -1.0856  0.5561
 6860TIP3    H244776   2.325   4.017   0.650  0.3486  0.4135  1.8215
 6861TIP3   OH244777   2.207   5.075   3.179  0.8733 -0.5227 -0.4328
 6861TIP3    H144778   2.217   5.171   3.180 -2.1673 -0.1175 -0.1468
 6861TIP3    H244779   2.223   5.048   3.269 -0.2529 -0.0083 -0.0720
 6862TIP3   OH244780   3.143   5.850   2.210 -0.5782  0.4980 -0.0445
 6862TIP3    H144781   3.111   5.767   2.246  0.5636 -0.6488 -1.5303
 6862TIP3    H244782   3.064   5.892   2.174 -0.8529 -1.1269 -1.4612
 6863TIP3   OH244783   4.698   2.890   0.782  0.3926 -0.0884 -0.3063
 6863TIP3    H144784   4.642   2.838   0.840 -0.4296  1.0883 -0.0166
 6863TIP3    H244785   4.787   2.861   0.803 -0.0544 -1.6953 -0.4866
 6864TIP3   OH244786   5.674   2.005   2.111 -0.3781  0.5037  0.6340
 6864TIP3    H144787   5.754   2.016   2.162  0.3443  0.1877 -0.4023
 6864TIP3    H244788   5.640   1.919   2.136 -0.5690  0.7717  1.3036
 6865TIP3   OH244789   2.754   3.880   2.394 -0.1224 -0.2746 -0.1612
 6865TIP3    H144790   2.667   3.865   2.430  0.1224  0.5140  0.7815
 6865TIP3    H244791   2.767   3.974   2.399  0.3304 -0.2494 -1.3856
 6866TIP3   OH244792   0.772   5.413   1.862 -0.1437  0.1010 -0.1267
 6866TIP3    H144793   0.787   5.381   1.773  0.7159  0.3238 -0.0778
 6866TIP3    H244794   0.698   5.362   1.894 -0.5939  0.1739 -1.0428
 6867TIP3   OH244795   3.420   4.717   0.766 -0.3136  0.5349  0.5972
 6867TIP3    H144796   3.404   4.697   0.859  0.5022  0.1388  0.6645
 6867TIP3    H244797   3.402   4.634   0.721 -1.5861  0.9679  0.2809
 6868TIP3   OH244798   5.515   3.505   3.196 -0.5561  0.1050  0.0254
 6868TIP3    H144799   5.546   3.416   3.182 -1.4646 -0.1009 -0.7704
 6868TIP3    H244800   5.579   3.561   3.152 -1.5078 -0.3322 -1.9992
 6869TIP3   OH244801   5.819   2.742   4.123  0.2340  0.4467  0.2159
 6869TIP3    H144802   5.812   2.774   4.033  1.4237 -0.6224 -0.2802
 6869TIP3    H244803   5.731   2.755   4.160 -0.4366  0.3638 -1.2774
 6870TIP3   OH244804   0.005   2.332   1.446  0.5644 -0.3845 -0.0650
 6870TIP3    H144805   0.048   2.382   1.516 -0.2346 -1.5536  1.3172
 6870TIP3    H244806   0.043   2.245   1.453 -0.0832 -0.7136 -0.5864
 6871TIP3   OH244807   3.657   2.822   3.676  0.4968  0.1123 -0.1075
 6871TIP3    H144808   3.687   2.830   3.585 -1.5621 -1.0655 -0.9579
 6871TIP3    H244809   3.667   2.729   3.697  0.2772  0.2462  0.6175
 6872TIP3   OH244810   6.204   3.598   3.627 -0.4760  0.4734  0.0795
 6872TIP3    H144811   6.247   3.680   3.602  0.4454 -0.1722 -0.5055
 6872TIP3    H244812   6.256   3.567   3.702 -0.5209  0.1726 -0.0158
 6873TIP3   OH244813   5.344   0.834   2.315  0.3909  0.3862 -0.6659
 6873TIP3    H144814   5.430   0.810   2.348  1.0383  0.6744 -2.0823
 6873TIP3    H244815   5.298   0.751   2.304 -0.4902  0.3188  2.4540
 6874TIP3   OH244816   0.961   5.624   1.820 -0.2034 -0.1203  0.1520
 6874TIP3    H144817   0.986   5.611   1.729 -1.8775  1.7083 -0.6545
 6874TIP3    H244818   0.895   5.557   1.837 -1.6987  1.0420 -0.8307
 6875TIP3   OH244819   6.581   3.333   2.060  0.0657 -0.2124 -0.0710
 6875TIP3    H144820   6.570   3.405   2.121 -0.4309 -1.1333  0.9583
 6875TIP3    H244821   6.492   3.310   2.034 -0.0909 -2.6048  2.2197
 6876TIP3   OH244822   4.759   1.198   2.996 -0.2674 -0.3962 -0.1405
 6876TIP3    H144823   4.842   1.154   3.014  0.8394  1.3122 -0.8707
 6876TIP3    H244824   4.694   1.146   3.043  1.1649 -1.9151  0.2595
 6877TIP3   OH244825   5.127   1.094   1.722  0.3355  0.3905 -0.1416
 6877TIP3    H144826   5.116   1.189   1.712  1.3033  0.6058  0.6040
 6877TIP3    H244827   5.132   1.081   1.817 -1.3751 -0.6139 -0.1655
 6878TIP3   OH244828   4.553   4.079   0.610 -0.2462  0.1342  0.4880
 6878TIP3    H144829   4.641   4.117   0.611 -0.6666  1.2132 -0.7908
 6878TIP3    H244830   4.494   4.154   0.616 -1.0963 -0.6069  1.7207
 6879TIP3   OH244831   6.454   1.511   1.458  0.3276  0.0208 -0.1239
 6879TIP3    H144832   6.425   1.427   1.421  0.8958  0.3988 -1.4745
 6879TIP3    H244833   6.419   1.577   1.398  0.3613  0.7258  0.6206
 6880TIP3   OH244834   5.284   2.476   2.720 -0.0295  0.5462  0.0917
 6880TIP3    H144835   5.375   2.447   2.717 -0.5115 -0.9522 -1.1354
 6880TIP3    H244836   5.274   2.530   2.642 -0.5077 -0.3770 -0.5071
 6881TIP3   OH244837   3.768   0.679   1.379 -0.2278  0.4815  0.2962
 6881TIP3    H144838   3.863   0.680   1.394 -0.0114 -0.7178 -0.8152
 6881TIP3    H244839   3.757   0.728   1.297 -0.5174  0.1993  0.1665
 6882TIP3   OH244840   0.970   2.825   2.102  0.1208 -0.4190 -0.2322
 6882TIP3    H144841   0.954   2.731   2.099 -1.4094 -0.2383  0.6821
 6882TIP3    H244842   0.965   2.847   2.195  1.8217  0.3779 -0.3035
 6883TIP3   OH244843   6.347   5.474   3.220  0.0853 -0.1945  0.2009
 6883TIP3    H144844   6.375   5.536   3.152 -0.0436  0.0578  0.3752
 6883TIP3    H244845   6.263   5.508   3.250  0.9676  0.7287  1.7421
 6884TIP3   OH244846   2.426   2.265   1.114  0.2867  0.2755  0.0473
 6884TIP3    H144847   2.394   2.241   1.027  0.4347 -1.4038  0.4228
 6884TIP3    H244848   2.486   2.338   1.098 -0.9164  1.0703 -1.0660
 6885TIP3   OH244849   3.806   2.007   2.053  0.3279  0.1920 -0.2011
 6885TIP3    H144850   3.887   2.034   2.098  0.6194 -0.3171 -0.4071
 6885TIP3    H244851   3.821   2.031   1.962 -0.2146  1.1130 -0.0611
 6886TIP3   OH244852   3.108   4.600   1.200 -0.2959  0.0361  0.6540
 6886TIP3    H144853   3.086   4.692   1.217 -1.3829  0.0574 -0.6639
 6886TIP3    H244854   3.173   4.578   1.267  1.1170  2.1937  0.0984
 6887TIP3   OH244855   3.510   1.772   0.625  0.1607  0.0840 -0.1556
 6887TIP3    H144856   3.591   1.792   0.577  1.3323  1.1467  2.0976
 6887TIP3    H244857   3.467   1.856   0.635 -0.4306 -0.2362  0.0247
 6888TIP3   OH244858   1.744   0.256   1.877  0.0720 -0.5481 -0.1173
 6888TIP3    H144859   1.816   0.250   1.814 -1.5702 -0.2221 -2.1335
 6888TIP3    H244860   1.679   0.313   1.835 -0.5514  0.8870  2.4991
 6889TIP3   OH244861   2.748   4.431   3.001 -0.7122  0.3442  0.2862
 6889TIP3    H144862   2.696   4.392   2.930 -2.3614  1.7997  0.6157
 6889TIP3    H244863   2.779   4.514   2.964  1.1621 -0.3426  0.2211
 6890TIP3   OH244864   2.675   4.981   0.841  0.2125  0.9918  0.0233
 6890TIP3    H144865   2.601   4.958   0.897  1.7722 -0.0841  1.7538
 6890TIP3    H244866   2.651   5.066   0.804 -2.4898  0.0472 -0.6577
 6891TIP3   OH244867   0.901   2.408   3.492 -0.1770 -0.1031  0.4684
 6891TIP3    H144868   0.831   2.400   3.557  0.3425 -0.8037  0.9578
 6891TIP3    H244869   0.978   2.372   3.535  0.0317 -1.2223 -0.7685
 6892TIP3   OH244870   6.529   5.561   2.970 -0.0294  0.1161  0.4903
 6892TIP3    H144871   6.589   5.634   2.988 -0.1734  0.3447  0.0634
 6892TIP3    H244872   6.464   5.598   2.910  0.1944 -0.5082 -0.1433
 6893TIP3   OH244873   2.567   5.287   2.475  0.1178  0.2317  0.0840
 6893TIP3    H144874   2.505   5.326   2.537 -1.2309 -0.0138 -1.0658
 6893TIP3    H244875   2.550   5.330   2.392  0.5783 -0.7733 -0.5615
 6894TIP3   OH244876   6.133   4.114   1.972 -0.1253  0.1044 -0.6558
 6894TIP3    H144877   6.224   4.105   2.002 -0.4295 -1.8119 -0.1862
 6894TIP3    H244878   6.140   4.122   1.877  0.5019 -1.3360 -0.7563
 6895TIP3   OH244879   1.426   0.763   0.476  0.0572  0.2168 -0.0591
 6895TIP3    H144880   1.456   0.760   0.385  1.2438 -0.3890  0.3400
 6895TIP3    H244881   1.494   0.811   0.522 -1.0605  1.4775  0.3393
 6896TIP3   OH244882   0.465   0.964   1.158 -0.5598  0.2420 -0.2599
 6896TIP3    H144883   0.551   0.922   1.158 -0.1100  1.1199 -0.0088
 6896TIP3    H244884   0.482   1.053   1.190 -1.2396  1.0440 -1.9730
 6897TIP3   OH244885   0.009   3.000   0.846 -0.3909 -0.4908  0.0752
 6897TIP3    H144886  -0.051   3.017   0.773 -0.1575  1.2135  0.2335
 6897TIP3    H244887   0.091   2.974   0.803 -1.3321 -3.4239 -0.1261
 6898TIP3   OH244888   5.323   1.488   1.118 -0.5222  0.1499 -0.3875
 6898TIP3    H144889   5.293   1.429   1.049  0.3179 -0.4015 -0.2886
 6898TIP3    H244890   5.414   1.464   1.133 -1.0402 -0.6644  1.8545
 6899TIP3   OH244891   5.817   2.542   3.680  0.0131 -0.0461  0.6254
 6899TIP3    H144892   5.770   2.545   3.597  0.0424 -2.3049  0.4855
 6899TIP3    H244893   5.751   2.562   3.747  0.0929  2.2845  0.1017
 6900TIP3   OH244894   5.054   2.416   3.201 -0.9227 -0.0375  0.1190
 6900TIP3    H144895   4.970   2.453   3.176 -0.4434  0.1298 -1.3047
 6900TIP3    H244896   5.105   2.413   3.120 -0.0840 -1.5470  0.6467
 6901TIP3   OH244897   5.057   4.595   3.122 -0.8361 -0.0160  0.0624
 6901TIP3    H144898   5.052   4.520   3.063  0.7918  0.9953 -1.4613
 6901TIP3    H244899   5.014   4.666   3.074  0.4931  0.8141  0.0497
 6902TIP3   OH244900   1.072   2.629   3.017  0.1524  0.3900  0.5584
 6902TIP3    H144901   1.014   2.608   3.091 -0.4020  0.8974  0.2723
 6902TIP3    H244902   1.118   2.547   2.999 -0.4829 -0.0240  0.7847
 6903TIP3   OH244903   0.076   4.095   3.707 -0.5529 -0.1992  0.4932
 6903TIP3    H144904   0.120   4.177   3.682 -1.9134  0.8217  1.2976
 6903TIP3    H244905   0.133   4.057   3.774  0.5742 -0.4233 -0.5533
 6904TIP3   OH244906   3.594   3.284   1.151  0.1102 -0.2191 -0.0204
 6904TIP3    H144907   3.589   3.379   1.165  2.3549 -0.1664  0.8914
 6904TIP3    H244908   3.512   3.250   1.184  0.0264  1.2491  1.3954
 6905TIP3   OH244909   6.349   0.559   3.302  0.1464  0.4985 -0.3961
 6905TIP3    H144910   6.320   0.520   3.220  1.0738  0.0387 -0.5192
 6905TIP3    H244911   6.276   0.616   3.329 -0.0481  0.8944 -1.6865
 6906TIP3   OH244912   2.940   1.432   3.578 -0.0055 -0.4021  0.6182
 6906TIP3    H144913   2.897   1.438   3.492 -0.1706 -0.3863  0.7011
 6906TIP3    H244914   2.998   1.507   3.582  0.3803 -0.6810  0.3111
 6907TIP3   OH244915   1.785   6.131   2.609  0.0313 -0.5098  0.0409
 6907TIP3    H144916   1.808   6.176   2.528  1.0202 -0.8450  0.1326
 6907TIP3    H244917   1.775   6.202   2.673  1.7259 -0.4081  0.2198
 6908TIP3   OH244918   5.132   4.889   1.740  0.7523 -0.1217 -0.2050
 6908TIP3    H144919   5.082   4.862   1.817  0.2809  1.1888 -0.0188
 6908TIP3    H244920   5.222   4.893   1.770  0.3916  1.9951  0.8226
 6909TIP3   OH244921   0.048   3.868   3.066  0.0353  0.2239 -0.1774
 6909TIP3    H144922   0.135   3.850   3.031 -0.0870  0.6359 -0.6998
 6909TIP3    H244923   0.033   3.797   3.130  0.2656 -0.5283 -0.9381
 6910TIP3   OH244924   5.603   0.533   3.654  0.0609  0.8598 -0.0676
 6910TIP3    H144925   5.533   0.469   3.670 -0.3847  1.5016  0.6171
 6910TIP3    H244926   5.643   0.546   3.740  1.7801 -0.3317 -0.6330
 6911TIP3   OH244927   3.507   4.499   2.388  0.5327 -0.4557 -0.4467
 6911TIP3    H144928   3.485   4.408   2.412  0.3565 -0.5958 -1.1133
 6911TIP3    H244929   3.422   4.542   2.379  0.6257 -0.0364  0.5198
 6912TIP3   OH244930   5.376   5.850   0.871 -0.1408 -0.0378  0.1272
 6912TIP3    H144931   5.295   5.807   0.897 -1.1757  1.2610 -0.8374
 6912TIP3    H244932   5.413   5.792   0.804  0.2301 -1.0954  1.2081
 6913TIP3   OH244933   0.947   2.580   3.293 -0.5441 -0.3469  0.4662
 6913TIP3    H144934   0.871   2.582   3.234 -1.1144  2.5439  1.1749
 6913TIP3    H244935   0.932   2.503   3.348 -2.4535 -0.4138 -0.0679
 6914TIP3   OH244936   3.712   5.035   2.163 -0.5959  0.2085 -0.7304
 6914TIP3    H144937   3.784   4.993   2.209 -1.3591  0.4467  0.7450
 6914TIP3    H244938   3.633   5.009   2.212 -1.2702  1.8302 -0.8667
 6915TIP3   OH244939   2.277   4.946   1.289  0.1761 -0.0207 -0.4401
 6915TIP3    H144940   2.285   5.031   1.246  2.9015  1.0626  1.9013
 6915TIP3    H244941   2.190   4.947   1.329 -0.9754  0.3818 -2.7928
 6916TIP3   OH244942   4.832   4.536   2.337 -0.3690  0.5761  0.4314
 6916TIP3    H144943   4.748   4.560   2.378 -1.0935 -0.0661 -0.6367
 6916TIP3    H244944   4.820   4.555   2.244  0.2416 -0.6692  0.0821
 6917TIP3   OH244945   0.083   5.539   2.002 -0.1363  0.3225 -0.2963
 6917TIP3    H144946   0.082   5.473   1.933  0.9054  0.4778 -0.4760
 6917TIP3    H244947  -0.009   5.560   2.017 -0.3687  0.5072 -1.8447
 6918TIP3   OH244948   5.049   5.309   3.625 -0.7773 -0.5096  0.0797
 6918TIP3    H144949   5.023   5.258   3.702 -0.5658 -1.5885 -0.5288
 6918TIP3    H244950   4.994   5.275   3.555  0.2337 -0.7826 -0.6033
 6919TIP3   OH244951   0.467   0.885   2.017 -0.6837  0.1439 -0.3134
 6919TIP3    H144952   0.464   0.962   2.074 -1.8721  0.2598 -0.5184
 6919TIP3    H244953   0.396   0.899   1.954 -0.0786 -0.4988 -1.1618
 6920TIP3   OH244954   4.222   3.901   0.641  0.2930 -1.1406 -0.5614
 6920TIP3    H144955   4.167   3.862   0.573  0.6303 -0.6448 -1.1249
 6920TIP3    H244956   4.293   3.838   0.653  0.7079 -0.8253 -1.3015
 6921TIP3   OH244957   5.192   0.346   0.619 -0.1289  0.6965  0.3052
 6921TIP3    H144958   5.218   0.254   0.629  0.2744  0.7032 -0.5096
 6921TIP3    H244959   5.218   0.387   0.701  0.7778  0.3095  0.2333
 6922TIP3   OH244960   2.358   1.583   2.582 -0.0546 -0.3073  0.1892
 6922TIP3    H144961   2.315   1.545   2.505  0.9622 -1.4020  0.1317
 6922TIP3    H244962   2.451   1.571   2.565  0.1902 -0.2171  1.4148
 6923TIP3   OH244963   1.925   5.785   1.394 -0.2313  0.0276  0.2262
 6923TIP3    H144964   1.952   5.835   1.471  0.8267 -0.5708  0.2681
 6923TIP3    H244965   2.005   5.741   1.365 -1.4177 -3.1335  1.2786
 6924TIP3   OH244966   6.112   2.432   0.802 -0.1189 -0.2040  0.4662
 6924TIP3    H144967   6.151   2.513   0.838  1.6216 -0.0333 -1.5951
 6924TIP3    H244968   6.100   2.376   0.878  0.9638  1.0994  1.6642
 6925TIP3   OH244969   4.311   2.554   1.859  0.2712  0.4142 -0.6814
 6925TIP3    H144970   4.357   2.591   1.935  1.0484 -0.6319 -0.6250
 6925TIP3    H244971   4.314   2.625   1.794 -0.6667  1.4336  0.3403
 6926TIP3   OH244972   2.158   3.618   1.758  0.2066 -0.4135 -0.4094
 6926TIP3    H144973   2.196   3.675   1.824 -0.9477  0.5541 -0.5680
 6926TIP3    H244974   2.138   3.676   1.684 -0.7693 -1.0544 -0.6646
 6927TIP3   OH244975   1.955   3.965   1.624  0.6784 -0.6554 -0.2319
 6927TIP3    H144976   1.996   4.016   1.693 -0.5102 -0.2967  0.2262
 6927TIP3    H244977   1.863   3.959   1.649  0.2182 -0.5338 -1.7678
 6928TIP3   OH244978   6.244   4.154   3.681  0.2422 -0.1963 -0.5073
 6928TIP3    H144979   6.155   4.118   3.677  0.0104  0.2760  0.2179
 6928TIP3    H244980   6.237   4.226   3.743  1.1815 -0.2826 -0.2949
 6929TIP3   OH244981   3.189   2.792   2.522 -0.6048 -0.1288 -0.0780
 6929TIP3    H144982   3.110   2.827   2.481  0.1690  1.1306 -0.5437
 6929TIP3    H244983   3.174   2.803   2.616 -0.8596  0.3880 -0.1745
 6930TIP3   OH244984   5.210   4.111   1.920 -0.3907  0.5960 -0.6874
 6930TIP3    H144985   5.262   4.185   1.951 -0.8324  0.0585  1.5211
 6930TIP3    H244986   5.273   4.039   1.915 -0.9251 -0.2452  2.7171
 6931TIP3   OH244987   3.498   0.072   1.871 -0.5997 -0.5503  0.4875
 6931TIP3    H144988   3.414   0.102   1.835 -0.5522 -0.2835  0.5973
 6931TIP3    H244989   3.474   0.009   1.939 -0.7093 -0.4571  0.5340
 6932TIP3   OH244990   3.652   5.418   1.748  0.1229  0.0589  0.3378
 6932TIP3    H144991   3.639   5.414   1.843  0.4525  1.7218  0.4891
 6932TIP3    H244992   3.613   5.502   1.722  0.5728 -0.0958 -0.8964
 6933TIP3   OH244993   0.252   0.525   0.928 -0.4935  0.2282  0.1658
 6933TIP3    H144994   0.258   0.609   0.881  3.2720  0.0252 -0.0336
 6933TIP3    H244995   0.298   0.540   1.010  0.4117 -1.6570  0.0548
 6934TIP3   OH244996   4.288   5.535   3.256  0.1715  0.3821  0.0878
 6934TIP3    H144997   4.271   5.623   3.224  0.3523 -0.9052 -4.0977
 6934TIP3    H244998   4.228   5.479   3.207  3.7406 -2.3225 -1.6463
 6935TIP3   OH244999   4.804   4.465   0.411  0.3508 -0.1953  0.5169
 6935TIP3    H145000   4.817   4.554   0.446 -2.1266  0.3081  0.3217
 6935TIP3    H245001   4.781   4.478   0.319 -0.3419 -1.0061  0.5645
 6936TIP3   OH245002   1.943   2.905   2.395  0.1485 -0.9506  0.1416
 6936TIP3    H145003   2.021   2.876   2.441  0.6997 -0.0925 -0.2409
 6936TIP3    H245004   1.927   2.994   2.427 -0.9825 -1.3027  0.6151
 6937TIP3   OH245005   0.302   1.116   2.625 -0.3073 -0.3045  0.0022
 6937TIP3    H145006   0.396   1.114   2.645 -0.4875 -0.0413  0.9083
 6937TIP3    H245007   0.297   1.150   2.536  0.5153 -1.3762 -0.4802
 6938TIP3   OH245008   4.107   5.991   2.447 -0.4560  0.2693 -0.4591
 6938TIP3    H145009   4.045   5.935   2.400 -0.7020  0.1724 -0.0197
 6938TIP3    H245010   4.084   6.080   2.420 -1.4614  0.3189  0.4744
 6939TIP3   OH245011   2.317   4.519   2.653  0.6259  0.3289  0.1876
 6939TIP3    H145012   2.410   4.527   2.675  0.9199  0.6495 -1.0545
 6939TIP3    H245013   2.314   4.448   2.589 -0.0797 -0.1033  0.6864
 6940TIP3   OH245014   3.785   1.328   0.797 -0.5765 -0.3479 -0.5714
 6940TIP3    H145015   3.732   1.408   0.804 -0.0177  0.0523 -0.7659
 6940TIP3    H245016   3.876   1.360   0.794 -0.1303 -1.1130  2.2560
 6941TIP3   OH245017   1.527   1.504   1.357 -0.3824 -0.0595  0.5279
 6941TIP3    H145018   1.592   1.530   1.421  0.8437 -1.3385 -0.1482
 6941TIP3    H245019   1.529   1.574   1.291  0.2335 -0.0402  0.5637
 6942TIP3   OH245020   3.487   4.099   2.683  0.0480  0.2382 -0.1584
 6942TIP3    H145021   3.439   4.025   2.646  2.1768 -0.4179 -1.7954
 6942TIP3    H245022   3.447   4.112   2.769 -1.8860 -1.3221 -0.7310
 6943TIP3   OH245023   5.669   1.068   3.120  0.2802 -0.1825 -0.0344
 6943TIP3    H145024   5.707   1.027   3.042 -1.7581  1.1579 -1.8612
 6943TIP3    H245025   5.734   1.133   3.148  0.5788  0.1047 -1.3370
 6944TIP3   OH245026   4.286   5.094   2.789  0.5155  0.4601 -0.0326
 6944TIP3    H145027   4.219   5.055   2.846  1.3272  0.2499  0.7876
 6944TIP3    H245028   4.329   5.020   2.747  1.0183  0.5417  0.3372
 6945TIP3   OH245029   5.539   4.131   4.592  0.0349  0.3037 -0.1084
 6945TIP3    H145030   5.485   4.051   4.588 -1.6670  1.4401 -2.9493
 6945TIP3    H245031   5.486   4.192   4.643  0.4175  0.2752  0.3323
 6946TIP3   OH245032   0.772   1.925   1.523 -0.2148 -0.2198 -0.1272
 6946TIP3    H145033   0.808   1.947   1.609  0.3659 -0.0280 -0.4145
 6946TIP3    H245034   0.680   1.903   1.540 -0.0242 -0.4879  0.5835
 6947TIP3   OH245035   3.741   6.433   3.603 -0.4137  0.2806  0.0557
 6947TIP3    H145036   3.646   6.440   3.588  0.1142  3.8973 -2.6905
 6947TIP3    H245037   3.777   6.410   3.518  1.2957 -1.1589  1.0865
 6948TIP3   OH245038   6.232   0.406   3.056  0.1772 -0.3441 -0.1985
 6948TIP3    H145039   6.222   0.469   2.985  0.1195  0.7307  0.7423
 6948TIP3    H245040   6.255   0.324   3.012  1.7912  0.6660 -1.3432
 6949TIP3   OH245041   0.126   4.613   4.311  0.3156  0.6317  0.2066
 6949TIP3    H145042   0.054   4.631   4.251  0.3050  0.6575  0.2272
 6949TIP3    H245043   0.084   4.574   4.388  0.2722  1.0748  0.4096
 6950TIP3   OH245044   2.555   3.785   2.566 -0.0811 -0.3461  0.0792
 6950TIP3    H145045   2.482   3.815   2.511 -1.0815 -1.3836  0.7970
 6950TIP3    H245046   2.521   3.788   2.655  1.7014  1.8824  0.8071
 6951TIP3   OH245047   2.114   6.386   1.577 -0.1713  0.1298 -0.6126
 6951TIP3    H145048   2.033   6.336   1.587  0.7658 -1.6869 -1.5140
 6951TIP3    H245049   2.122   6.399   1.482  0.9084 -0.2938 -0.5917
 6952TIP3   OH245050   2.689   5.827   2.419  0.3897 -0.6088 -0.1492
 6952TIP3    H145051   2.623   5.770   2.459  0.6150 -1.1741 -0.5745
 6952TIP3    H245052   2.643   5.867   2.345  0.3345 -0.5065 -0.0598
 6953TIP3   OH245053   6.157   4.677   2.113 -0.3872 -0.7560 -0.6387
 6953TIP3    H145054   6.121   4.677   2.024 -0.2991 -1.2169 -0.6784
 6953TIP3    H245055   6.199   4.591   2.121  0.9496 -0.1366 -0.7000
 6954TIP3   OH245056   5.935   0.673   3.070 -0.9591 -0.2103  0.1181
 6954TIP3    H145057   5.930   0.736   3.141 -1.0098 -2.1445  1.9366
 6954TIP3    H245058   5.863   0.612   3.086 -1.0138 -0.6729 -1.6486
 6955TIP3   OH245059   0.686   2.511   4.005  0.3822 -0.4547  0.4643
 6955TIP3    H145060   0.632   2.436   3.981  1.2068 -0.7553 -0.5388
 6955TIP3    H245061   0.770   2.494   3.963  1.1957  0.1105  1.8004
 6956TIP3   OH245062   5.143   3.086   1.954  0.0696  0.0928  0.3018
 6956TIP3    H145063   5.211   3.149   1.976  0.1789 -0.0150  0.2737
 6956TIP3    H245064   5.147   3.078   1.859  1.0930 -1.1109  0.4215
 6957TIP3   OH245065   2.794   3.417   3.413  0.2033  0.2113  0.6926
 6957TIP3    H145066   2.750   3.351   3.466 -0.9293  0.3213 -0.0890
 6957TIP3    H245067   2.867   3.447   3.468 -0.2437 -0.5130  1.7044
 6958TIP3   OH245068   6.218   2.027   3.504  0.3707 -0.4161  0.0593
 6958TIP3    H145069   6.134   2.064   3.478  1.7470  0.9226 -2.9292
 6958TIP3    H245070   6.247   1.978   3.428  2.5292 -0.4477  0.8402
 6959TIP3   OH245071   4.682   4.869   1.881  0.0328  0.0297 -0.2595
 6959TIP3    H145072   4.757   4.860   1.940 -0.8736  2.1451  1.3231
 6959TIP3    H245073   4.667   4.780   1.849  0.4744 -1.3434  2.8906
 6960TIP3   OH245074   2.138   2.451   2.577  0.1522  0.0348  0.2060
 6960TIP3    H145075   2.056   2.401   2.570  0.8763 -0.9759 -1.8549
 6960TIP3    H245076   2.202   2.398   2.531  1.5984  1.6215  0.3038
 6961TIP3   OH245077   2.687   3.350   2.458 -0.1669 -0.0392  0.0679
 6961TIP3    H145078   2.671   3.282   2.394  0.9847 -0.3904  0.1289
 6961TIP3    H245079   2.698   3.430   2.407  2.0491 -0.5274 -0.3570
 6962TIP3   OH245080   3.091   1.811   1.548 -0.1102  0.2406 -0.5712
 6962TIP3    H145081   3.089   1.790   1.641  1.1676  1.8264 -0.1393
 6962TIP3    H245082   3.166   1.763   1.513 -1.4394 -1.5335 -1.1603
 6963TIP3   OH245083   3.936   2.474   3.645 -0.1836  0.3989  0.0942
 6963TIP3    H145084   3.884   2.403   3.681 -0.6293  0.9483  0.5456
 6963TIP3    H245085   3.922   2.547   3.705  2.9328 -0.0695  1.5911
 6964TIP3   OH245086   3.224   4.555   2.683  0.4925  0.2024  0.4727
 6964TIP3    H145087   3.150   4.616   2.680  1.4081  1.3546  0.5893
 6964TIP3    H245088   3.294   4.599   2.634  1.0700 -0.9247  0.2352
 6965TIP3   OH245089   2.688   3.349   1.321 -0.0816  0.2074 -0.2044
 6965TIP3    H145090   2.743   3.295   1.378 -0.8105 -1.5417 -1.0854
 6965TIP3    H245091   2.599   3.334   1.353 -0.5377 -1.0029 -1.8933
 6966TIP3   OH245092   4.768   1.143   1.739  0.0058 -0.1111 -0.9145
 6966TIP3    H145093   4.806   1.184   1.817 -0.4651  0.0333 -0.7567
 6966TIP3    H245094   4.843   1.107   1.692  0.0740 -3.2712  1.3019
 6967TIP3   OH245095   3.110   0.704   0.666  0.5141  0.1998  0.2213
 6967TIP3    H145096   3.173   0.660   0.610  0.2104  1.2242 -0.9736
 6967TIP3    H245097   3.047   0.744   0.606 -1.1507 -0.5734  1.3633
 6968TIP3   OH245098   2.455   4.883   2.450 -0.2477  0.2149 -0.8141
 6968TIP3    H145099   2.368   4.922   2.452 -0.3562  0.0316 -1.7329
 6968TIP3    H245100   2.439   4.791   2.430  0.0694 -0.1399  0.4495
 6969TIP3   OH245101   6.112   5.952   4.608 -0.0503  0.2771 -0.0883
 6969TIP3    H145102   6.159   6.035   4.611 -0.7251  0.6448  0.5443
 6969TIP3    H245103   6.150   5.905   4.533  1.3182  0.5544  0.4090
 6970TIP3   OH245104   5.025   2.550   0.916  0.0279 -0.2319  0.5411
 6970TIP3    H145105   5.036   2.544   0.821 -0.5986  0.6211  0.4026
 6970TIP3    H245106   5.101   2.503   0.952  0.0372 -0.9398 -0.3723
 6971TIP3   OH245107   5.490   4.208   1.226 -0.4127  0.1855 -0.2906
 6971TIP3    H145108   5.571   4.158   1.241  0.1723  1.1874 -0.0222
 6971TIP3    H245109   5.436   4.149   1.173  1.4778  0.3890 -2.6484
 6972TIP3   OH245110   6.311   4.994   4.090 -0.5122  0.5318 -0.0136
 6972TIP3    H145111   6.323   4.940   4.168  1.3804 -0.4516 -0.9168
 6972TIP3    H245112   6.387   5.053   4.089 -0.2991  0.2707 -1.2917
 6973TIP3   OH245113   3.330   1.847   1.173  0.0637 -0.2097  0.0792
 6973TIP3    H145114   3.394   1.808   1.231 -1.8006 -1.9090  1.1226
 6973TIP3    H245115   3.334   1.794   1.093 -0.2598 -0.5440  0.2804
 6974TIP3   OH245116   1.094   5.506   3.403  0.1697 -0.9057  0.0618
 6974TIP3    H145117   1.050   5.560   3.337  0.9183  0.3862  0.5750
 6974TIP3    H245118   1.023   5.457   3.445 -0.8826  1.2830  1.0265
 6975TIP3   OH245119   0.926   6.087   2.989 -0.2968  0.3794  0.5764
 6975TIP3    H145120   0.883   6.169   3.013 -1.4472  0.2604 -0.9178
 6975TIP3    H245121   0.990   6.112   2.923 -0.7303  0.0629  0.0327
 6976TIP3   OH245122   0.910   6.208   1.078 -0.1143  0.6650  0.6286
 6976TIP3    H145123   0.843   6.233   1.141 -0.9294  0.1125  0.0096
 6976TIP3    H245124   0.976   6.163   1.130 -1.5094 -1.1760  0.9307
 6977TIP3   OH245125   1.784   6.270   3.121  0.2341 -0.7446 -0.0322
 6977TIP3    H145126   1.690   6.287   3.117  0.1262 -1.6177 -1.8943
 6977TIP3    H245127   1.802   6.214   3.046  2.4770  0.4473 -0.4677
 6978TIP3   OH245128   6.062   0.008   1.143  0.5700 -1.1046 -0.3531
 6978TIP3    H145129   6.126   0.071   1.108  0.2658 -0.6396 -0.0722
 6978TIP3    H245130   6.077  -0.072   1.092  1.3315 -0.9802 -0.3390
 6979TIP3   OH245131   5.159   6.064   2.037  0.1092 -0.2663 -0.0784
 6979TIP3    H145132   5.102   5.995   2.002  0.1195  0.2799 -1.2117
 6979TIP3    H245133   5.246   6.024   2.039 -0.0958 -0.7057  0.5153
 6980TIP3   OH245134   4.686   1.847   3.749 -0.0090  0.1542  1.1492
 6980TIP3    H145135   4.765   1.851   3.803 -0.3622  1.2524  1.6159
 6980TIP3    H245136   4.704   1.905   3.675 -0.2605  0.1684  1.0981
 6981TIP3   OH245137   2.999   5.244   1.498  0.1495  0.2578  0.0714
 6981TIP3    H145138   3.076   5.187   1.505  1.1994  1.6214 -0.0900
 6981TIP3    H245139   2.926   5.183   1.490  1.0007 -1.1277  1.9242
 6982TIP3   OH245140   4.874   3.132   1.338 -0.1236  0.2394  0.8010
 6982TIP3    H145141   4.877   3.064   1.405  1.0113 -0.9323 -0.3924
 6982TIP3    H245142   4.898   3.087   1.256 -0.1789  1.8912 -0.1737
 6983TIP3   OH245143   5.341   2.866   1.567 -0.2697 -0.5248 -0.8718
 6983TIP3    H145144   5.284   2.794   1.540 -2.9023  0.5974  1.1760
 6983TIP3    H245145   5.408   2.824   1.621 -0.0519 -1.7151 -2.0191
 6984TIP3   OH245146   5.199   3.780   1.657  0.0865 -0.0421 -1.0013
 6984TIP3    H145147   5.116   3.826   1.656  0.4078  0.5668 -2.4232
 6984TIP3    H245148   5.178   3.693   1.692 -0.8564  0.5778  0.0137
 6985TIP3   OH245149   4.883   3.340   0.893  0.0646  0.1699 -0.2686
 6985TIP3    H145150   4.800   3.389   0.886 -0.2061  0.3015  2.5365
 6985TIP3    H245151   4.951   3.405   0.874 -0.3981  0.9784  0.7177
 6986TIP3   OH245152   5.371   2.958   0.993  0.2194  0.1851  0.2204
 6986TIP3    H145153   5.421   2.928   0.917  1.0189 -0.7464  1.0771
 6986TIP3    H245154   5.298   2.897   1.000  0.0959  0.3239  0.1613
 6987TIP3   OH245155   4.349   0.053   2.142 -1.0227  0.7462 -0.7791
 6987TIP3    H145156   4.277   0.048   2.205  0.0319  1.2069  0.5159
 6987TIP3    H245157   4.325   0.124   2.083 -1.1865  1.5683  0.2484
 6988TIP3   OH245158   5.936   5.645   2.288  0.4566  0.2901  0.3238
 6988TIP3    H145159   5.964   5.651   2.196 -1.0026 -0.0616 -0.1644
 6988TIP3    H245160   5.951   5.733   2.323  0.6627  0.5326 -0.3544
 6989TIP3   OH245161   1.651   0.508   2.497 -0.7797  0.0302 -0.2638
 6989TIP3    H145162   1.681   0.428   2.540 -0.3592  0.1381 -0.3561
 6989TIP3    H245163   1.585   0.544   2.557  0.0337  0.3506  0.4632
 6990TIP3   OH245164   0.794   4.235   2.169  0.2657 -0.1858  0.4002
 6990TIP3    H145165   0.816   4.328   2.175 -0.6671  0.1615 -1.0635
 6990TIP3    H245166   0.879   4.191   2.161  0.6469  0.7542 -1.1194
 6991TIP3   OH245167   3.529   6.604   3.015  0.8696 -0.4348 -0.2752
 6991TIP3    H145168   3.463   6.534   3.018  0.6213 -0.3860 -2.3777
 6991TIP3    H245169   3.479   6.682   2.990  1.1734  0.5027  1.8693
 6992TIP3   OH245170   6.286   3.237   3.951  0.3376 -0.1142 -0.1831
 6992TIP3    H145171   6.338   3.157   3.955 -0.4170 -0.6139 -0.1678
 6992TIP3    H245172   6.205   3.214   3.997  0.1680  0.6999 -0.0685
 6993TIP3   OH245173   0.998   0.329   3.148 -0.1566 -0.2124 -0.6559
 6993TIP3    H145174   0.912   0.322   3.107 -0.2087  1.3200 -0.8460
 6993TIP3    H245175   1.057   0.352   3.077 -0.1205  1.7197 -0.0431
 6994TIP3   OH245176   6.034   5.156   2.651  0.0833 -0.3886  0.4631
 6994TIP3    H145177   6.073   5.234   2.689  0.7529 -0.9412  0.9429
 6994TIP3    H245178   5.990   5.186   2.572  0.5743  0.4213  0.4938
 6995TIP3   OH245179   0.720   3.241   4.221 -0.7364 -0.2739 -0.6520
 6995TIP3    H145180   0.762   3.324   4.241 -0.8170 -0.3579 -0.1256
 6995TIP3    H245181   0.759   3.213   4.138  1.0632 -0.8942  0.3513
 6996TIP3   OH245182   3.182   0.339   0.577  0.6204 -0.3631  0.5196
 6996TIP3    H145183   3.202   0.419   0.528 -0.6972 -1.1611 -1.4160
 6996TIP3    H245184   3.109   0.363   0.634  1.6420  0.3510  1.5862
 6997TIP3   OH245185   0.539   3.888   2.437  0.2943  0.5084  0.4471
 6997TIP3    H145186   0.500   3.912   2.353 -1.8556  0.3655  1.3272
 6997TIP3    H245187   0.485   3.815   2.468 -0.2613  1.8297  2.8402
 6998TIP3   OH245188   4.881   0.766   3.575 -0.3159  0.2694  0.3961
 6998TIP3    H145189   4.930   0.684   3.575  0.5838  0.7375 -1.4794
 6998TIP3    H245190   4.899   0.805   3.660  0.7158 -0.6596  0.6303
 6999TIP3   OH245191   3.044   1.922   1.238 -0.3380 -0.4581  0.0044
 6999TIP3    H145192   3.011   1.885   1.156  1.1061  1.3765 -1.4955
 6999TIP3    H245193   3.137   1.899   1.239 -0.6318 -1.8215  1.9833
 7000TIP3   OH245194   2.385   4.996   0.480  0.1047  0.1951  0.7915
 7000TIP3    H145195   2.341   5.011   0.564 -0.8446  0.7240  0.2198
 7000TIP3    H245196   2.450   4.928   0.499 -1.1597 -0.8388  1.6118
 7001TIP3   OH245197   1.309   4.360   0.718  0.6220 -0.1325 -0.2245
 7001TIP3    H145198   1.303   4.265   0.719  0.3181 -0.1324  1.7947
 7001TIP3    H245199   1.312   4.383   0.625 -0.2766 -2.0406 -0.7718
 7002TIP3   OH245200   4.309   0.490   2.462 -0.2860 -0.0136 -0.5557
 7002TIP3    H145201   4.245   0.420   2.452  1.1009 -1.4250  0.0272
 7002TIP3    H245202   4.376   0.472   2.395  0.5930  0.1467  0.2519
 7003TIP3   OH245203   2.843   0.271   2.001 -0.1813 -0.4246 -0.1508
 7003TIP3    H145204   2.919   0.212   2.004 -0.1496 -0.3636  0.1887
 7003TIP3    H245205   2.852   0.328   2.077  0.7047  1.1707 -1.3883
 7004TIP3   OH245206   6.260   4.566   0.630 -0.6239  0.7553 -0.6251
 7004TIP3    H145207   6.303   4.640   0.673 -0.4300  0.1766  0.2005
 7004TIP3    H245208   6.306   4.557   0.546  0.2370  0.7513 -0.1633
 7005TIP3   OH245209   3.139   6.564   2.741  0.0819  0.4012  0.0685
 7005TIP3    H145210   3.082   6.606   2.677 -0.0947  1.4879  0.9054
 7005TIP3    H245211   3.135   6.621   2.818  1.4965 -0.0552  0.5078
 7006TIP3   OH245212   5.358   4.816   0.665  0.0052  1.0096 -0.5706
 7006TIP3    H145213   5.292   4.882   0.645  0.1167  1.7982  1.4759
 7006TIP3    H245214   5.307   4.740   0.695 -0.0518  0.6661 -1.4928
 7007TIP3   OH245215   2.038   4.332   1.734  0.0612 -0.2491 -0.1346
 7007TIP3    H145216   1.967   4.379   1.690  0.4420  0.5248  0.0498
 7007TIP3    H245217   2.095   4.304   1.663  0.3692  0.4877 -0.1883
 7008TIP3   OH245218   6.117   6.417   1.343  0.2250  0.0891  0.4592
 7008TIP3    H145219   6.198   6.450   1.381  1.4774 -1.5810 -0.5721
 7008TIP3    H245220   6.099   6.476   1.270  1.7510 -0.6788 -0.6134
 7009TIP3   OH245221   4.581   2.947   3.319  0.4572 -0.3193  0.5251
 7009TIP3    H145222   4.594   2.853   3.331 -2.0976 -1.0731 -1.5916
 7009TIP3    H245223   4.525   2.954   3.242 -0.9195  2.8824  1.6268
 7010TIP3   OH245224   4.412   3.151   1.341 -0.0570  0.3397 -0.3897
 7010TIP3    H145225   4.348   3.220   1.320 -1.0056 -0.5993 -0.7033
 7010TIP3    H245226   4.490   3.175   1.292 -0.0206  1.7298  0.3059
 7011TIP3   OH245227   4.890   1.812   0.966 -0.4118 -0.2135  0.3118
 7011TIP3    H145228   4.816   1.833   0.909 -0.5694  0.1254  0.6386
 7011TIP3    H245229   4.887   1.717   0.975 -0.1935 -0.3083 -0.5082
 7012TIP3   OH245230   0.357   1.545   3.514 -0.2392  0.0326  0.6059
 7012TIP3    H145231   0.355   1.450   3.505  0.7821 -0.1131  1.6876
 7012TIP3    H245232   0.422   1.561   3.583 -0.0204  1.5359  0.0829
 7013TIP3   OH245233   4.664   2.003   2.433  0.6564 -0.1145 -0.2136
 7013TIP3    H145234   4.687   1.914   2.405  1.9188  0.1598 -0.1235
 7013TIP3    H245235   4.741   2.056   2.410  0.3137  0.7756  0.6102
 7014TIP3   OH245236   3.669   5.467   3.164 -0.3687  0.2461 -0.3972
 7014TIP3    H145237   3.667   5.404   3.092  1.5149  0.8847 -1.0594
 7014TIP3    H245238   3.729   5.536   3.135  0.6948  0.3857  1.8883
 7015TIP3   OH245239   4.491   2.642   0.607 -0.1988  0.3656 -0.6707
 7015TIP3    H145240   4.571   2.637   0.659 -1.5700 -2.0035  1.4291
 7015TIP3    H245241   4.504   2.578   0.537 -0.2115  0.0648 -0.3986
 7016TIP3   OH245242   1.729   2.974   2.840 -0.1187 -0.0010 -0.1657
 7016TIP3    H145243   1.724   3.015   2.754 -1.2865  1.2058  0.4420
 7016TIP3    H245244   1.646   2.926   2.848  0.4820 -1.0850 -0.1571
 7017TIP3   OH245245   3.513   1.753   1.361  0.4492  0.0717 -0.0401
 7017TIP3    H145246   3.555   1.777   1.444  1.1283 -1.0387 -0.0469
 7017TIP3    H245247   3.443   1.692   1.387  2.5661 -2.7532 -0.4390
 7018TIP3   OH245248   0.924   1.694   0.489 -0.1812  0.5506  0.1721
 7018TIP3    H145249   0.935   1.755   0.562  1.5996  0.1121  0.3223
 7018TIP3    H245250   0.999   1.711   0.432 -1.4309  0.7441 -1.4906
 7019TIP3   OH245251   5.769   2.597   2.293 -0.2229 -0.2909  0.0549
 7019TIP3    H145252   5.827   2.651   2.239  1.7917 -1.4908  0.8954
 7019TIP3    H245253   5.776   2.510   2.254 -0.8036 -0.6233  0.6963
 7020TIP3   OH245254   4.136   6.544   0.674 -0.3154 -0.0140 -0.2069
 7020TIP3    H145255   4.225   6.538   0.710 -0.8853  0.7108  1.4564
 7020TIP3    H245256   4.112   6.453   0.655  1.3034 -0.0925 -2.1392
 7021TIP3   OH245257   6.313   6.263   2.712  0.0664 -0.5800  0.1621
 7021TIP3    H145258   6.384   6.313   2.751 -0.2477  1.0206 -1.2493
 7021TIP3    H245259   6.356   6.197   2.658  0.4820  0.0786 -0.3111
 7022TIP3   OH245260   0.266   0.042   1.280 -0.0132  0.7076  0.2959
 7022TIP3    H145261   0.353   0.082   1.283  0.9349 -1.2510  2.1404
 7022TIP3    H245262   0.276  -0.035   1.224  0.2345 -0.9940  2.5317
 7023TIP3   OH245263   5.693   3.194   1.108 -0.2139  0.0211  0.3201
 7023TIP3    H145264   5.668   3.115   1.157 -0.0196 -0.9360 -1.0728
 7023TIP3    H245265   5.650   3.184   1.023  1.2632  0.5366 -0.5200
 7024TIP3   OH245266   3.002   1.113   2.999  0.4167  0.2406 -0.2828
 7024TIP3    H145267   3.081   1.093   2.949  0.0940 -0.6057 -0.4710
 7024TIP3    H245268   2.935   1.132   2.933  0.4215  0.8193 -0.1273
 7025TIP3   OH245269   3.059   2.301   0.873 -0.6336 -0.5429 -0.2909
 7025TIP3    H145270   3.080   2.208   0.866  1.1955 -0.4803  2.5100
 7025TIP3    H245271   3.121   2.344   0.814 -1.7625 -1.0636 -1.9154
 7026TIP3   OH245272   2.088   2.258   3.535 -0.2106  0.6073  0.6405
 7026TIP3    H145273   2.067   2.204   3.611 -0.8786  1.3363  0.9913
 7026TIP3    H245274   2.010   2.313   3.523  0.1820  1.0041 -0.1206
 7027TIP3   OH245275   0.566   1.708   2.323  0.4454 -0.1688 -0.1035
 7027TIP3    H145276   0.558   1.775   2.255  1.0805  0.3254  0.2870
 7027TIP3    H245277   0.489   1.653   2.312  0.1949  0.2994 -0.7920
 7028TIP3   OH245278   5.124   1.644   4.566 -0.2263  0.2874 -0.4557
 7028TIP3    H145279   5.163   1.562   4.595  2.5848  1.2102 -1.2433
 7028TIP3    H245280   5.065   1.619   4.494 -1.5969 -1.2388  1.1223
 7029TIP3   OH245281   4.976   1.334   1.062 -0.1766  0.2409  0.0174
 7029TIP3    H145282   4.917   1.409   1.048  2.6986  2.5955 -0.4496
 7029TIP3    H245283   5.025   1.357   1.141  0.0830 -1.6749  0.4523
 7030TIP3   OH245284   6.178   6.439   0.988  0.2733  0.3561 -0.7152
 7030TIP3    H145285   6.108   6.376   0.971  0.2659  0.4769 -1.1344
 7030TIP3    H245286   6.186   6.489   0.907  1.4640 -0.2652 -1.0031
 7031TIP3   OH245287   5.668   4.108   1.024  0.0327 -0.7823 -0.6113
 7031TIP3    H145288   5.608   4.106   0.950 -2.4730  0.6454  1.2275
 7031TIP3    H245289   5.661   4.022   1.064 -0.5463 -0.7298 -0.6022
 7032TIP3   OH245290   2.072   5.729   0.989  0.0038  0.0454 -0.0066
 7032TIP3    H145291   2.002   5.703   1.049 -1.2477 -0.4429 -1.5843
 7032TIP3    H245292   2.101   5.648   0.949 -0.0010  0.4511 -0.8724
 7033TIP3   OH245293   3.721   2.919   1.083  0.6636 -0.1193  0.6292
 7033TIP3    H145294   3.626   2.921   1.092  0.4433 -0.1838 -1.2529
 7033TIP3    H245295   3.750   3.004   1.116  0.0677 -0.4395  2.0462
 7034TIP3   OH245296   4.830   3.842   2.775  0.3672 -0.0713  0.5392
 7034TIP3    H145297   4.783   3.805   2.850 -1.2872 -0.3539 -0.5933
 7034TIP3    H245298   4.797   3.793   2.700  0.0000  1.9690 -0.7082
 7035TIP3   OH245299   2.735   5.957   1.214 -0.2966 -0.2721 -0.6822
 7035TIP3    H145300   2.654   6.003   1.190 -0.5424 -0.4707 -0.2518
 7035TIP3    H245301   2.720   5.928   1.303  0.0395 -0.7913 -0.7914
 7036TIP3   OH245302   6.488   3.550   3.544 -0.4884  0.2309  0.3327
 7036TIP3    H145303   6.428   3.500   3.600 -1.0940  0.8161  0.2268
 7036TIP3    H245304   6.575   3.519   3.567 -0.7245  0.5185  1.6517
 7037TIP3   OH245305   4.624   2.132   1.699 -0.4781  0.1506 -0.6300
 7037TIP3    H145306   4.714   2.132   1.666 -0.1215 -0.2645  0.3236
 7037TIP3    H245307   4.605   2.040   1.719 -1.3079  0.1554 -1.3233
 7038TIP3   OH245308   2.081   3.959  10.199 -0.6886  0.6963 -0.2427
 7038TIP3    H145309   2.139   4.025  10.161 -1.0883  0.8804 -0.5431
 7038TIP3    H245310   2.138   3.903  10.251 -0.3191  1.1557 -0.1589
 7039TIP3   OH245311   0.016   2.931   2.997 -0.3745 -0.4512 -0.7175
 7039TIP3    H145312  -0.036   2.940   2.917  0.4312 -0.0374 -1.2068
 7039TIP3    H245313   0.031   3.022   3.026  0.7439 -0.5281 -1.0269
 7040TIP3   OH245314   2.959   0.887   2.084 -0.4396 -0.5152 -0.0804
 7040TIP3    H145315   2.906   0.812   2.112 -0.6873 -0.3158  0.0000
 7040TIP3    H245316   2.954   0.885   1.988  1.7248 -2.1335 -0.2277
 7041TIP3   OH245317   4.900   0.880   1.968 -0.0206  0.0073  0.0630
 7041TIP3    H145318   4.825   0.822   1.980  0.8354 -0.7941  1.8557
 7041TIP3    H245319   4.882   0.956   2.022 -0.2979  0.6110 -0.8516
 7042TIP3   OH245320   1.956   0.519   4.077  0.2982  0.1899 -0.7843
 7042TIP3    H145321   1.949   0.611   4.051  1.4710  0.5948  0.2669
 7042TIP3    H245322   1.883   0.477   4.032 -1.7957  2.0604  0.5849
 7043TIP3   OH245323   5.879   0.700   1.591  0.1205 -0.5063  0.3435
 7043TIP3    H145324   5.850   0.790   1.599  0.5641 -0.2719 -0.5125
 7043TIP3    H245325   5.835   0.667   1.512 -0.8225 -1.3595  1.1951
 7044TIP3   OH245326   4.315   4.616   2.928 -0.0446  0.1624 -0.0816
 7044TIP3    H145327   4.354   4.609   2.841  2.5863 -1.2710  1.1283
 7044TIP3    H245328   4.242   4.554   2.926 -0.1874  0.3350 -1.2945
 7045TIP3   OH245329   5.640   5.174   1.691  0.5830  0.3493 -0.1850
 7045TIP3    H145330   5.559   5.175   1.641  0.3354 -0.0872  0.1980
 7045TIP3    H245331   5.709   5.185   1.626  0.2424  0.2047 -0.5740
 7046TIP3   OH245332   2.528   2.482   2.287 -0.0564 -0.7399 -0.3519
 7046TIP3    H145333   2.460   2.426   2.250 -0.4577  0.7389 -1.9706
 7046TIP3    H245334   2.585   2.422   2.334 -1.0203 -2.3772 -1.1870
 7047TIP3   OH245335   0.422   0.077   2.553 -0.2026 -0.6199 -0.4706
 7047TIP3    H145336   0.411   0.104   2.644 -0.1589  2.1430 -1.1924
 7047TIP3    H245337   0.333   0.058   2.522 -0.7646  2.1248 -0.8035
 7048TIP3   OH245338   3.981   3.459   2.805  0.7129 -0.4601 -0.3324
 7048TIP3    H145339   3.929   3.391   2.762  1.4238 -0.7001 -0.8397
 7048TIP3    H245340   4.019   3.415   2.881 -0.4329 -0.0732  0.4879
 7049TIP3   OH245341   5.424   2.290   3.435  0.4332 -0.4379  0.1826
 7049TIP3    H145342   5.345   2.259   3.390 -0.1144 -0.1661  0.9329
 7049TIP3    H245343   5.481   2.321   3.364 -1.2909  2.0519 -0.2622
 7050TIP3   OH245344   4.865   5.841   0.779 -0.2685  0.1034 -0.0121
 7050TIP3    H145345   4.784   5.871   0.821 -0.6650  0.1994 -0.8194
 7050TIP3    H245346   4.846   5.846   0.685  1.5532  2.6511 -0.3528
 7051TIP3   OH245347   5.975   2.368   0.525  0.5340  0.2278 -0.4462
 7051TIP3    H145348   6.027   2.431   0.576  1.5811 -2.0392  1.4855
 7051TIP3    H245349   5.923   2.322   0.591 -1.1416 -0.1222 -1.9415
 7052TIP3   OH245350   4.782   3.561   2.009  0.1223 -0.0895  0.4885
 7052TIP3    H145351   4.830   3.642   2.021 -0.6591  0.2274  1.5612
 7052TIP3    H245352   4.763   3.558   1.915  0.3988  0.8305  0.3970
 7053TIP3   OH245353   5.481   0.416   2.883  0.3193  0.1128  0.1510
 7053TIP3    H145354   5.444   0.417   2.794  1.2159  0.7166 -0.2356
 7053TIP3    H245355   5.410   0.386   2.938 -0.1598 -0.6029 -0.8203
 7054TIP3   OH245356   1.629   1.705   3.406 -0.5424  0.6446  0.1192
 7054TIP3    H145357   1.687   1.767   3.362 -0.4563 -0.6615 -1.7348
 7054TIP3    H245358   1.660   1.703   3.497  0.5890  1.9449 -0.2071
 7055TIP3   OH245359   0.742   2.750   2.263 -0.8616 -0.1876  0.3488
 7055TIP3    H145360   0.683   2.761   2.189  0.4661 -0.4729 -0.8082
 7055TIP3    H245361   0.808   2.688   2.232 -0.8368 -1.1311  2.1507
 7056TIP3   OH245362   6.180   5.521   3.574 -0.4465  0.0136 -0.5808
 7056TIP3    H145363   6.261   5.470   3.569 -0.6521 -0.2309 -1.5446
 7056TIP3    H245364   6.112   5.463   3.541 -0.9860  0.3139 -0.0314
 7057TIP3   OH245365   3.065   6.125   2.295 -0.1981 -0.3334 -0.4870
 7057TIP3    H145366   3.101   6.151   2.210  0.0797  1.4478  0.1385
 7057TIP3    H245367   2.981   6.170   2.301  0.0006 -0.0555  0.3844
 7058TIP3   OH245368   0.087   1.174   1.387  0.3071 -0.7449 -0.1294
 7058TIP3    H145369   0.158   1.213   1.336  0.6372  0.1881  0.9805
 7058TIP3    H245370   0.132   1.122   1.454 -0.1333 -3.0410 -1.5448
 7059TIP3   OH245371   5.906   4.256   1.047 -0.3077  0.2031 -0.4505
 7059TIP3    H145372   5.937   4.230   0.961 -0.7676 -1.2683 -0.1977
 7059TIP3    H245373   5.831   4.200   1.064 -1.3021  1.6543  0.1931
 7060TIP3   OH245374   4.440   6.030   2.638  0.1323  0.4023 -0.2964
 7060TIP3    H145375   4.428   5.988   2.552  0.9435  1.6855 -1.0653
 7060TIP3    H245376   4.351   6.036   2.674 -0.0827 -1.2523 -0.4926
 7061TIP3   OH245377   2.776   5.784   3.540 -0.4694  0.2448  0.7409
 7061TIP3    H145378   2.681   5.791   3.547 -0.4395  1.7131  0.0989
 7061TIP3    H245379   2.810   5.842   3.608 -0.0600  0.4625  0.3658
 7062TIP3   OH245380   0.329   2.487   3.078  0.3104 -0.0643 -0.1682
 7062TIP3    H145381   0.420   2.514   3.064  0.4531 -0.6032 -0.2807
 7062TIP3    H245382   0.277   2.554   3.031  0.6482  0.1899 -0.1826
 7063TIP3   OH245383   4.319   3.051   0.969  0.0033 -0.2379  0.1233
 7063TIP3    H145384   4.261   2.992   1.017  0.1174 -0.7610 -0.3770
 7063TIP3    H245385   4.274   3.068   0.886 -0.3810  0.9834  0.5636
 7064TIP3   OH245386   2.496   3.758   2.829 -0.5987 -0.2729  0.0161
 7064TIP3    H145387   2.432   3.829   2.827 -0.1197  0.1656  0.1827
 7064TIP3    H245388   2.530   3.759   2.919 -0.1770 -0.3441 -0.1413
 7065TIP3   OH245389   1.903   1.981   1.740  0.0812 -0.0693  0.0489
 7065TIP3    H145390   1.934   1.918   1.675 -0.9259 -0.3818 -0.1418
 7065TIP3    H245391   1.961   1.968   1.815 -1.4338 -2.8532  0.8830
 7066TIP3   OH245392   2.672   1.032   1.179  0.0091  0.6439 -0.2775
 7066TIP3    H145393   2.578   1.050   1.175 -0.2477 -0.6918 -1.3843
 7066TIP3    H245394   2.677   0.943   1.215  0.9936  1.4391  1.7103
 7067TIP3   OH245395   4.408   5.096   0.733 -1.1043  0.5997  1.0529
 7067TIP3    H145396   4.380   5.009   0.706  1.2390  0.5862 -1.8531
 7067TIP3    H245397   4.438   5.085   0.824 -1.6407 -1.3928  1.0266
 7068TIP3   OH245398   4.430   1.117   2.232  0.7567 -0.4178  0.8655
 7068TIP3    H145399   4.505   1.113   2.290  1.4065  0.3096  0.0997
 7068TIP3    H245400   4.467   1.130   2.145 -0.2128 -1.1151  0.3264
 7069TIP3   OH245401   6.278   1.203   2.913  0.6044 -0.4119  0.3081
 7069TIP3    H145402   6.356   1.153   2.890  0.0661 -1.1583  0.0865
 7069TIP3    H245403   6.312   1.282   2.955  1.6097  0.5323 -2.0620
 7070TIP3   OH245404   4.121   5.156   0.953 -0.2385  0.1814 -0.3261
 7070TIP3    H145405   4.032   5.158   0.920 -0.2112 -1.9922 -0.6587
 7070TIP3    H245406   4.176   5.166   0.875 -0.1777  0.8684 -0.2007
 7071TIP3   OH245407   0.780   6.510   0.897  0.5628  0.1468  0.9227
 7071TIP3    H145408   0.751   6.573   0.831  0.3795  0.1521  1.0065
 7071TIP3    H245409   0.702   6.458   0.917  0.8792 -0.5601  0.3633
 7072TIP3   OH245410   2.905   5.294   3.004  0.1998 -0.0077 -0.1096
 7072TIP3    H145411   2.837   5.288   3.071  0.1473  0.1751 -0.1436
 7072TIP3    H245412   2.856   5.292   2.921  0.3512 -1.4708 -0.1811
 7073TIP3   OH245413   1.845   2.586   1.265 -0.4569  0.2978 -0.1975
 7073TIP3    H145414   1.824   2.539   1.184 -0.6101  0.8725 -0.5003
 7073TIP3    H245415   1.784   2.660   1.265  2.1018  2.5973 -1.5876
 7074TIP3   OH245416   0.890   4.141   1.850  0.0085 -0.0310  0.0133
 7074TIP3    H145417   0.955   4.206   1.877 -0.7445  0.0881  1.6223
 7074TIP3    H245418   0.940   4.061   1.836  0.5854  0.2021  0.6932
 7075TIP3   OH245419   0.318   4.468   2.143 -0.4446 -0.2108  0.0175
 7075TIP3    H145420   0.355   4.442   2.227  1.0309  1.0874 -0.2042
 7075TIP3    H245421   0.378   4.431   2.077 -0.4727  0.4677 -0.4000
 7076TIP3   OH245422   3.099   6.299   1.044  0.2477 -0.5078 -0.1093
 7076TIP3    H145423   3.083   6.327   0.954  1.6147  2.3273  0.4075
 7076TIP3    H245424   3.011   6.295   1.083 -0.2034  0.9726 -0.8828
 7077TIP3   OH245425   0.333   5.940   3.530 -0.5444 -0.2280 -0.4333
 7077TIP3    H145426   0.344   5.890   3.449  0.8104 -1.3792  0.4153
 7077TIP3    H245427   0.413   5.924   3.580 -1.9064 -0.7129  1.7550
 7078TIP3   OH245428   4.630   5.081   2.591 -0.3418 -0.1283 -0.1876
 7078TIP3    H145429   4.669   4.994   2.595 -0.2845 -0.1106 -0.3706
 7078TIP3    H245430   4.560   5.074   2.526 -1.1433 -0.3550  0.6789
 7079TIP3   OH245431   1.234   5.097   1.760  0.6757 -0.2850 -0.5038
 7079TIP3    H145432   1.237   5.025   1.697  1.3187 -2.0383  1.4078
 7079TIP3    H245433   1.162   5.075   1.819  1.8043 -0.2056  0.9813
 7080TIP3   OH245434   6.318   3.825   2.656  0.2244 -0.6829 -0.1395
 7080TIP3    H145435   6.238   3.872   2.633  1.2740  0.8516 -0.7725
 7080TIP3    H245436   6.341   3.858   2.743  1.3503  0.5312 -0.8827
 7081TIP3   OH245437   6.468   4.946   3.324  0.0362 -0.5868 -0.0728
 7081TIP3    H145438   6.401   4.931   3.392 -1.0436 -1.2662 -1.2441
 7081TIP3    H245439   6.419   4.983   3.250  1.2001  0.1662 -0.4911
 7082TIP3   OH245440   5.197   4.228   3.627  0.2438  0.2225 -0.2910
 7082TIP3    H145441   5.247   4.227   3.709  1.0816 -0.3198 -0.7899
 7082TIP3    H245442   5.127   4.290   3.643  0.5860  0.3760  0.7286
 7083TIP3   OH245443   3.141   2.226   3.450  0.1111 -0.1071 -0.4025
 7083TIP3    H145444   3.053   2.248   3.480  0.5806  0.4562  0.6119
 7083TIP3    H245445   3.180   2.310   3.426  0.5365 -0.2993 -0.3943
 7084TIP3   OH245446   6.163   4.213   0.930  0.6076 -0.4725  0.0841
 7084TIP3    H145447   6.090   4.160   0.899 -0.0531 -0.6566  1.8230
 7084TIP3    H245448   6.145   4.301   0.898 -1.0702 -0.2519  1.4705
 7085TIP3   OH245449   5.045   5.981   3.626 -0.0750 -0.4853 -0.4801
 7085TIP3    H145450   5.048   5.885   3.628  2.2384 -0.4456  0.7045
 7085TIP3    H245451   4.968   6.003   3.680 -1.1343 -1.6363 -1.4410
 7086TIP3   OH245452   4.081   0.645   3.373 -0.8677 -0.2257  0.0772
 7086TIP3    H145453   4.121   0.577   3.319 -0.3986  0.6125 -0.6626
 7086TIP3    H245454   3.990   0.618   3.382 -1.1054 -0.0831 -1.6702
 7087TIP3   OH245455   0.042   4.458   2.225  0.5289  0.0589 -0.2987
 7087TIP3    H145456   0.035   4.363   2.222  1.1932 -0.0109  0.1986
 7087TIP3    H245457   0.133   4.477   2.203  0.9070  0.4636  1.4485
 7088TIP3   OH245458   0.583   2.705   1.089 -0.2842 -0.3612 -0.3119
 7088TIP3    H145459   0.562   2.665   1.005 -0.4723  1.0070 -0.9514
 7088TIP3    H245460   0.521   2.665   1.151 -1.5698  0.1091 -1.2380
 7089TIP3   OH245461   0.736   2.377   2.272  0.0944 -0.5313  0.3351
 7089TIP3    H145462   0.646   2.356   2.247 -0.1595  0.3201  0.4945
 7089TIP3    H245463   0.729   2.411   2.361  0.4198  0.5657 -0.0410
 7090TIP3   OH245464   4.335   3.159   3.798 -0.1760  0.5473  0.1924
 7090TIP3    H145465   4.367   3.116   3.719 -1.1603  0.6995 -0.3062
 7090TIP3    H245466   4.248   3.191   3.774 -0.1211  1.3889  1.0557
 7091TIP3   OH245467   4.205   5.798   3.156 -0.2217 -0.3818 -0.6641
 7091TIP3    H145468   4.219   5.781   3.063  1.6170  0.4146 -0.5704
 7091TIP3    H245469   4.270   5.864   3.179 -0.5753 -0.6246  1.2154
 7092TIP3   OH245470   2.206   1.859   1.684 -0.0397  0.0524 -0.3282
 7092TIP3    H145471   2.287   1.832   1.641  1.4688  1.3934  1.5081
 7092TIP3    H245472   2.204   1.809   1.765 -0.2386  1.1287  0.3523
 7093TIP3   OH245473   5.018   5.152   1.265 -0.6846  0.1545 -0.1318
 7093TIP3    H145474   5.051   5.082   1.321  1.3733  1.0121 -0.2025
 7093TIP3    H245475   5.036   5.122   1.176  0.9043  1.0369 -0.1470
 7094TIP3   OH245476   3.246   0.865   2.660  0.0677 -0.0229  0.1701
 7094TIP3    H145477   3.165   0.855   2.710  0.4861 -0.5584  0.7455
 7094TIP3    H245478   3.223   0.927   2.590 -1.0947 -0.8806 -0.2433
 7095TIP3   OH245479   1.151   0.720   2.323 -0.5405  0.2468  0.2136
 7095TIP3    H145480   1.081   0.715   2.388 -0.8364 -0.5651 -0.1408
 7095TIP3    H245481   1.228   0.749   2.372 -1.1056  1.0953  0.6201
 7096TIP3   OH245482   0.599   3.240   0.914 -0.3063  0.0068 -0.1020
 7096TIP3    H145483   0.654   3.318   0.914  0.7526 -0.7127 -0.7710
 7096TIP3    H245484   0.661   3.167   0.908 -1.2485 -0.9160  1.0101
 7097TIP3   OH245485   0.877   0.296   4.388 -0.5355 -0.1812 -0.3253
 7097TIP3    H145486   0.816   0.253   4.447  1.3450 -1.0650  1.0872
 7097TIP3    H245487   0.903   0.228   4.326  0.8620 -0.5620  0.6301
 7098TIP3   OH245488   0.228   4.678   3.647  0.6363 -0.4828 -0.1779
 7098TIP3    H145489   0.186   4.652   3.729 -0.0438  0.7789 -0.0996
 7098TIP3    H245490   0.156   4.699   3.588  1.1063  0.9275 -0.3019
 7099TIP3   OH245491   4.171   0.330   2.694 -0.0298  0.0763  0.6122
 7099TIP3    H145492   4.102   0.264   2.685  0.2810 -0.1072 -0.5644
 7099TIP3    H245493   4.131   0.410   2.660 -0.6785  0.7261  2.7717
 7100TIP3   OH245494   6.576   5.607   0.503 -0.1872  0.5614  0.6653
 7100TIP3    H145495   6.484   5.583   0.501 -0.0445 -0.5019  3.1443
 7100TIP3    H245496   6.576   5.703   0.496 -1.6027  0.7011  2.0158
 7101TIP3   OH245497   4.184   0.927   3.127  0.1033  0.2253  0.4367
 7101TIP3    H145498   4.238   0.850   3.110  0.6877  0.9107 -0.9647
 7101TIP3    H245499   4.100   0.892   3.156  0.3169 -0.9411 -0.2982
 7102TIP3   OH245500   6.237   0.589   2.839  0.2857 -0.0006  0.1279
 7102TIP3    H145501   6.191   0.641   2.773 -1.5988 -1.3673  0.3049
 7102TIP3    H245502   6.329   0.596   2.814 -0.3342 -0.3186 -2.5809
 7103TIP3   OH245503   0.432   0.603   1.155 -0.1112 -0.1060 -0.3820
 7103TIP3    H145504   0.383   0.684   1.139 -0.7144 -0.6876 -1.6404
 7103TIP3    H245505   0.524   0.629   1.148 -0.3092  0.2941 -1.8516
 7104TIP3   OH245506   3.687   5.924   1.848 -0.0142 -0.3430 -0.4941
 7104TIP3    H145507   3.720   5.948   1.761  0.9169  1.2903  0.2663
 7104TIP3    H245508   3.601   5.887   1.831  0.5612 -1.0185 -2.2015
 7105TIP3   OH245509   1.891   2.771   1.623  0.3210 -0.2364 -0.3799
 7105TIP3    H145510   1.818   2.723   1.662 -0.6902 -0.4925 -2.4923
 7105TIP3    H245511   1.955   2.704   1.601 -0.3034 -0.4289 -1.6562
 7106TIP3   OH245512   6.274   0.161   1.017 -0.1624  0.4643  0.0597
 7106TIP3    H145513   6.368   0.153   1.005 -0.2004 -0.6735  0.4235
 7106TIP3    H245514   6.244   0.211   0.941  0.5387 -0.3903 -0.7893
 7107TIP3   OH245515   1.203   2.558   2.719  0.0010  0.2864 -0.2612
 7107TIP3    H145516   1.170   2.634   2.673  0.5786  0.6356 -0.1165
 7107TIP3    H245517   1.128   2.524   2.768 -0.7462 -0.3933 -1.8336
 7108TIP3   OH245518   4.962   1.145   0.466 -0.1870 -0.0399 -0.2693
 7108TIP3    H145519   4.985   1.134   0.558  0.3215  1.2441 -0.2129
 7108TIP3    H245520   4.963   1.240   0.452  1.0765 -0.2461 -1.9249
 7109TIP3   OH245521   0.008   5.125   3.071 -0.0781  0.5316  0.0871
 7109TIP3    H145522   0.039   5.041   3.105 -2.2889  0.8965  3.4568
 7109TIP3    H245523  -0.074   5.142   3.118 -2.2913  2.4144 -3.8495
 7110TIP3   OH245524   2.589   5.159   1.367  0.4318 -0.2087  0.3853
 7110TIP3    H145525   2.544   5.208   1.436 -0.6410  0.5764 -0.8278
 7110TIP3    H245526   2.550   5.072   1.369 -1.3027  0.4855 -0.7095
 7111TIP3   OH245527   5.037   0.571   0.889 -0.0841 -0.1661 -0.1183
 7111TIP3    H145528   4.951   0.551   0.926 -0.0605 -1.5785 -0.7624
 7111TIP3    H245529   5.097   0.511   0.932  1.0489  2.2405  1.9490
 7112TIP3   OH245530   4.895   3.901   0.729 -0.4655 -0.4379  0.5402
 7112TIP3    H145531   4.895   3.901   0.633 -0.5073 -1.2908  0.5332
 7112TIP3    H245532   4.816   3.852   0.752 -0.4810 -0.1921  1.0194
 7113TIP3   OH245533   3.396   5.292   3.077  0.3712  0.3788 -0.0009
 7113TIP3    H145534   3.476   5.274   3.125 -1.6999  0.0615  3.6828
 7113TIP3    H245535   3.382   5.386   3.089 -0.2478  0.2734  0.1173
 7114TIP3   OH245536   6.020   5.746   3.897  0.3200 -0.0265  0.2989
 7114TIP3    H145537   5.993   5.738   3.989 -1.4323  1.1742 -0.0477
 7114TIP3    H245538   5.951   5.700   3.848  1.3088 -0.7712 -0.4253
 7115TIP3   OH245539   0.682   4.191   1.268  0.2363  0.0968  0.1697
 7115TIP3    H145540   0.718   4.102   1.260  0.3701  0.1547  0.1357
 7115TIP3    H245541   0.755   4.249   1.248  0.2946  0.2284  0.7540
 7116TIP3   OH245542   4.734   1.022   0.345 -0.3088 -1.0817  0.4161
 7116TIP3    H145543   4.817   1.036   0.389  0.2276 -3.3865  0.2665
 7116TIP3    H245544   4.754   1.028   0.252 -0.0815 -2.5216  0.3506
 7117TIP3   OH245545   6.135   2.369   4.143 -0.7540 -0.4306 -0.0926
 7117TIP3    H145546   6.230   2.353   4.147 -0.3506  1.3753 -1.3633
 7117TIP3    H245547   6.118   2.428   4.217 -0.6413  0.2793 -0.6266
 7118TIP3   OH245548   6.101   3.656   2.925 -0.0675  0.8737 -0.1220
 7118TIP3    H145549   6.196   3.645   2.929  0.2514  3.1194  0.0262
 7118TIP3    H245550   6.067   3.595   2.990  1.0269 -1.7120 -1.8086
 7119TIP3   OH245551   4.032   3.055   2.322 -0.3758  0.0663 -0.0030
 7119TIP3    H145552   3.979   3.134   2.331 -0.5023  0.0867 -0.8624
 7119TIP3    H245553   3.985   3.002   2.258  0.1433 -0.3380 -0.0506
 7120TIP3   OH245554   5.423   3.194   2.348 -0.1968  0.0204 -0.2941
 7120TIP3    H145555   5.489   3.144   2.397 -0.0132  1.3071  0.8369
 7120TIP3    H245556   5.461   3.281   2.338 -1.8611  0.9215  0.7666
 7121TIP3   OH245557   3.140   5.542   0.450  0.3758  0.1473 -0.1035
 7121TIP3    H145558   3.081   5.502   0.514 -0.1010 -0.5297 -0.9465
 7121TIP3    H245559   3.083   5.600   0.399  0.7891  0.8298  0.2009
 7122TIP3   OH245560   1.463   5.792   1.822  0.4116 -0.3639 -0.1106
 7122TIP3    H145561   1.424   5.721   1.771 -1.6116  0.7577 -0.2442
 7122TIP3    H245562   1.474   5.755   1.910  0.9443 -1.3295 -0.5737
 7123TIP3   OH245563   1.717   4.779   2.875  0.3815  0.2596  0.0530
 7123TIP3    H145564   1.653   4.824   2.819 -0.9252 -0.3213  1.0182
 7123TIP3    H245565   1.674   4.773   2.961  0.4140 -2.8669 -0.0276
 7124TIP3   OH245566   2.523   6.577   2.899  0.1557  0.0264  0.0610
 7124TIP3    H145567   2.598   6.607   2.846  2.0648 -0.8458  2.1175
 7124TIP3    H245568   2.505   6.489   2.866  0.0167  0.2421 -0.4486
 7125TIP3   OH245569   4.103   5.429   1.843 -0.5792  0.6337 -0.5969
 7125TIP3    H145570   4.073   5.407   1.755 -2.0721 -0.3140  0.1174
 7125TIP3    H245571   4.036   5.393   1.901  0.1073  1.6936  0.9136
 7126TIP3   OH245572   2.925   1.701   2.095  0.1643 -0.2111  0.4489
 7126TIP3    H145573   3.018   1.719   2.085  0.2672 -1.1064 -0.3392
 7126TIP3    H245574   2.921   1.619   2.144 -0.1441 -1.0781 -0.9615
 7127TIP3   OH245575   1.476   0.104   2.788  0.8455 -0.2687 -0.0299
 7127TIP3    H145576   1.564   0.101   2.825  0.3771  0.9157  1.2653
 7127TIP3    H245577   1.424   0.049   2.846  0.2605  0.9861  0.6783
 7128TIP3   OH245578   1.037   0.974   0.631  0.5784 -0.0225 -0.3369
 7128TIP3    H145579   1.029   0.898   0.689 -0.3492 -0.5016 -1.0587
 7128TIP3    H245580   1.102   1.030   0.673  0.6938 -0.8476  0.6168
 7129TIP3   OH245581   6.271   1.403   3.368 -0.2836 -0.1409  0.6498
 7129TIP3    H145582   6.237   1.454   3.442  0.3809  1.5557 -0.1764
 7129TIP3    H245583   6.227   1.439   3.291  0.3204 -0.7159  0.0256
 7130TIP3   OH245584   0.532   4.524   1.392 -0.7048 -0.0666  0.0584
 7130TIP3    H145585   0.531   4.528   1.296  0.0637  2.0159  0.0884
 7130TIP3    H245586   0.621   4.547   1.416 -0.8156 -0.8459  1.3071
 7131TIP3   OH245587   4.550   0.211   0.823 -0.0412  0.1203 -0.7027
 7131TIP3    H145588   4.551   0.263   0.903 -0.0254  0.0405 -0.6517
 7131TIP3    H245589   4.567   0.275   0.753  1.0081  0.0270 -0.5466
 7132TIP3   OH245590   6.131   2.139   2.660 -0.9220  0.0381 -0.1015
 7132TIP3    H145591   6.218   2.144   2.621 -0.9079  1.8762  0.0736
 7132TIP3    H245592   6.146   2.150   2.754 -1.3020  0.0282 -0.0383
 7133TIP3   OH245593   0.140   4.952   3.700 -0.3794 -0.0765 -0.1779
 7133TIP3    H145594   0.185   4.901   3.632 -0.5596  1.8938 -1.8731
 7133TIP3    H245595   0.072   5.000   3.653 -2.0209 -0.3345  1.7965
 7134TIP3   OH245596   6.431   1.509   3.834 -0.4177  0.4041  0.0708
 7134TIP3    H145597   6.357   1.471   3.882 -1.6790  0.9728 -1.3433
 7134TIP3    H245598   6.493   1.437   3.826 -1.3056 -0.4220  0.3291
 7135TIP3   OH245599   2.041   3.356   1.230  0.2331  0.3579 -0.4935
 7135TIP3    H145600   2.117   3.377   1.176 -0.4110  0.1944 -1.4917
 7135TIP3    H245601   2.046   3.418   1.303  1.2050  0.4795 -0.6466
 7136TIP3   OH245602   0.143   5.465   3.163 -0.6257  0.4434 -0.0808
 7136TIP3    H145603   0.149   5.554   3.127  0.6693  0.6078  0.5219
 7136TIP3    H245604   0.123   5.411   3.087  0.1864  1.0392 -0.7377
 7137TIP3   OH245605   1.229   6.208   0.706  0.3940  0.1176  0.3841
 7137TIP3    H145606   1.136   6.195   0.687 -0.2653  0.2910  3.1101
 7137TIP3    H245607   1.241   6.173   0.794  3.0197 -0.2107 -0.0159
 7138TIP3   OH245608   5.099   3.436   2.742 -0.0462 -0.7353 -0.1039
 7138TIP3    H145609   5.122   3.432   2.649  1.0787 -0.5200  0.1579
 7138TIP3    H245610   5.174   3.476   2.784 -0.8220 -0.2055  0.8218
 7139TIP3   OH245611   1.991   2.341   1.513  0.4163 -0.3976  0.8150
 7139TIP3    H145612   1.953   2.428   1.521  1.0025  0.2853 -2.4384
 7139TIP3    H245613   1.917   2.284   1.492  0.4909  0.0711 -0.8466
 7140TIP3   OH245614   1.005   1.215   1.899 -0.7873 -0.5793 -0.4218
 7140TIP3    H145615   0.965   1.301   1.911  1.4644  0.4237  0.4978
 7140TIP3    H245616   1.072   1.209   1.967  0.1718 -2.4165 -1.4242
 7141TIP3   OH245617   2.306   6.204   2.755 -0.1427 -0.5751  0.2933
 7141TIP3    H145618   2.374   6.137   2.758  0.3913 -0.0116  1.2575
 7141TIP3    H245619   2.266   6.201   2.842 -0.6920 -0.2389  0.0540
 7142TIP3   OH245620   6.449   0.565   4.124  0.0173  0.7336  0.1711
 7142TIP3    H145621   6.505   0.614   4.185  1.6178 -2.5192  1.5661
 7142TIP3    H245622   6.361   0.597   4.140  1.0241  3.7160  0.2941
 7143TIP3   OH245623   6.000   6.054   0.588 -0.2545 -0.3036  0.1561
 7143TIP3    H145624   5.991   6.097   0.673 -2.1371  1.1254 -0.6944
 7143TIP3    H245625   5.915   6.066   0.546  0.6788 -0.8110 -2.0114
 7144TIP3   OH245626   6.381   5.185   3.154 -0.4187 -0.4111  0.6067
 7144TIP3    H145627   6.379   5.279   3.136  1.1887 -0.5550 -0.5231
 7144TIP3    H245628   6.340   5.175   3.240  1.7322  1.6167  1.9622
 7145TIP3   OH245629   4.685   0.971   4.669  0.3561  0.7904  0.4044
 7145TIP3    H145630   4.752   0.991   4.735  0.4572  0.6243  0.3513
 7145TIP3    H245631   4.629   1.049   4.668  0.7917  1.1069  0.1445
 7146TIP3   OH245632   3.515   5.544   2.276  0.1743  0.0841 -0.2806
 7146TIP3    H145633   3.600   5.546   2.321  0.6973 -2.1627 -1.0350
 7146TIP3    H245634   3.458   5.497   2.336  0.0662 -0.3313 -0.7098
 7147TIP3   OH245635   1.873   1.668   2.959  0.5660  0.4473  0.7474
 7147TIP3    H145636   1.934   1.732   2.997  2.9160 -1.4434  0.3835
 7147TIP3    H245637   1.877   1.685   2.865  2.5656 -1.2766  0.4716
 7148TIP3   OH245638   4.990   2.740   1.554  0.2831  0.2399 -0.2954
 7148TIP3    H145639   4.912   2.685   1.554 -0.1896  0.8997 -0.2235
 7148TIP3    H245640   5.063   2.678   1.559 -0.2229 -0.3950 -0.6600
 7149TIP3   OH245641   6.510   3.914   2.194  0.1481  0.1709 -0.1653
 7149TIP3    H145642   6.451   3.930   2.268 -0.5356 -0.0669 -0.6544
 7149TIP3    H245643   6.505   3.994   2.142  0.8724  0.4625  0.2032
 7150TIP3   OH245644   4.446   0.479   1.612  0.1717  0.2256  0.3427
 7150TIP3    H145645   4.413   0.524   1.534  1.1998  0.2581 -0.0959
 7150TIP3    H245646   4.369   0.442   1.654 -0.3144 -0.5955 -1.2000
 7151TIP3   OH245647   3.492   3.003   1.512  0.3033  0.0113  0.3281
 7151TIP3    H145648   3.554   3.075   1.504 -2.3161  2.6973  1.9161
 7151TIP3    H245649   3.471   2.999   1.606 -1.9509 -0.6700 -0.1296
 7152TIP3   OH245650   0.839   3.509   4.226  0.3945 -0.1381  0.2859
 7152TIP3    H145651   0.892   3.580   4.262  0.0102 -0.0267  0.6399
 7152TIP3    H245652   0.832   3.530   4.133 -0.8243  1.0219  0.6120
 7153TIP3   OH245653   0.892   0.108   2.900 -0.2622  0.3520 -0.1830
 7153TIP3    H145654   0.890   0.100   2.995  0.0513  0.1581 -0.1903
 7153TIP3    H245655   0.982   0.134   2.880 -1.1083  3.7712 -0.1806
 7154TIP3   OH245656   5.424   5.884   3.886 -0.0523 -0.0791 -0.0984
 7154TIP3    H145657   5.377   5.955   3.842 -2.5162  0.8728  3.5654
 7154TIP3    H245658   5.508   5.923   3.912  0.6107 -0.0725 -2.1199
 7155TIP3   OH245659   3.180   3.925   1.498  0.1678  0.1200 -0.1162
 7155TIP3    H145660   3.243   3.997   1.499  0.1794  0.1150 -0.3537
 7155TIP3    H245661   3.185   3.891   1.409  1.1110 -1.0040  0.3233
 7156TIP3   OH245662   5.205   6.460   4.082  0.3546  0.3300 -0.4207
 7156TIP3    H145663   5.260   6.451   4.004 -1.4311 -1.6625 -1.5544
 7156TIP3    H245664   5.133   6.398   4.068  0.3149 -0.6183  3.1458
 7157TIP3   OH245665   4.385   0.766   2.512  0.4262 -0.6510 -0.1478
 7157TIP3    H145666   4.338   0.683   2.508  1.5551 -1.3246  0.0065
 7157TIP3    H245667   4.451   0.760   2.443  0.0383  0.4486 -0.6422
 7158TIP3   OH245668   1.706   0.691   0.929  0.1224 -0.2643  0.1051
 7158TIP3    H145669   1.642   0.704   0.860 -1.0984 -0.0373  1.2422
 7158TIP3    H245670   1.789   0.675   0.883 -0.4885  0.6960 -1.3857
 7159TIP3   OH245671   4.352   0.263   2.930 -0.1095  0.0937 -0.2003
 7159TIP3    H145672   4.302   0.275   2.849 -1.2632  0.0730  0.4932
 7159TIP3    H245673   4.353   0.169   2.944  0.3917  0.0713 -0.3682
 7160TIP3   OH245674   5.910   6.497   2.784  0.2896 -0.1366  0.3712
 7160TIP3    H145675   5.942   6.582   2.754 -1.3702 -0.1887 -1.7376
 7160TIP3    H245676   5.958   6.433   2.731 -0.2191 -0.3931  0.2094
 7161TIP3   OH245677   3.936   5.633   1.575 -0.2357  0.1204 -0.2532
 7161TIP3    H145678   3.849   5.619   1.539 -0.5553 -1.6367  1.0498
 7161TIP3    H245679   3.975   5.546   1.579  0.9825  0.6686  0.6489
 7162TIP3   OH245680   0.717   1.320   2.283  0.2168  0.1352 -0.1551
 7162TIP3    H145681   0.661   1.315   2.206  0.2910  1.3437 -0.3050
 7162TIP3    H245682   0.777   1.392   2.265  0.7025 -0.0235  0.7370
 7163TIP3   OH245683   0.593   4.328   3.960 -0.0375 -0.1358  0.3126
 7163TIP3    H145684   0.669   4.350   3.906 -0.7604 -1.0109 -1.1201
 7163TIP3    H245685   0.555   4.412   3.984 -1.0088  0.3323 -2.5131
 7164TIP3   OH245686   5.600   3.557   1.518 -0.1174  0.0715  0.1742
 7164TIP3    H145687   5.518   3.543   1.471  2.4357 -1.5980 -4.5548
 7164TIP3    H245688   5.631   3.642   1.487  0.6815 -0.0553  0.6057
 7165TIP3   OH245689   2.159   3.743   2.715 -0.4995 -0.4278 -0.2020
 7165TIP3    H145690   2.067   3.720   2.700 -0.9192  1.5322 -0.8287
 7165TIP3    H245691   2.161   3.778   2.803 -0.2777 -0.7434 -0.0779
 7166TIP3   OH245692   5.323   2.009   1.957 -0.3093 -0.7460 -0.0787
 7166TIP3    H145693   5.390   2.066   1.995 -1.7629  1.4267 -0.6112
 7166TIP3    H245694   5.306   2.046   1.870 -1.1648 -2.1332 -0.5291
 7167TIP3   OH245695   0.830   5.613   1.361  0.1894 -0.0441 -0.1555
 7167TIP3    H145696   0.830   5.709   1.356 -1.1399 -0.0285 -0.1233
 7167TIP3    H245697   0.759   5.586   1.304 -1.5680 -0.8490  2.2634
 7168TIP3   OH245698   4.757   1.434   1.651 -0.9841  0.0243 -0.3067
 7168TIP3    H145699   4.817   1.437   1.577 -1.0712  0.2771 -0.3678
 7168TIP3    H245700   4.699   1.361   1.632  0.9232 -1.9642  1.0182
 7169TIP3   OH245701   4.773   6.044   2.955  0.3698 -0.5632  0.2871
 7169TIP3    H145702   4.694   6.088   2.986  0.7546 -0.8538  1.7432
 7169TIP3    H245703   4.745   5.996   2.877 -0.4610  0.7942 -0.2865
 7170TIP3   OH245704   1.001   5.176   2.049 -0.2558  0.2690  0.4116
 7170TIP3    H145705   1.052   5.184   2.129 -0.5020  2.0164  0.4249
 7170TIP3    H245706   1.036   5.243   1.991 -1.2548  0.2225 -0.2772
 7171TIP3   OH245707   4.047   4.558   3.455 -0.3735 -0.3404 -0.0988
 7171TIP3    H145708   4.104   4.614   3.509 -1.1733 -0.7811  1.2551
 7171TIP3    H245709   3.963   4.559   3.501 -1.7005  0.8158 -2.3727
 7172TIP3   OH245710   5.374   4.380   3.477  0.3640  0.2326 -0.6377
 7172TIP3    H145711   5.317   4.306   3.499  1.4000 -0.3427  0.1622
 7172TIP3    H245712   5.381   4.377   3.381 -1.6657  0.8750 -0.8628
 7173TIP3   OH245713   2.614   4.187   0.839 -0.4443  0.6448 -0.2120
 7173TIP3    H145714   2.673   4.158   0.909 -0.6353 -1.2178 -0.7704
 7173TIP3    H245715   2.613   4.282   0.848  1.6312  0.6608  0.6267
 7174TIP3   OH245716   0.024   4.009   0.387 -0.7339  0.7839  0.4673
 7174TIP3    H145717  -0.051   3.994   0.444 -0.8736  0.5045  0.2091
 7174TIP3    H245718  -0.004   4.078   0.327 -1.2968 -0.3108 -0.5586
 7175TIP3   OH245719   2.273   1.684   4.028  0.3949  0.1067 -0.3049
 7175TIP3    H145720   2.277   1.728   4.112 -1.4171  1.0454 -0.6495
 7175TIP3    H245721   2.341   1.726   3.975 -1.0935  2.4110 -0.5338
 7176TIP3   OH245722   2.232   6.452   3.533  0.1454  0.1491  0.2349
 7176TIP3    H145723   2.294   6.523   3.552  1.0345 -0.8234  1.0704
 7176TIP3    H245724   2.218   6.408   3.617 -2.0277  0.5721  0.1683
 7177TIP3   OH245725   1.250   1.929   1.078  0.0833 -0.2121  0.4332
 7177TIP3    H145726   1.333   1.932   1.126  0.7150 -1.3387 -0.5427
 7177TIP3    H245727   1.190   1.882   1.136  0.8068 -1.4631  0.1804
 7178TIP3   OH245728   3.692   1.404   1.401 -0.0022 -0.1484  0.6168
 7178TIP3    H145729   3.768   1.351   1.377  0.4385  1.0133 -0.6751
 7178TIP3    H245730   3.727   1.472   1.459 -0.0605  0.3339  0.0938
 7179TIP3   OH245731   5.711   5.420   3.201  0.2785 -0.4879  0.5149
 7179TIP3    H145732   5.749   5.334   3.186 -0.8744 -0.7027 -1.6241
 7179TIP3    H245733   5.630   5.402   3.249  0.7605 -0.4282  1.3702
 7180TIP3   OH245734   2.476   4.893   1.722  0.4314  0.0049 -0.2030
 7180TIP3    H145735   2.565   4.868   1.694  0.2355 -0.4188 -0.4539
 7180TIP3    H245736   2.418   4.846   1.662 -0.0179 -1.2516  1.1575
 7181TIP3   OH245737   4.856   4.040   1.116  0.4898  0.3172  0.0541
 7181TIP3    H145738   4.790   3.996   1.063  1.1970  1.1895 -1.6343
 7181TIP3    H245739   4.867   3.983   1.193 -0.5118 -1.0444 -0.7673
 7182TIP3   OH245740   5.189   2.196   3.318  0.5727  0.0198  0.2794
 7182TIP3    H145741   5.134   2.266   3.284  0.9832 -0.3338 -1.1885
 7182TIP3    H245742   5.135   2.117   3.310  0.3664  0.0478  1.2726
 7183TIP3   OH245743   4.133   3.718   2.093 -0.5742 -0.2308  0.6445
 7183TIP3    H145744   4.159   3.640   2.141  1.2322  0.6944  1.2639
 7183TIP3    H245745   4.038   3.724   2.106 -0.7895 -2.3803  0.4206
 7184TIP3   OH245746   6.593   0.408   1.169  0.7266  0.7766 -0.0786
 7184TIP3    H145747   6.590   0.503   1.162 -0.4908  0.7756  0.2229
 7184TIP3    H245748   6.686   0.386   1.163  1.2228  2.1462  1.9012
 7185TIP3   OH245749   6.473   3.100   0.615  0.0743 -0.5487 -0.3542
 7185TIP3    H145750   6.546   3.119   0.556  0.6670 -1.3674  0.0971
 7185TIP3    H245751   6.426   3.184   0.623  0.0795 -0.3856 -1.8275
 7186TIP3   OH245752   0.816   3.596   3.975  0.1396 -0.4063  0.2214
 7186TIP3    H145753   0.806   3.587   3.880 -1.5040 -2.2653  0.4862
 7186TIP3    H245754   0.751   3.662   3.999 -1.4583 -1.9082  0.2847
 7187TIP3   OH245755   1.159   0.700   0.567  0.1859 -0.9176 -0.1729
 7187TIP3    H145756   1.112   0.775   0.531 -1.0547 -1.8552 -0.5821
 7187TIP3    H245757   1.251   0.716   0.545  0.1193  1.0024  0.7184
 7188TIP3   OH245758   4.603   2.464   2.615 -0.0373 -0.5342  0.0629
 7188TIP3    H145759   4.662   2.414   2.670 -0.6536 -0.3543  0.9033
 7188TIP3    H245760   4.530   2.488   2.672 -1.1463 -1.1289 -1.0551
 7189TIP3   OH245761   6.042   5.127   1.702 -0.2946  0.1533  0.0497
 7189TIP3    H145762   5.984   5.122   1.626 -0.3386  0.5627  0.0540
 7189TIP3    H245763   6.004   5.196   1.756  1.2990  1.8453 -0.8820
 7190TIP3   OH245764   0.746   0.348   3.396  0.3686 -0.9796  0.0161
 7190TIP3    H145765   0.763   0.255   3.384  1.7053 -0.6321 -1.0839
 7190TIP3    H245766   0.801   0.373   3.470  1.5507 -0.7045 -0.9157
 7191TIP3   OH245767   4.565   0.738   3.205  0.2334  0.0742  0.3606
 7191TIP3    H145768   4.485   0.767   3.249  0.0611  1.1929 -0.6514
 7191TIP3    H245769   4.536   0.709   3.119  0.8195 -0.3224  0.2849
 7192TIP3   OH245770   6.403   4.131   2.027  0.1629 -0.2703 -0.8773
 7192TIP3    H145771   6.434   4.221   2.016 -0.4074 -0.1269 -1.3972
 7192TIP3    H245772   6.426   4.088   1.944  3.6089 -1.6197  0.5799
 7193TIP3   OH245773   1.355   6.063   3.588 -0.5492 -0.0216 -0.0047
 7193TIP3    H145774   1.330   6.102   3.505 -0.3433 -1.4002 -0.7358
 7193TIP3    H245775   1.363   6.138   3.648 -0.5421  1.0031 -1.2426
 7194TIP3   OH245776   3.261   0.130   0.431  0.2747 -0.6499 -0.2496
 7194TIP3    H145777   3.233   0.211   0.473  0.3929 -0.5089 -0.4455
 7194TIP3    H245778   3.179   0.083   0.415 -0.0180  0.4254 -2.1935
 7195TIP3   OH245779   6.201   0.678   4.132  0.1641  0.4992  0.3266
 7195TIP3    H145780   6.204   0.772   4.145 -1.0503  0.8528 -1.5157
 7195TIP3    H245781   6.134   0.647   4.194 -1.8598  1.3870 -1.2921
 7196TIP3   OH245782   2.891   0.352   1.746 -0.1374 -0.4773  0.7682
 7196TIP3    H145783   2.797   0.355   1.727 -0.0420 -0.7028  0.2428
 7196TIP3    H245784   2.896   0.329   1.839 -0.5999 -0.6508  0.7513
 7197TIP3   OH245785   4.021   1.407   3.477 -0.3011 -0.1917 -0.1388
 7197TIP3    H145786   4.056   1.422   3.565  0.7980 -2.1637 -0.1812
 7197TIP3    H245787   4.091   1.360   3.432 -0.9264  0.6205 -2.0277
 7198TIP3   OH245788   5.980   5.384   2.142  0.0978  0.1026  0.4487
 7198TIP3    H145789   6.002   5.421   2.227 -0.0972 -0.2747  0.6681
 7198TIP3    H245790   6.064   5.376   2.097  0.2528 -0.0678  0.7624
 7199TIP3   OH245791   4.252   0.328   0.334 -0.3726 -0.0697 -0.1604
 7199TIP3    H145792   4.283   0.287   0.253 -0.5341 -0.2301 -0.1412
 7199TIP3    H245793   4.219   0.256   0.387  0.4093 -0.0550  0.3660
 7200TIP3   OH245794   2.886   4.754   3.202  0.6341  0.0670 -0.1081
 7200TIP3    H145795   2.904   4.848   3.207  2.3545 -0.2704  0.6481
 7200TIP3    H245796   2.890   4.734   3.109 -0.2833  0.8278 -0.3266
 7201TIP3   OH245797   4.180   6.580   3.529  0.0081  0.2265  0.1766
 7201TIP3    H145798   4.253   6.630   3.565  0.2241 -0.0075  0.0674
 7201TIP3    H245799   4.174   6.503   3.585 -0.1262  0.2211  0.1563
 7202TIP3   OH245800   2.342   4.178   0.747  0.2219  0.2336 -0.4465
 7202TIP3    H145801   2.289   4.202   0.823 -1.7431  0.0724 -1.6827
 7202TIP3    H245802   2.433   4.187   0.776 -0.3824 -2.0931  2.6431
 7203TIP3   OH245803   2.792   4.189   2.408 -0.3027 -0.2103  0.0615
 7203TIP3    H145804   2.863   4.244   2.440  0.6025 -0.3247 -1.6641
 7203TIP3    H245805   2.798   4.194   2.313 -1.5050 -1.6350 -0.1293
 7204TIP3   OH245806   4.010   0.476   1.759  0.1616  0.1715 -0.6410
 7204TIP3    H145807   3.946   0.525   1.810 -0.6821  0.8028 -2.2223
 7204TIP3    H245808   4.088   0.530   1.760 -0.3903  1.0271 -1.3840
 7205TIP3   OH245809   5.672   1.485   0.855  0.3505 -0.2894  0.3081
 7205TIP3    H145810   5.586   1.506   0.893 -0.3598 -1.6846 -0.4469
 7205TIP3    H245811   5.719   1.568   0.856 -0.6460  0.3119  1.6401
 7206TIP3   OH245812   3.222   6.219   3.538  0.3961 -0.0324 -0.5771
 7206TIP3    H145813   3.243   6.184   3.624 -1.8916  0.8054  0.4067
 7206TIP3    H245814   3.171   6.298   3.556 -0.4728 -0.0402 -2.6940
 7207TIP3   OH245815   0.914   1.414   1.175  0.2093  0.1779 -0.2869
 7207TIP3    H145816   0.952   1.477   1.114 -2.7268  1.1595 -1.2727
 7207TIP3    H245817   0.944   1.329   1.143  2.5053  0.8899 -0.2199
 7208TIP3   OH245818   5.864   5.221   0.886 -0.0199  0.1704  0.7063
 7208TIP3    H145819   5.956   5.193   0.887  0.7579  2.4164 -0.7255
 7208TIP3    H245820   5.865   5.308   0.926 -1.3537  0.6672 -0.2727
 7209TIP3   OH245821   6.040   2.583   2.618 -0.1773 -0.4997  0.1670
 7209TIP3    H145822   6.132   2.597   2.593 -1.0165  2.1303 -1.9689
 7209TIP3    H245823   6.012   2.510   2.562 -0.1132  0.6601 -1.4672
 7210TIP3   OH245824   2.827   5.198   3.410  0.1002  0.0958 -0.0923
 7210TIP3    H145825   2.857   5.272   3.462  2.8717 -0.8216 -0.2150
 7210TIP3    H245826   2.806   5.131   3.474 -1.1064  0.5158 -0.0307
 7211TIP3   OH245827   6.613   5.109   3.494  0.3292 -0.2238 -0.5415
 7211TIP3    H145828   6.615   5.199   3.462  1.1889  0.3292  0.9594
 7211TIP3    H245829   6.566   5.060   3.426 -1.8232  1.6790 -0.5331
 7212TIP3   OH245830   6.010   1.985   2.938  0.0865  0.2686 -0.1379
 7212TIP3    H145831   6.023   2.080   2.936  0.2289  0.2381 -1.2910
 7212TIP3    H245832   6.095   1.949   2.963  0.3174  0.4028 -0.7139
 7213TIP3   OH245833   4.682   3.598   0.383 -0.4478 -0.4881  0.1611
 7213TIP3    H145834   4.682   3.534   0.454 -0.3098 -1.8971 -1.0478
 7213TIP3    H245835   4.767   3.585   0.339 -0.6081  0.2130 -0.3748
 7214TIP3   OH245836   2.159   0.976   3.360  0.8006 -0.2250 -0.5517
 7214TIP3    H145837   2.106   1.054   3.344 -0.2204 -0.6390  0.7265
 7214TIP3    H245838   2.169   0.972   3.455  3.3570 -0.0299 -0.7301
 7215TIP3   OH245839   3.346   1.581   2.756  0.1656  0.5778 -0.0658
 7215TIP3    H145840   3.335   1.553   2.665 -0.6474 -1.6935  0.6372
 7215TIP3    H245841   3.264   1.624   2.778 -0.2117 -0.1266 -0.0425
 7216TIP3   OH245842   2.903   2.249   3.278  0.1981  0.3581 -0.2446
 7216TIP3    H145843   2.914   2.344   3.273  1.5112  0.2779  0.6178
 7216TIP3    H245844   2.865   2.234   3.364 -2.5039  0.2525 -1.3704
 7217TIP3   OH245845   6.447   5.142   0.893  0.2855 -0.2066  0.0231
 7217TIP3    H145846   6.470   5.146   0.800  0.5380  2.5617  0.1256
 7217TIP3    H245847   6.513   5.196   0.936  0.5635 -1.9636  1.9505
 7218TIP3   OH245848   5.538   5.514   1.798  0.3112  0.0290  0.6298
 7218TIP3    H145849   5.467   5.455   1.773 -0.0023  1.0099 -0.9305
 7218TIP3    H245850   5.560   5.488   1.887 -0.6153 -1.6408  0.4157
 7219TIP3   OH245851   1.061   0.259   3.425 -0.6332 -0.0417  0.4832
 7219TIP3    H145852   1.082   0.348   3.454 -0.3893 -0.1094  0.5202
 7219TIP3    H245853   1.032   0.269   3.335 -0.4555  0.0594  0.4357
 7220TIP3   OH245854   1.256   5.737   2.361  0.2328  0.3825  0.1519
 7220TIP3    H145855   1.201   5.695   2.295  0.2219 -0.3950  0.6434
 7220TIP3    H245856   1.196   5.756   2.434  0.5653 -0.2652  0.6015
 7221TIP3   OH245857   1.996   3.623   2.069 -0.2839  0.4686  0.2787
 7221TIP3    H145858   2.055   3.592   2.138  2.3172  1.5699 -1.3226
 7221TIP3    H245859   1.964   3.543   2.027  2.0707 -0.2221 -0.3665
 7222TIP3   OH245860   5.139   3.817   2.872  0.2496  0.1178  0.3248
 7222TIP3    H145861   5.170   3.819   2.781  1.2880  0.2194  0.6668
 7222TIP3    H245862   5.066   3.879   2.874 -0.9006 -1.1361 -0.8153
 7223TIP3   OH245863   0.581   4.003   1.634 -0.7384 -0.1519  0.1970
 7223TIP3    H145864   0.497   4.001   1.680 -1.6361 -1.6650 -1.3784
 7223TIP3    H245865   0.596   4.095   1.617 -1.6917  0.2167  1.1974
 7224TIP3   OH245866   4.286   2.014   1.366 -0.3107 -0.4058 -0.1694
 7224TIP3    H145867   4.357   2.075   1.387  0.1052 -0.9085 -0.0829
 7224TIP3    H245868   4.213   2.069   1.340  0.0533  0.1279 -0.0661
 7225TIP3   OH245869   3.849   0.166   1.313 -0.4487 -0.3058 -0.3288
 7225TIP3    H145870   3.886   0.155   1.225  0.3539  1.6560 -0.2869
 7225TIP3    H245871   3.763   0.205   1.298 -1.4452 -2.3623 -0.3033
 7226TIP3   OH245872   6.012   4.005   3.372  0.1597  0.0495  0.3261
 7226TIP3    H145873   6.103   4.025   3.350 -0.1280  1.5062  0.3655
 7226TIP3    H245874   6.003   3.912   3.354  1.2054  0.2224 -1.2734
 7227TIP3   OH245875   1.323   4.455   0.976  0.0958 -0.4199  0.3496
 7227TIP3    H145876   1.344   4.548   0.981  0.8803 -0.5184 -0.8017
 7227TIP3    H245877   1.316   4.437   0.882 -1.1887 -1.2825  0.5947
 7228TIP3   OH245878   6.010   5.445   2.452  0.8802  0.3700  0.0597
 7228TIP3    H145879   5.966   5.511   2.399  0.5552 -2.1537 -3.0504
 7228TIP3    H245880   6.103   5.465   2.442  0.8029  0.1786 -1.2003
 7229TIP3   OH245881   3.574   0.283   2.782  0.3271  0.6512  0.0890
 7229TIP3    H145882   3.623   0.352   2.825  0.2744 -0.3031  1.7514
 7229TIP3    H245883   3.483   0.297   2.809 -0.0611  1.2220 -1.3736
 7230TIP3   OH245884   0.719   2.671   1.855 -0.4677  0.4856  0.0172
 7230TIP3    H145885   0.795   2.623   1.823 -1.1266  0.2890 -1.3452
 7230TIP3    H245886   0.701   2.736   1.787 -2.6240 -0.6943 -0.6356
 7231TIP3   OH245887   2.889   4.386   2.096 -0.3380 -0.2098  0.2487
 7231TIP3    H145888   2.894   4.445   2.021 -0.8128  0.7540  0.9492
 7231TIP3    H245889   2.858   4.441   2.168  0.5464 -0.9916  1.2718
 7232TIP3   OH245890   2.302   6.375   1.836 -0.5166  0.4055 -0.8469
 7232TIP3    H145891   2.225   6.390   1.782  0.4384 -0.8911 -2.6467
 7232TIP3    H245892   2.373   6.364   1.774  0.2787 -3.2727  0.5088
 7233TIP3   OH245893   3.703   0.909   2.629  0.4077 -0.5997 -0.3928
 7233TIP3    H145894   3.748   0.967   2.690  0.5281 -0.9704 -0.1236
 7233TIP3    H245895   3.637   0.864   2.682 -1.5047  1.1972 -1.1160
 7234TIP3   OH245896   4.605   0.521   0.859 -0.1483 -0.8950 -0.6200
 7234TIP3    H145897   4.556   0.558   0.786 -1.1472 -1.2409 -0.1352
 7234TIP3    H245898   4.538   0.496   0.922  0.7180 -0.2125  0.6044
 7235TIP3   OH245899   0.508   3.451   2.183  0.3891 -0.2347  0.4053
 7235TIP3    H145900   0.557   3.531   2.165  0.2224 -0.1035  0.5177
 7235TIP3    H245901   0.562   3.404   2.247 -0.1996  0.4984  1.4874
 7236TIP3   OH245902   4.944   0.258   3.229 -0.3832  0.3724  0.4483
 7236TIP3    H145903   4.923   0.178   3.277 -1.0282  1.0599  1.3284
 7236TIP3    H245904   4.968   0.227   3.142 -2.5004 -0.6542  0.1693
 7237TIP3   OH245905   4.537   4.003   3.337 -0.1944  0.4018  0.3507
 7237TIP3    H145906   4.452   4.004   3.294 -0.0424 -0.6169  0.0168
 7237TIP3    H245907   4.516   4.003   3.431 -0.5377  1.2926  0.2843
 7238TIP3   OH245908   1.384   5.746   2.755  0.1172  0.0025 -0.3415
 7238TIP3    H145909   1.369   5.658   2.720 -0.2081  0.1919 -0.6943
 7238TIP3    H245910   1.296   5.782   2.766  0.2019 -0.1629  0.9932
 7239TIP3   OH245911   0.632   4.947   2.501  0.3872  0.2768  0.1380
 7239TIP3    H145912   0.682   5.027   2.520  0.8141 -0.0797  0.5130
 7239TIP3    H245913   0.570   4.974   2.434  0.1316  1.0816  0.6805
 7240TIP3   OH245914   4.248   5.375   2.805  0.1544 -0.2333  0.1528
 7240TIP3    H145915   4.254   5.281   2.787 -1.6921 -0.4514  0.4369
 7240TIP3    H245916   4.205   5.412   2.728  1.6918  0.5547 -0.3587
 7241TIP3   OH245917   3.498   1.733   3.021 -0.2015 -0.2206  0.2835
 7241TIP3    H145918   3.574   1.714   3.075  0.4690  0.2750 -0.4727
 7241TIP3    H245919   3.435   1.665   3.044  0.1942 -0.2162  1.4341
 7242TIP3   OH245920   1.938   3.510   2.917 -0.0309 -0.0056  0.5250
 7242TIP3    H145921   2.021   3.520   2.964  0.5772  0.1469 -0.5574
 7242TIP3    H245922   1.889   3.446   2.968  1.1206 -0.7830  0.6816
 7243TIP3   OH245923   3.056   5.200   2.351  0.4167 -0.1769  0.0104
 7243TIP3    H145924   2.976   5.150   2.369  0.5631 -0.2131  0.5866
 7243TIP3    H245925   3.117   5.137   2.313 -0.7408  0.4103 -3.1691
 7244TIP3   OH245926   4.242   1.665   0.881 -0.1259 -0.1888  0.2601
 7244TIP3    H145927   4.165   1.683   0.935  0.4178 -0.0889  1.0120
 7244TIP3    H245928   4.215   1.593   0.824  0.1135 -2.2238  2.5366
 7245TIP3   OH245929   1.027   4.144   0.796 -0.2507  0.0919 -0.3899
 7245TIP3    H145930   0.990   4.063   0.761  0.0659 -0.2037 -0.0511
 7245TIP3    H245931   1.100   4.164   0.739  0.8684 -0.9130  0.6243
 7246TIP3   OH245932   1.205   4.593   2.230  0.5892 -0.3116  0.2352
 7246TIP3    H145933   1.137   4.529   2.250  0.0893 -0.2794 -1.2695
 7246TIP3    H245934   1.278   4.569   2.287 -0.2373 -1.1028  0.9822
 7247TIP3   OH245935   2.085   6.006   2.460  0.0315 -0.5452 -0.3748
 7247TIP3    H145936   2.110   6.079   2.403  0.2412 -0.9781 -0.8420
 7247TIP3    H245937   2.029   5.951   2.405 -1.2725 -0.0289  0.3953
 7248TIP3   OH245938   1.264   6.084   2.281  0.2723  0.2437 -0.0513
 7248TIP3    H145939   1.191   6.026   2.263 -0.7456  2.0255 -2.1358
 7248TIP3    H245940   1.252   6.111   2.372 -1.5826  0.3151 -0.2835
 7249TIP3   OH245941   5.387   4.542   2.216 -0.0139  0.4808 -0.2084
 7249TIP3    H145942   5.411   4.470   2.275 -0.2380  0.6273  0.0646
 7249TIP3    H245943   5.297   4.563   2.240 -0.4315 -0.0690 -1.2253
 7250TIP3   OH245944   5.922   6.345   2.321  0.1993 -0.3020 -0.7273
 7250TIP3    H145945   5.846   6.395   2.291  0.4786  0.9526  0.5070
 7250TIP3    H245946   5.980   6.411   2.359  1.1479 -1.4354 -0.1352
 7251TIP3   OH245947   2.581   6.233   2.252 -0.9210 -0.0586 -0.0533
 7251TIP3    H145948   2.605   6.145   2.222 -2.4947 -1.1632  1.6620
 7251TIP3    H245949   2.536   6.272   2.177 -0.2241 -0.7229 -0.8401
 7252TIP3   OH245950   4.859   4.582   0.989  0.0487  0.2913  0.1264
 7252TIP3    H145951   4.845   4.541   1.074  1.9738 -0.3623  0.1817
 7252TIP3    H245952   4.852   4.510   0.926 -4.0604  1.1702 -0.6762
 7253TIP3   OH245953   1.232   1.816   2.179 -0.1361 -0.5408 -0.0508
 7253TIP3    H145954   1.210   1.896   2.132  0.2781 -0.6634 -0.4564
 7253TIP3    H245955   1.278   1.845   2.258 -0.3796 -0.3602  0.0245
 7254TIP3   OH245956   4.521   4.568   2.734 -0.3284  0.1739  0.1037
 7254TIP3    H145957   4.537   4.643   2.677  2.7063 -0.5914 -0.2626
 7254TIP3    H245958   4.544   4.492   2.680  1.5171 -0.6472  1.8775
 7255TIP3   OH245959   0.353   5.531   2.923  0.7521 -0.2567  0.5304
 7255TIP3    H145960   0.280   5.588   2.950  0.4761 -1.2062  1.8538
 7255TIP3    H245961   0.428   5.590   2.916 -0.3400  0.9860 -2.0802
 7256TIP3   OH245962   2.822   5.055   1.581  0.1542  0.4779  0.7825
 7256TIP3    H145963   2.780   5.053   1.495  0.3073 -0.1371  0.7181
 7256TIP3    H245964   2.785   4.980   1.627  0.1335  0.7574  1.2309
 7257TIP3   OH245965   3.469   0.103   3.570  0.6917 -0.4616 -0.4873
 7257TIP3    H145966   3.469   0.007   3.569 -0.1541 -0.5277  1.5562
 7257TIP3    H245967   3.548   0.127   3.619 -0.0511 -0.1967  0.6185
 7258TIP3   OH245968   5.293   5.605   3.007  0.1334 -0.3295  0.3318
 7258TIP3    H145969   5.299   5.680   3.067  0.6899 -0.2330  0.1651
 7258TIP3    H245970   5.223   5.551   3.043  0.0622  0.0268  0.7356
 7259TIP3   OH245971   1.202   3.466   1.886  0.0104 -0.2671 -0.2152
 7259TIP3    H145972   1.134   3.480   1.951  0.6432  1.0038  0.1890
 7259TIP3    H245973   1.159   3.486   1.802 -0.2849 -0.1135 -0.0296
 7260TIP3   OH245974   3.045   4.429   3.294 -0.4736  0.0732  0.1905
 7260TIP3    H145975   3.019   4.363   3.229  3.6933 -0.3845 -1.3773
 7260TIP3    H245976   3.066   4.506   3.242  0.7036  0.4887  1.2272
 7261TIP3   OH245977   3.861   4.577   3.668  0.3733  0.3719 -0.2764
 7261TIP3    H145978   3.923   4.571   3.740  0.9880  0.1954 -0.8115
 7261TIP3    H245979   3.831   4.487   3.654 -0.3117  0.5081  0.2311
 7262TIP3   OH245980   5.116   1.603   1.873  0.3051  0.3729  0.5497
 7262TIP3    H145981   5.037   1.599   1.927 -0.5535 -0.1749 -0.6930
 7262TIP3    H245982   5.173   1.666   1.917 -1.0478  1.1822  1.1826
 7263TIP3   OH245983   0.479   1.759   1.819  0.2957 -0.3223  0.0927
 7263TIP3    H145984   0.463   1.837   1.872  0.8708 -0.1790  0.0640
 7263TIP3    H245985   0.397   1.709   1.823  0.6645 -0.8551  2.0269
 7264TIP3   OH245986   0.486   4.218   3.133  0.2360 -0.4129  0.4413
 7264TIP3    H145987   0.403   4.265   3.117  1.1306  1.1086  0.0253
 7264TIP3    H245988   0.553   4.286   3.127  1.6666 -1.8407 -0.5876
 7265TIP3   OH245989   2.226   1.267  11.402 -0.7063  0.3859  0.1809
 7265TIP3    H145990   2.236   1.190  11.459 -0.4650 -1.2604 -1.9280
 7265TIP3    H245991   2.190   1.335  11.458  0.2864 -0.8644  2.4631
 7266TIP3   OH245992   0.535   2.658   3.611  0.3673 -0.2237  0.2082
 7266TIP3    H145993   0.452   2.682   3.569  0.6371 -1.2032 -0.9214
 7266TIP3    H245994   0.522   2.568   3.640  0.4350  0.2051  1.6427
 7267TIP3   OH245995   6.160   0.187   3.489  0.4490  0.1539 -1.0213
 7267TIP3    H145996   6.208   0.151   3.415  2.0954  1.8422 -0.8557
 7267TIP3    H245997   6.222   0.248   3.530  0.3473 -1.9971  2.8610
 7268TIP3   OH245998   1.876   6.171   3.368  0.3833 -0.4512 -0.0122
 7268TIP3    H145999   1.829   6.192   3.287 -0.2900  1.5105  0.8439
 7268TIP3    H246000   1.830   6.094   3.402 -2.4862  1.5018  0.9053
 7269TIP3   OH246001   3.775   2.184   1.088  0.0806 -0.3540  0.3894
 7269TIP3    H146002   3.690   2.170   1.130  0.3138 -0.3504  0.8576
 7269TIP3    H246003   3.815   2.097   1.086  0.1671 -0.3137  0.3833
 7270TIP3   OH246004   4.742   6.570   1.581 -0.4262  0.0865  0.5248
 7270TIP3    H146005   4.829   6.602   1.608 -1.4440  1.7330  2.1077
 7270TIP3    H246006   4.755   6.477   1.565  1.5642  0.2133  1.0628
 7271TIP3   OH246007   2.174   0.961   3.636 -0.7207 -0.1347  0.1131
 7271TIP3    H146008   2.151   0.958   3.729 -0.6904  0.4876  0.1460
 7271TIP3    H246009   2.257   1.009   3.634 -1.4910  1.2321 -0.3627
 7272TIP3   OH246010   0.910   1.644   3.892 -0.1017 -0.2597  0.1549
 7272TIP3    H146011   0.821   1.675   3.877  0.4264  1.0008 -0.4503
 7272TIP3    H246012   0.964   1.723   3.892  1.1551 -1.0868 -0.4672
 7273TIP3   OH246013   5.989   1.780   1.358  0.3591  0.1268 -0.0121
 7273TIP3    H146014   5.953   1.710   1.413  0.0292  0.4917  0.2428
 7273TIP3    H246015   6.025   1.734   1.282  0.4945 -0.3531  0.3322
 7274TIP3   OH246016   4.445   1.414   1.656  0.7950  0.2736  0.0134
 7274TIP3    H146017   4.489   1.470   1.593  0.6900  0.5719  0.2057
 7274TIP3    H246018   4.467   1.325   1.628  0.9024  0.4080 -0.3305
 7275TIP3   OH246019   3.787   0.173   2.020  0.1078  0.3039  0.3498
 7275TIP3    H146020   3.742   0.181   1.936 -1.4033 -0.5438  1.0460
 7275TIP3    H246021   3.877   0.149   1.997 -0.2117  0.3624 -1.0245
 7276TIP3   OH246022   4.853   1.845   2.223 -0.3113  0.2622  0.6648
 7276TIP3    H146023   4.789   1.786   2.263 -0.4850 -0.2540 -0.3665
 7276TIP3    H246024   4.810   1.878   2.145  0.7622 -0.2736 -0.1756
 7277TIP3   OH246025   5.325   0.106   2.471  0.2720  0.3397 -0.5751
 7277TIP3    H146026   5.239   0.120   2.511  0.7566 -0.3027  0.7210
 7277TIP3    H246027   5.316   0.141   2.382 -1.5508 -0.4073 -0.7158
 7278TIP3   OH246028   0.472   1.079   2.196  0.5780 -0.4015 -0.2598
 7278TIP3    H146029   0.479   1.127   2.278 -0.0063 -0.4205 -0.1964
 7278TIP3    H246030   0.389   1.108   2.158  1.8977  1.4271 -2.0012
 7279TIP3   OH246031   1.007   6.273   2.761 -0.2988  0.3483 -0.1216
 7279TIP3    H146032   1.000   6.280   2.666 -2.0372  2.3352  0.0815
 7279TIP3    H246033   0.928   6.315   2.794 -0.7596 -2.0614  2.2059
 7280TIP3   OH246034   2.700   0.482   1.402 -0.4271  0.1050 -0.2048
 7280TIP3    H146035   2.669   0.463   1.491  0.8051  0.8984  0.4212
 7280TIP3    H246036   2.620   0.499   1.352 -1.2353 -1.6787  0.4047
 7281TIP3   OH246037   5.596   4.418   0.594  0.1408  0.2364 -0.0885
 7281TIP3    H146038   5.586   4.497   0.541  0.4894 -0.7419 -1.6808
 7281TIP3    H246039   5.688   4.420   0.622 -0.2733  1.2279  1.3321
 7282TIP3   OH246040   0.721   1.012   4.208 -0.5730  0.0060  0.5408
 7282TIP3    H146041   0.728   0.916   4.209 -0.9000 -0.0909 -1.3670
 7282TIP3    H246042   0.631   1.029   4.180 -0.1664  0.8285 -0.3276
 7283TIP3   OH246043   4.075   1.674   0.519 -0.0914 -0.1690  0.6145
 7283TIP3    H146044   4.116   1.639   0.598  1.2028  0.9075  0.4436
 7283TIP3    H246045   4.021   1.602   0.486  1.8687 -1.7572  0.6958
 7284TIP3   OH246046   2.986   1.488   2.250  0.1985  0.4273 -0.3133
 7284TIP3    H146047   3.040   1.412   2.229  0.3421  0.9924 -2.0981
 7284TIP3    H246048   2.939   1.463   2.330  2.0897 -0.5686  0.5404
 7285TIP3   OH246049   2.705   0.388   1.150  0.2785 -0.8108 -0.4137
 7285TIP3    H146050   2.731   0.480   1.140 -0.0997 -0.8785 -2.4546
 7285TIP3    H246051   2.738   0.363   1.237 -1.9495  1.9873  1.4432
 7286TIP3   OH246052   5.606   6.493   3.913  0.4760 -0.0520  0.0683
 7286TIP3    H146053   5.534   6.499   3.851  0.8391  0.2170 -0.3385
 7286TIP3    H246054   5.571   6.527   3.995 -0.9805 -3.2508  0.9333
 7287TIP3   OH246055   6.096   3.917   3.050  0.0700 -0.0469  0.2999
 7287TIP3    H146056   6.083   3.835   3.003  1.7118  0.5257 -1.2642
 7287TIP3    H246057   6.078   3.895   3.142 -2.2650 -1.4296 -0.4039
 7288TIP3   OH246058   1.320   0.118   0.776 -0.2119 -0.0698 -0.0924
 7288TIP3    H146059   1.298   0.139   0.866  0.3549 -0.8165  0.2313
 7288TIP3    H246060   1.253   0.055   0.749 -0.1957 -0.0885 -0.0886
 7289TIP3   OH246061   2.073   4.470   1.075 -0.3097 -0.3358  0.1593
 7289TIP3    H146062   1.998   4.412   1.086 -0.7496  0.5729  2.8843
 7289TIP3    H246063   2.085   4.510   1.162 -0.1906  3.8125 -1.5396
 7290TIP3   OH246064   3.280   1.476   2.512  0.1248 -0.7695  0.0096
 7290TIP3    H146065   3.325   1.439   2.436 -0.7776 -2.5268  0.2840
 7290TIP3    H246066   3.213   1.533   2.475  0.5783 -0.5340 -0.4630
 7291TIP3   OH246067   4.568   3.163   0.983  0.0481 -0.1314 -0.6363
 7291TIP3    H146068   4.572   3.207   0.897  0.2052 -0.1065 -0.6179
 7291TIP3    H246069   4.482   3.122   0.985 -0.7730  1.5010 -0.0121
 7292TIP3   OH246070   0.269   4.472   0.698 -0.1578 -0.3153 -0.1896
 7292TIP3    H146071   0.211   4.412   0.651  0.2188  0.1506 -1.3033
 7292TIP3    H246072   0.266   4.442   0.789 -1.9781 -0.4281 -0.2356
 7293TIP3   OH246073   6.608   5.543   1.646 -0.2194 -0.4200  0.0575
 7293TIP3    H146074   6.689   5.544   1.697 -2.0232 -0.2114  3.1656
 7293TIP3    H246075   6.568   5.628   1.662 -1.5156 -0.8724 -0.6218
 7294TIP3   OH246076   5.551   0.829   2.829 -0.3915  0.1978  1.0145
 7294TIP3    H146077   5.569   0.740   2.798  0.3704  0.9117 -0.7404
 7294TIP3    H246078   5.634   0.860   2.864 -1.1400 -0.4383  3.5436
 7295TIP3   OH246079   1.539   2.778   0.641  0.0961  0.7739 -0.0851
 7295TIP3    H146080   1.571   2.862   0.610  0.4821  0.8133  0.3991
 7295TIP3    H246081   1.461   2.760   0.589 -0.2595  1.6494  0.1397
 7296TIP3   OH246082   5.935   1.842   3.880 -0.4992 -0.0874 -0.4282
 7296TIP3    H146083   5.844   1.854   3.908  0.1407  0.4572  1.6692
 7296TIP3    H246084   5.976   1.795   3.954  0.9386 -0.2522 -1.2984
 7297TIP3   OH246085   2.487   4.775   1.292 -0.2203  0.6465 -0.1037
 7297TIP3    H146086   2.448   4.862   1.304  1.4360  1.2983  0.9897
 7297TIP3    H246087   2.412   4.716   1.286 -1.3847  1.9656  0.6855
 7298TIP3   OH246088   0.464   3.326   2.496 -0.3884 -0.2132 -0.2843
 7298TIP3    H146089   0.414   3.356   2.572  0.7578 -1.1576  0.8748
 7298TIP3    H246090   0.413   3.357   2.421 -0.8740  1.9074  0.8255
 7299TIP3   OH246091   2.224   1.067   4.289  0.2804 -0.0928 -0.3649
 7299TIP3    H146092   2.131   1.061   4.312  0.6990 -1.6426  1.1729
 7299TIP3    H246093   2.231   1.017   4.208 -0.1531 -0.4972 -0.1622
 7300TIP3   OH246094   6.502   1.045   2.836 -0.1386 -0.4822 -0.0437
 7300TIP3    H146095   6.584   1.092   2.823  1.0681 -2.4156  0.2002
 7300TIP3    H246096   6.470   1.028   2.747 -0.6319  0.8126 -0.1323
 7301TIP3   OH246097   6.363   5.113   4.507  0.2949 -0.2130 -0.2843
 7301TIP3    H146098   6.458   5.126   4.508  0.3057 -0.2755  0.4871
 7301TIP3    H246099   6.327   5.200   4.491  0.4159  0.5965  3.1114
 7302TIP3   OH246100   3.352   2.230   2.471  0.8869  1.0285  0.1952
 7302TIP3    H146101   3.394   2.151   2.506 -0.9042  0.1848  0.5727
 7302TIP3    H246102   3.424   2.291   2.456  2.4097 -0.8700 -0.6726
 7303TIP3   OH246103   4.691   0.820   0.659  0.4900 -0.5560 -0.2238
 7303TIP3    H146104   4.757   0.817   0.728  1.2240  1.3508 -0.7825
 7303TIP3    H246105   4.731   0.775   0.585  0.9545  0.0675 -0.3648
 7304TIP3   OH246106   2.352   0.499   4.381 -0.0047  0.2316 -0.4982
 7304TIP3    H146107   2.303   0.559   4.323  0.5578  0.9893 -0.2088
 7304TIP3    H246108   2.429   0.549   4.407  0.1256 -0.3769  0.3207
 7305TIP3   OH246109   0.080   5.718   2.418 -0.3305 -0.3702  0.0780
 7305TIP3    H146110   0.169   5.690   2.434  0.2745  1.3016 -0.1098
 7305TIP3    H246111   0.088   5.787   2.352 -1.7306 -0.0745  0.1773
 7306TIP3   OH246112   5.412   5.114   1.505 -0.5556  0.8461  0.3260
 7306TIP3    H146113   5.344   5.092   1.441  0.2230  1.1032 -0.6302
 7306TIP3    H246114   5.484   5.054   1.484 -0.3269  0.8581  1.0492
 7307TIP3   OH246115   3.267   6.213   1.453  0.0419 -0.2879  0.0263
 7307TIP3    H146116   3.298   6.123   1.466  0.7589 -0.0499  0.0147
 7307TIP3    H246117   3.184   6.217   1.500 -0.0594 -0.9973 -0.0905
 7308TIP3   OH246118   0.855   2.594   2.508  0.1693 -0.0114 -0.0377
 7308TIP3    H146119   0.844   2.683   2.476  0.1294  0.3627  0.9565
 7308TIP3    H246120   0.903   2.604   2.590  1.5609 -1.0501 -0.6918
 7309TIP3   OH246121   0.594   5.479   3.197 -0.3247  0.3568  0.0509
 7309TIP3    H146122   0.636   5.564   3.184 -2.1989  1.0898 -1.9201
 7309TIP3    H246123   0.590   5.440   3.110 -0.0016 -1.5414  0.8336
 7310TIP3   OH246124   3.342   5.386   0.610  0.4719  0.5320  0.4123
 7310TIP3    H146125   3.282   5.333   0.663  0.2765 -0.4673 -0.7765
 7310TIP3    H246126   3.288   5.419   0.538  1.1277  0.3549 -0.1748
 7311TIP3   OH246127   3.777   0.118   0.595 -0.1644 -0.0267  0.1699
 7311TIP3    H146128   3.685   0.132   0.571  0.2925 -0.0793 -1.7939
 7311TIP3    H246129   3.788   0.023   0.594  0.0088 -0.0057 -0.0605
 7312TIP3   OH246130   0.337   5.715   3.712 -0.6895 -0.2862  0.0066
 7312TIP3    H146131   0.255   5.763   3.700  0.6495  1.9066 -0.9441
 7312TIP3    H246132   0.382   5.760   3.783  0.8842  0.3763 -1.3249
 7313TIP3   OH246133   4.462   5.717   2.755 -0.6454  0.2242  0.5872
 7313TIP3    H146134   4.376   5.721   2.797 -0.7184 -1.0350  0.5773
 7313TIP3    H246135   4.505   5.798   2.783 -1.3683  0.2786  1.6100
 7314TIP3   OH246136   3.345   5.374   2.464  0.5413  0.0785  0.4410
 7314TIP3    H146137   3.335   5.281   2.488  1.0203  0.1357  0.8848
 7314TIP3    H246138   3.319   5.378   2.372 -0.5808 -0.2894  0.7249
 7315TIP3   OH246139   5.002   0.249   2.957 -0.3182 -0.2699  0.5911
 7315TIP3    H146140   5.085   0.293   2.976 -0.3725 -0.7606  2.1377
 7315TIP3    H246141   4.961   0.302   2.889  2.1025 -1.0892 -1.6713
 7316TIP3   OH246142   3.658   5.940   1.357 -0.0297 -0.7224 -0.2232
 7316TIP3    H146143   3.746   5.941   1.320  0.5788 -0.7495  1.1780
 7316TIP3    H246144   3.668   5.974   1.446 -1.3587 -1.1646  0.1264
 7317TIP3   OH246145   4.610   0.484   3.620 -0.0546  0.9237 -0.1040
 7317TIP3    H146146   4.591   0.523   3.534  0.5418  2.1851  0.3240
 7317TIP3    H246147   4.698   0.513   3.641 -0.1113  0.4385  0.8454
 7318TIP3   OH246148   1.013   6.422   2.311 -0.4388  0.3338 -0.0370
 7318TIP3    H146149   1.065   6.351   2.273 -0.3307 -0.0513  0.8066
 7318TIP3    H246150   1.036   6.498   2.259 -0.6144 -0.2608 -1.0102
 7319TIP3   OH246151   1.125   4.904   4.250 -0.2307  0.1756 -0.4590
 7319TIP3    H146152   1.213   4.895   4.213  0.5746  0.4114  1.3162
 7319TIP3    H246153   1.134   4.873   4.340 -2.0752 -0.1954 -0.3765
 7320TIP3   OH246154   0.498   4.419   1.114 -0.0740  0.2178 -0.1140
 7320TIP3    H146155   0.587   4.383   1.118 -0.6249 -1.5515 -1.8081
 7320TIP3    H246156   0.504   4.491   1.052  0.1657 -0.0550 -0.4146
 7321TIP3   OH246157   5.706   5.418   4.497  0.1538 -0.4135 -0.4285
 7321TIP3    H146158   5.780   5.450   4.446  0.4497  0.3767  0.4788
 7321TIP3    H246159   5.641   5.392   4.431  0.4539  0.7414 -1.2101
 7322TIP3   OH246160   2.486   1.877   2.133  0.4160 -0.5148 -0.3355
 7322TIP3    H146161   2.541   1.819   2.081  0.6603  0.0422 -0.7087
 7322TIP3    H246162   2.524   1.964   2.120 -0.6002 -0.1106 -0.6748
 7323TIP3   OH246163   1.064   1.584   0.730 -0.3938 -0.1784  0.1443
 7323TIP3    H146164   1.118   1.655   0.766 -0.7588 -0.4932  1.3649
 7323TIP3    H246165   1.031   1.618   0.647 -1.2820  1.4476  1.1077
 7324TIP3   OH246166   6.319   1.717   3.929 -0.0284  0.8003  0.1157
 7324TIP3    H146167   6.374   1.786   3.891  3.0549  0.4423  3.3940
 7324TIP3    H246168   6.364   1.636   3.908  0.1124  0.3870  1.8371
 7325TIP3   OH246169   2.025   0.595   1.015  0.1464  0.0605 -0.1717
 7325TIP3    H146170   2.044   0.642   1.096  1.1968  0.9517 -0.9100
 7325TIP3    H246171   2.027   0.502   1.040  0.3811  0.3212  0.8241
 7326TIP3   OH246172   5.807   1.227   1.389 -1.1011  0.5513 -0.0475
 7326TIP3    H146173   5.811   1.279   1.309 -0.9296  1.8802  0.7948
 7326TIP3    H246174   5.761   1.148   1.363 -1.6145  1.2285 -1.3149
 7327TIP3   OH246175   4.995   0.132   3.865  0.5546  0.6128 -0.9672
 7327TIP3    H146176   5.079   0.161   3.900 -0.2143  1.3787  0.3067
 7327TIP3    H246177   4.980   0.189   3.789  1.6996 -0.3057 -1.9290
 7328TIP3   OH246178   4.138   4.719   2.613 -0.6075 -0.2733 -0.0273
 7328TIP3    H146179   4.183   4.760   2.539 -0.6833 -0.6961 -0.3063
 7328TIP3    H246180   4.195   4.736   2.688 -1.4087  1.7779  0.1826
 7329TIP3   OH246181   1.572   5.476   0.691  0.4045  0.1151 -0.2789
 7329TIP3    H146182   1.588   5.514   0.777 -1.7289  0.6333 -0.0673
 7329TIP3    H246183   1.580   5.382   0.704  1.4871  0.2590  0.1526
 7330TIP3   OH246184   0.193   0.564   3.134  0.8450  0.8510 -0.4598
 7330TIP3    H146185   0.201   0.603   3.047 -0.7685 -0.4571 -1.2461
 7330TIP3    H246186   0.133   0.622   3.181  0.9663  1.0431 -0.5393
 7331TIP3   OH246187   0.391   3.375   0.779  0.5032 -0.1301  0.0364
 7331TIP3    H146188   0.397   3.455   0.728  0.5643 -0.1601 -0.0026
 7331TIP3    H246189   0.481   3.342   0.785  0.8275  0.9327  1.8548
 7332TIP3   OH246190   4.949   2.324   2.236 -0.8372 -0.1518 -0.4266
 7332TIP3    H146191   5.023   2.295   2.182 -0.2653 -0.1815  0.3560
 7332TIP3    H246192   4.871   2.303   2.183 -0.3329 -0.9812 -0.8636
 7333TIP3   OH246193   0.126   3.239   1.835 -0.1137 -0.2384  0.3481
 7333TIP3    H146194   0.112   3.261   1.926 -0.2807 -1.2992  0.5903
 7333TIP3    H246195   0.112   3.321   1.788  1.8225  0.7834  1.4309
 7334TIP3   OH246196   6.593   0.245   1.388 -0.1072 -0.4672 -0.0647
 7334TIP3    H146197   6.633   0.200   1.462 -0.4975 -0.4330  0.1685
 7334TIP3    H246198   6.634   0.332   1.388 -1.4600  0.2032  1.2686
 7335TIP3   OH246199   6.141   3.305   2.024  0.0682 -0.1542  0.1707
 7335TIP3    H146200   6.136   3.380   1.965 -0.1539 -0.4592 -0.2039
 7335TIP3    H246201   6.203   3.245   1.982  0.4806 -0.0506  0.6212
 7336TIP3   OH246202   4.609   2.210   1.178  0.1959  0.1371  0.0119
 7336TIP3    H146203   4.585   2.173   1.094  0.6934  1.7158 -0.8781
 7336TIP3    H246204   4.532   2.198   1.233 -0.4047 -0.2499 -0.9038
 7337TIP3   OH246205   4.451   6.485   3.769  0.1529  0.4509  0.1784
 7337TIP3    H146206   4.438   6.416   3.703  1.5411  1.6378 -1.4209
 7337TIP3    H246207   4.430   6.443   3.852  0.3634 -1.7246 -0.8054
 7338TIP3   OH246208   4.165   2.047   2.680  0.6047 -0.1543  0.3869
 7338TIP3    H146209   4.091   2.106   2.694  0.7205  0.2834 -0.7150
 7338TIP3    H246210   4.242   2.102   2.694  0.7302  0.3422 -1.8639
 7339TIP3   OH246211   5.939   5.053   2.051 -0.3770 -0.4105 -0.2291
 7339TIP3    H146212   5.934   4.982   2.116 -0.7661  0.0869  0.2997
 7339TIP3    H246213   6.000   5.115   2.089 -2.1268  0.8540  0.6591
 7340TIP3   OH246214   4.593   4.546   0.845 -0.4777 -0.0928 -0.4244
 7340TIP3    H146215   4.647   4.468   0.833  0.2910  0.1728  1.0313
 7340TIP3    H246216   4.548   4.531   0.929 -2.1930 -0.0228 -1.2830
 7341TIP3   OH246217   4.512   2.662   1.258 -0.2972 -0.2262 -0.3750
 7341TIP3    H146218   4.503   2.571   1.287 -1.5140  0.3271  1.1383
 7341TIP3    H246219   4.455   2.711   1.317  0.7928  1.5999 -0.7642
 7342TIP3   OH246220   2.777   0.578   2.823 -0.0481 -0.3153  0.1635
 7342TIP3    H146221   2.795   0.485   2.810  0.0244 -0.2818  0.0238
 7342TIP3    H246222   2.682   0.583   2.832 -0.4631 -0.0424 -3.0658
 7343TIP3   OH246223   5.261   4.317   2.497  0.0153  0.0825  0.5167
 7343TIP3    H146224   5.299   4.256   2.433  0.4595 -0.6715  1.4698
 7343TIP3    H246225   5.168   4.293   2.501  0.0723 -0.1530  0.4620
 7344TIP3   OH246226   5.306   2.662   1.807 -0.3916  0.3391  0.1384
 7344TIP3    H146227   5.279   2.754   1.800 -0.2865  0.2321 -2.2395
 7344TIP3    H246228   5.383   2.664   1.863 -1.6365  1.3925  1.9487
 7345TIP3   OH246229   0.009   6.231   3.043  0.1238  0.0767  0.1548
 7345TIP3    H146230  -0.056   6.227   3.113 -0.2529  1.6035 -0.0831
 7345TIP3    H246231  -0.040   6.259   2.966  0.9686  0.7870 -0.1385
 7346TIP3   OH246232   4.151   2.986   1.506 -0.1577 -0.4373  0.1367
 7346TIP3    H146233   4.073   2.974   1.451  0.9397  0.9151 -1.8374
 7346TIP3    H246234   4.141   3.073   1.543  0.3138 -0.3243  0.0080
 7347TIP3   OH246235   1.196   0.288   1.474  0.3635  0.4920 -0.6141
 7347TIP3    H146236   1.246   0.342   1.413 -0.0265  1.1275 -0.3862
 7347TIP3    H246237   1.198   0.338   1.556 -1.2340  0.8873 -0.7814
 7348TIP3   OH246238   0.445   2.142   1.261 -0.1314 -0.4101 -0.6317
 7348TIP3    H146239   0.394   2.223   1.266 -0.1951 -0.3662 -1.6957
 7348TIP3    H246240   0.384   2.078   1.224 -0.0114 -0.8879 -0.0203
 7349TIP3   OH246241   5.136   0.765   2.632 -0.2115  0.0166 -0.0508
 7349TIP3    H146242   5.152   0.832   2.699 -2.7357  0.2749  0.3898
 7349TIP3    H246243   5.101   0.814   2.558 -0.7535 -0.6732 -0.2564
 7350TIP3   OH246244   6.358   4.466   2.176 -0.4757 -0.2459 -0.1701
 7350TIP3    H146245   6.291   4.407   2.209 -1.8479  1.0413 -0.5463
 7350TIP3    H246246   6.426   4.465   2.243 -1.8272 -0.0003  1.2590
 7351TIP3   OH246247   2.808   3.898   1.259 -0.7278 -0.0928 -0.2617
 7351TIP3    H146248   2.783   3.920   1.349 -0.5308 -0.5809 -0.0820
 7351TIP3    H246249   2.791   3.804   1.252 -1.4933  0.0890 -0.9903
 7352TIP3   OH246250   5.869   6.180   3.462 -0.2837 -0.1562  0.2900
 7352TIP3    H146251   5.936   6.195   3.529  0.0464 -3.0292  0.7137
 7352TIP3    H246252   5.919   6.161   3.383 -0.6611  0.3526 -0.0777
 7353TIP3   OH246253   6.373   2.227   3.301 -0.0797  0.0042 -0.5931
 7353TIP3    H146254   6.334   2.306   3.263 -2.2109  0.0203  1.3611
 7353TIP3    H246255   6.464   2.250   3.317 -0.2278  1.4552 -1.6400
 7354TIP3   OH246256   1.160   3.570   2.401  0.2281 -0.1665  0.3219
 7354TIP3    H146257   1.165   3.518   2.481 -0.0656 -1.4012 -0.4357
 7354TIP3    H246258   1.250   3.571   2.367 -0.0078 -1.3971 -0.3909
 7355TIP3   OH246259   5.914   5.434   4.317 -0.4882  0.2012  0.0506
 7355TIP3    H146260   5.987   5.429   4.378 -0.6154  0.3400  0.2192
 7355TIP3    H246261   5.925   5.360   4.258 -1.4356 -1.1052  1.4383
 7356TIP3   OH246262   2.908   6.568   3.738 -0.2623 -0.4219  0.8808
 7356TIP3    H146263   2.836   6.583   3.800 -0.1320 -1.2780  1.2528
 7356TIP3    H246264   2.987   6.565   3.793 -0.1540 -1.2460  0.6925
 7357TIP3   OH246265   3.518   1.771   2.633 -0.5126 -0.0502 -0.1446
 7357TIP3    H146266   3.481   1.722   2.706 -0.3194  0.5341  0.3497
 7357TIP3    H246267   3.583   1.712   2.595 -2.0987 -1.2117 -1.2067
 7358TIP3   OH246268   1.988   1.902   0.541 -0.0275  0.0087 -0.0031
 7358TIP3    H146269   2.035   1.953   0.607  2.1229  0.0502 -1.4898
 7358TIP3    H246270   1.984   1.814   0.577 -1.5970  0.6316  1.4880
 7359TIP3   OH246271   4.874   3.405   2.473  0.0002 -0.2642  0.4864
 7359TIP3    H146272   4.952   3.460   2.468  0.9460 -1.5828  0.0644
 7359TIP3    H246273   4.816   3.438   2.405 -0.1915  1.2732  1.3626
 7360TIP3   OH246274   0.759   6.296   3.017  0.1086 -0.4143 -0.3299
 7360TIP3    H146275   0.677   6.257   3.048  0.1516 -0.9329 -0.8511
 7360TIP3    H246276   0.734   6.345   2.939  0.3607 -0.8901 -0.7089
 7361TIP3   OH246277   4.837   4.710   0.564 -0.0812  0.5554 -0.2913
 7361TIP3    H146278   4.924   4.703   0.603  0.4636  1.1458 -1.3441
 7361TIP3    H246279   4.813   4.802   0.576 -0.1761  0.5954 -0.7700
 7362TIP3   OH246280   5.896   4.079   2.536 -0.0617 -0.1616 -0.5981
 7362TIP3    H146281   5.807   4.089   2.569 -0.1920 -1.7204 -0.3936
 7362TIP3    H246282   5.901   3.987   2.509  2.2142 -0.8293  1.6903
 7363TIP3   OH246283   6.209   5.433   1.965 -0.0080  0.5263 -0.0751
 7363TIP3    H146284   6.227   5.362   1.902  0.9352 -0.5398  1.3202
 7363TIP3    H246285   6.123   5.466   1.940 -0.1405 -0.6033 -1.2368
 7364TIP3   OH246286   1.145   4.884   1.566 -0.0621 -0.2583 -0.2540
 7364TIP3    H146287   1.149   4.789   1.576  0.3644 -0.2405 -0.2390
 7364TIP3    H246288   1.055   4.907   1.588  0.0732 -0.5618  0.6552
 7365TIP3   OH246289   1.054   0.082   2.205  0.0293  0.1161  0.1403
 7365TIP3    H146290   1.017   0.169   2.189 -0.0652  0.1741  0.6500
 7365TIP3    H246291   1.127   0.075   2.144 -0.2314  0.3820 -0.2087
 7366TIP3   OH246292   1.414   4.348   4.002 -0.0638 -0.1221 -0.2650
 7366TIP3    H146293   1.378   4.278   4.057 -0.9767  0.5375 -0.0048
 7366TIP3    H246294   1.508   4.328   3.996 -0.2890 -1.2884 -0.0858
 7367TIP3   OH246295   3.473   1.271   3.181  0.0689  0.3740 -0.0715
 7367TIP3    H146296   3.527   1.206   3.227  1.1481 -0.1407 -1.9568
 7367TIP3    H246297   3.536   1.332   3.144 -0.7353  0.6651 -1.0084
 7368TIP3   OH246298   1.623   2.579   2.617  0.6262  0.4669 -0.2468
 7368TIP3    H146299   1.549   2.575   2.677 -0.3632  2.8142 -1.1747
 7368TIP3    H246300   1.695   2.538   2.665 -0.5537  0.6513  1.8180
 7369TIP3   OH246301   1.010   1.866   2.367 -0.3143  0.4715  0.2247
 7369TIP3    H146302   1.092   1.870   2.416 -0.1332 -1.6997  0.1865
 7369TIP3    H246303   1.035   1.830   2.282 -1.2600  0.0227  0.1242
 7370TIP3   OH246304   3.947   5.798   2.366 -0.3668  0.0184  0.1851
 7370TIP3    H146305   3.960   5.769   2.276  1.6437  1.2526  0.0074
 7370TIP3    H246306   3.963   5.720   2.419 -0.5480 -0.4756 -0.4690
 7371TIP3   OH246307   4.898   1.508   2.564  0.0485  0.2117  0.0980
 7371TIP3    H146308   4.830   1.535   2.626  0.0743 -0.7169  0.5438
 7371TIP3    H246309   4.969   1.475   2.618  0.1391 -0.4577 -0.4132
 7372TIP3   OH246310   6.431   6.292   1.603 -0.3072 -0.2685 -0.2962
 7372TIP3    H146311   6.385   6.363   1.558  0.0901  1.0110  1.2178
 7372TIP3    H246312   6.424   6.217   1.544  1.8560  1.7620 -3.4779
 7373TIP3   OH246313   6.612   5.042   2.296  0.3844 -0.2909  0.7550
 7373TIP3    H146314   6.587   5.127   2.261 -0.4150 -0.2493  1.3982
 7373TIP3    H246315   6.529   5.001   2.320  0.8915 -0.3107  2.5904
 7374TIP3   OH246316   1.532   1.699   1.168 -0.2428  0.0573 -0.1302
 7374TIP3    H146317   1.504   1.789   1.186 -1.2405 -0.1448 -0.6336
 7374TIP3    H246318   1.568   1.702   1.079  2.3022  0.5112  0.8239
 7375TIP3   OH246319   5.008   0.768   0.541 -0.5074  0.2440  0.0384
 7375TIP3    H146320   4.933   0.713   0.520  0.1728 -1.1411  1.1230
 7375TIP3    H246321   4.994   0.794   0.632  0.5387 -0.4312  0.4136
 7376TIP3   OH246322   5.654   4.069   4.364 -0.0485  0.0023  0.1111
 7376TIP3    H146323   5.576   4.087   4.311  0.6773  2.0378 -0.3764
 7376TIP3    H246324   5.624   4.076   4.454 -0.4704  0.7418 -0.0727
 7377TIP3   OH246325   5.760   3.158   2.364 -0.3655 -0.4085  0.1011
 7377TIP3    H146326   5.737   3.229   2.424  1.1483 -0.1939  0.4588
 7377TIP3    H246327   5.708   3.176   2.286 -0.8049  0.4812  0.5779
 7378TIP3   OH246328   1.843   4.973   3.558  0.1753  0.1981  0.4905
 7378TIP3    H146329   1.843   5.040   3.626  2.6085  0.1691  0.6143
 7378TIP3    H246330   1.836   4.890   3.605 -1.1484  0.2768  0.4580
 7379TIP3   OH246331   1.189   4.052   4.393 -0.2643  0.2281  0.5104
 7379TIP3    H146332   1.110   4.086   4.350 -1.2566 -0.7096  1.5230
 7379TIP3    H246333   1.175   3.957   4.397  0.5639  0.1301  1.3676
 7380TIP3   OH246334   4.902   6.032   1.586 -0.4389 -0.0685 -0.1983
 7380TIP3    H146335   4.935   5.942   1.591 -0.2095  0.0719  1.0932
 7380TIP3    H246336   4.979   6.087   1.602 -0.7966  0.3261  0.2043
 7381TIP3   OH246337   5.654   2.300   3.254  0.1092 -0.5341 -0.3985
 7381TIP3    H146338   5.708   2.300   3.174 -0.4288  0.0489 -0.7676
 7381TIP3    H246339   5.600   2.221   3.246 -0.0035 -0.4311 -0.6499
 7382TIP3   OH246340   0.823   4.017   4.045 -0.2290  0.3130  0.8550
 7382TIP3    H146341   0.776   3.933   4.043  0.7216 -0.2275 -0.1859
 7382TIP3    H246342   0.848   4.028   4.137 -1.7393  0.2617  1.2938
 7383TIP3   OH246343   1.820   1.097   0.673  0.7145  0.1010  0.1046
 7383TIP3    H146344   1.851   1.006   0.674 -0.6882 -0.4044  0.3096
 7383TIP3    H246345   1.797   1.114   0.765 -0.8607 -0.0249 -0.2385
 7384TIP3   OH246346   4.183   6.123   1.212  0.7445 -0.2743 -0.6639
 7384TIP3    H146347   4.180   6.210   1.173  1.8827  0.3528  0.5480
 7384TIP3    H246348   4.255   6.079   1.166 -0.3888 -0.9182 -1.8801
 7385TIP3   OH246349   0.858   5.871   1.370 -0.3828 -0.2293 -0.5675
 7385TIP3    H146350   0.866   5.958   1.409 -0.3977 -0.7090  0.5533
 7385TIP3    H246351   0.893   5.881   1.282 -1.7995  1.2669 -1.0121
 7386TIP3   OH246352   0.606   4.564   3.297 -0.5807 -0.5419 -0.1848
 7386TIP3    H146353   0.551   4.557   3.375 -0.8198  0.1815 -0.2808
 7386TIP3    H246354   0.562   4.630   3.243  0.3749  0.0445 -0.2633
 7387TIP3   OH246355   0.849   3.575   1.687 -0.7361 -0.4567 -0.1836
 7387TIP3    H146356   0.837   3.580   1.782  0.7312  1.0941 -0.0285
 7387TIP3    H246357   0.907   3.500   1.675  0.5128  0.3948  0.3413
 7388TIP3   OH246358   2.269   0.068   1.345 -0.1149  0.2248 -0.0615
 7388TIP3    H146359   2.240   0.158   1.331  0.0461  0.5887  1.6599
 7388TIP3    H246360   2.282   0.033   1.257 -2.2629  1.1752 -0.8377
 7389TIP3   OH246361   2.170   3.487   2.316  0.6819  0.9216 -0.3290
 7389TIP3    H146362   2.102   3.422   2.300  1.5454  0.1295 -0.8911
 7389TIP3    H246363   2.196   3.473   2.407  0.3792  0.9634 -0.2341
 7390TIP3   OH246364   5.107   1.220   2.426  0.2124 -0.4995  0.0914
 7390TIP3    H146365   5.083   1.141   2.380  1.0828 -0.6939 -0.0527
 7390TIP3    H246366   5.099   1.290   2.361  1.6228 -0.7980 -0.4525
 7391TIP3   OH246367   1.112   4.871   3.038  0.1431  0.2672 -0.6476
 7391TIP3    H146368   1.134   4.804   2.973  0.6112  0.8007 -1.0492
 7391TIP3    H246369   1.065   4.823   3.107 -0.1876 -0.3386 -1.2814
 7392TIP3   OH246370   0.735   4.310   0.497  0.2764 -0.4066 -0.1924
 7392TIP3    H146371   0.702   4.268   0.577  1.1991  0.6542  0.7711
 7392TIP3    H246372   0.668   4.375   0.475  1.4420  1.4950  1.5568
 7393TIP3   OH246373   1.133   3.476   1.620  0.3151 -0.0778  0.0812
 7393TIP3    H146374   1.133   3.550   1.559 -1.6653  0.6650  0.8989
 7393TIP3    H246375   1.107   3.402   1.566  2.0335 -0.1693 -0.6846
 7394TIP3   OH246376   4.299   6.264   2.911 -0.3608 -0.0658  0.9713
 7394TIP3    H146377   4.388   6.276   2.878 -0.4599 -0.0607  0.7068
 7394TIP3    H246378   4.303   6.297   3.001 -0.5008  1.5202  0.4270
 7395TIP3   OH246379   1.357   6.328   3.745  0.5166  0.0083 -0.1136
 7395TIP3    H146380   1.414   6.395   3.784 -0.8736  2.0751 -1.4016
 7395TIP3    H246381   1.268   6.354   3.771 -0.4864  1.3077 -4.0001
 7396TIP3   OH246382   1.567   3.089   1.946  0.5782 -0.0819  0.2163
 7396TIP3    H146383   1.533   3.144   2.016 -1.6623 -0.0809 -0.7832
 7396TIP3    H246384   1.546   2.999   1.973 -0.5125 -0.0700 -0.4782
 7397TIP3   OH246385   4.459   1.158   1.969 -0.3772 -0.0907 -0.3951
 7397TIP3    H146386   4.494   1.081   1.925 -0.3502  0.1843 -0.8567
 7397TIP3    H246387   4.366   1.137   1.983 -0.7338  0.3971 -1.8899
 7398TIP3   OH246388   6.592   2.539   0.795  0.4627  0.0178  0.0146
 7398TIP3    H146389   6.619   2.535   0.887  0.1475 -3.5889  0.0824
 7398TIP3    H246390   6.674   2.550   0.747  0.9747 -0.9122  0.6334
 7399TIP3   OH246391   5.093   3.278   4.117 -0.5450  0.0009  0.7063
 7399TIP3    H146392   5.181   3.266   4.153  1.0492  2.6611 -1.8355
 7399TIP3    H246393   5.081   3.204   4.058 -0.4775 -0.9134  1.8045
 7400TIP3   OH246394   6.269   5.849   4.405  0.3617  0.4470  0.0902
 7400TIP3    H146395   6.325   5.864   4.328  2.5962  2.2359  1.8891
 7400TIP3    H246396   6.285   5.758   4.429  2.7663  0.9323  0.6225
 7401TIP3   OH246397   3.551   5.142   0.799  0.1225 -0.1649 -0.9616
 7401TIP3    H146398   3.457   5.151   0.781 -0.1054  1.1259  0.6320
 7401TIP3    H246399   3.591   5.215   0.753 -0.1460  1.5037  1.2769
 7402TIP3   OH246400   0.379   2.887   1.520  0.7132  0.1091  0.0692
 7402TIP3    H146401   0.309   2.943   1.552  2.8862  2.7729  0.5619
 7402TIP3    H246402   0.369   2.889   1.425 -0.2092 -0.0512  0.1544
 7403TIP3   OH246403   6.262   4.276   2.770  0.7472 -0.0486 -0.6717
 7403TIP3    H146404   6.285   4.233   2.853  0.3323 -0.1246 -0.5943
 7403TIP3    H246405   6.346   4.289   2.726  1.0825  0.9207  0.2117
 7404TIP3   OH246406   2.809   1.111   2.193  0.3252  0.0942  0.2579
 7404TIP3    H146407   2.756   1.048   2.243  0.5918  1.0309  1.7900
 7404TIP3    H246408   2.895   1.108   2.236  0.7798  0.4121 -0.6187
 7405TIP3   OH246409   2.015   0.333   3.417 -0.2431 -0.0893  0.3229
 7405TIP3    H146410   2.066   0.257   3.387  0.2001  0.4252 -0.2451
 7405TIP3    H246411   1.937   0.333   3.360 -0.2986 -0.1801  0.3981
 7406TIP3   OH246412   5.433   1.934   2.327  0.0686  0.0092 -0.2982
 7406TIP3    H146413   5.506   1.880   2.295 -0.0519  0.9778 -2.4020
 7406TIP3    H246414   5.387   1.879   2.390  1.2259 -1.5054 -0.7324
 7407TIP3   OH246415   2.796   2.643   1.226  0.6792  0.5598 -0.4557
 7407TIP3    H146416   2.810   2.737   1.214  2.2479  0.4851  0.4590
 7407TIP3    H246417   2.882   2.604   1.213  0.4074 -0.5574  0.8508
 7408TIP3   OH246418   6.268   1.877   3.274 -0.5366 -0.4171 -0.7349
 7408TIP3    H146419   6.221   1.907   3.197  2.1633  1.1975 -1.8876
 7408TIP3    H246420   6.348   1.837   3.240 -0.0129 -1.1569  1.1930
 7409TIP3   OH246421   3.343   0.328   2.922  0.6073 -0.1117  0.2997
 7409TIP3    H146422   3.366   0.366   3.007  0.8015  1.0723 -0.2657
 7409TIP3    H246423   3.272   0.267   2.942  0.0139  0.8371  1.2002
 7410TIP3   OH246424   1.123   3.340   2.141 -0.0963 -0.1724 -0.3675
 7410TIP3    H146425   1.166   3.288   2.208  0.7142 -1.6468 -1.9549
 7410TIP3    H246426   1.041   3.368   2.181  0.3597 -0.9933  1.2134
 7411TIP3   OH246427   6.611   0.722   3.952 -0.1573 -0.6916 -0.2484
 7411TIP3    H146428   6.555   0.671   4.010  0.0248 -2.1054 -1.2561
 7411TIP3    H246429   6.645   0.658   3.889 -0.7757  0.8290 -2.2474
 7412TIP3   OH246430   2.228   4.854   4.372 -0.3218 -0.2291 -0.2703
 7412TIP3    H146431   2.221   4.805   4.290 -0.3584 -0.2431 -0.2590
 7412TIP3    H246432   2.175   4.932   4.358  0.4208  0.2268 -0.5940
 7413TIP3   OH246433   1.502   2.112   2.274 -0.1115  0.3317 -0.3522
 7413TIP3    H146434   1.545   2.039   2.320  1.5349  0.8248 -1.0537
 7413TIP3    H246435   1.523   2.189   2.327 -2.3091  0.2892  0.6966
 7414TIP3   OH246436   0.999   5.732   0.485  0.4044  0.4512 -0.1864
 7414TIP3    H146437   1.019   5.787   0.410 -1.8289  2.8470  0.8309
 7414TIP3    H246438   1.027   5.784   0.561 -3.0060  0.9636  0.8868
 7415TIP3   OH246439   5.889   2.621   1.010 -0.2134  0.4175  0.7701
 7415TIP3    H146440   5.820   2.663   0.959 -0.5719  0.0722  0.9629
 7415TIP3    H246441   5.879   2.657   1.098 -0.3165  0.1652  0.8611
 7416TIP3   OH246442   4.447   1.659   0.589  0.4844 -0.4921  0.1027
 7416TIP3    H146443   4.361   1.621   0.570  0.4544 -0.7503  0.7378
 7416TIP3    H246444   4.495   1.588   0.632  0.3063  0.2765  1.6531
 7417TIP3   OH246445   4.879   2.170   2.464  0.1333  0.2926  0.3188
 7417TIP3    H146446   4.904   2.214   2.383 -0.1400 -0.5270 -0.2273
 7417TIP3    H246447   4.914   2.225   2.534 -0.8645  1.7883 -0.3179
 7418TIP3   OH246448   3.496   0.680   3.018  0.2420  0.2031 -0.2208
 7418TIP3    H146449   3.457   0.718   3.097 -0.8949  1.2863 -1.2611
 7418TIP3    H246450   3.484   0.747   2.951  0.2993 -1.0880 -1.5667
 7419TIP3   OH246451   2.463   4.694   3.449 -0.1518 -0.1863  0.6264
 7419TIP3    H146452   2.404   4.686   3.374  1.3116 -0.4541 -0.5432
 7419TIP3    H246453   2.516   4.771   3.429  0.0538 -0.0792  1.5497
 7420TIP3   OH246454   2.592   3.189   0.782  0.3165  0.0673 -0.0495
 7420TIP3    H146455   2.521   3.205   0.844  1.0288  0.0782  0.7749
 7420TIP3    H246456   2.621   3.276   0.756  1.1430  0.1006  0.9216
 7421TIP3   OH246457   6.341   5.803   0.807  0.1583 -0.3761  0.1097
 7421TIP3    H146458   6.437   5.804   0.805  0.1956  0.2970  1.2484
 7421TIP3    H246459   6.315   5.806   0.715  1.2166 -2.3753 -0.3131
 7422TIP3   OH246460   3.387   3.209   2.315 -0.1538 -0.0193  0.4015
 7422TIP3    H146461   3.399   3.121   2.350  0.3661 -0.2653 -0.3872
 7422TIP3    H246462   3.396   3.199   2.220 -2.9315  0.3988  0.0059
 7423TIP3   OH246463   3.880   6.275   2.896 -0.2157 -0.1741  0.0917
 7423TIP3    H146464   3.806   6.312   2.848  1.7221  1.7157 -1.6985
 7423TIP3    H246465   3.915   6.349   2.946  1.7496 -0.3359 -0.9164
 7424TIP3   OH246466   0.924   6.593   1.131 -0.2268 -0.6337  0.2316
 7424TIP3    H146467   0.881   6.598   1.217  1.7530 -1.1493  1.2960
 7424TIP3    H246468   0.868   6.533   1.080 -1.6622  0.0180  0.9780
 7425TIP3   OH246469   1.304   1.174   3.508  0.4003 -0.2730 -0.0228
 7425TIP3    H146470   1.330   1.086   3.534  0.6412 -0.4945 -0.9957
 7425TIP3    H246471   1.363   1.196   3.435  0.2369  0.6273  0.1005
 7426TIP3   OH246472   5.148   0.961   0.401 -0.3637 -0.2152 -1.1602
 7426TIP3    H146473   5.081   1.027   0.416 -0.8291 -0.7810 -0.6959
 7426TIP3    H246474   5.102   0.877   0.412  0.2944 -0.6094 -1.3741
 7427TIP3   OH246475   0.115   1.760   2.403 -0.1533 -0.3174 -0.5798
 7427TIP3    H146476   0.176   1.828   2.374 -0.9190  0.9696  0.7053
 7427TIP3    H246477   0.061   1.742   2.326 -0.6771  1.3713 -0.6455
 7428TIP3   OH246478   3.374   5.715   2.075  0.5845  0.0622 -0.6537
 7428TIP3    H146479   3.424   5.669   2.142  2.0740  1.5191 -0.7034
 7428TIP3    H246480   3.335   5.645   2.022  0.9317 -1.1109  0.5654
 7429TIP3   OH246481   1.056   1.442   3.783 -0.1214  0.6049  0.2922
 7429TIP3    H146482   1.008   1.516   3.822 -1.8917  0.0460 -0.7016
 7429TIP3    H246483   1.107   1.482   3.712  0.4081  1.1126  0.9349
 7430TIP3   OH246484   3.265   4.601   2.334  0.1723 -0.1891  0.3241
 7430TIP3    H146485   3.178   4.572   2.305 -0.6296  0.1596  2.2085
 7430TIP3    H246486   3.300   4.650   2.260 -0.8910 -1.0028 -0.7689
 7431TIP3   OH246487   4.177   0.721   4.344 -0.4011 -0.4238  0.0714
 7431TIP3    H146488   4.223   0.803   4.329  0.4581 -0.9577 -0.2337
 7431TIP3    H246489   4.084   0.744   4.333 -0.0736 -0.0132 -2.6717
 7432TIP3   OH246490   3.347   1.774   2.381  0.5663 -0.1947 -0.1281
 7432TIP3    H146491   3.398   1.750   2.459  0.9292  2.0258  0.3669
 7432TIP3    H246492   3.257   1.751   2.403  0.9905 -2.1170 -0.1688
 7433TIP3   OH246493   5.830   3.649   4.069  0.1835  0.2345  0.7815
 7433TIP3    H146494   5.797   3.708   4.001 -1.0372  1.2132  2.1644
 7433TIP3    H246495   5.903   3.697   4.108  1.3243 -0.6127 -0.2289
 7434TIP3   OH246496   4.031   5.357   1.571  0.3451  0.3835 -0.1289
 7434TIP3    H146497   3.952   5.304   1.568  0.9098 -0.7819  2.6393
 7434TIP3    H246498   4.093   5.312   1.513  0.0030 -0.5187  0.1924
 7435TIP3   OH246499   6.041   6.459   3.992 -0.4791 -0.0796  0.0081
 7435TIP3    H146500   6.044   6.368   3.963 -0.9544 -0.0558 -0.1199
 7435TIP3    H246501   5.986   6.503   3.927 -1.1680  0.0685  0.6764
 7436TIP3   OH246502   5.938   6.053   4.796 -0.4171 -0.1414  0.2813
 7436TIP3    H146503   5.949   5.999   4.718  0.6537 -0.5687  0.7141
 7436TIP3    H246504   5.953   6.143   4.766  2.1338 -0.4679  0.3465
 7437TIP3   OH246505   0.654   4.941   3.178 -0.0109 -0.0946  0.2762
 7437TIP3    H146506   0.733   4.921   3.228 -0.2415 -2.0808 -0.0674
 7437TIP3    H246507   0.597   4.987   3.240  0.5233 -0.6721  1.2177
 7438TIP3   OH246508   5.798   1.158   2.659  0.2489  0.4036  0.7829
 7438TIP3    H146509   5.766   1.110   2.583  0.5946 -1.6890  1.8985
 7438TIP3    H246510   5.879   1.199   2.629 -0.6779  1.3943 -0.5363
 7439TIP3   OH246511   5.100   6.005   2.992 -0.3354  0.1473 -0.8029
 7439TIP3    H146512   5.153   5.956   2.929 -2.1492 -0.3596 -2.0344
 7439TIP3    H246513   5.041   5.940   3.029  0.7885  0.4145  1.6140
 7440TIP3   OH246514   1.578   4.157   0.662 -0.5574 -0.3710  0.3016
 7440TIP3    H146515   1.622   4.141   0.579 -1.1048 -1.5302  0.2163
 7440TIP3    H246516   1.648   4.160   0.727 -0.1103  0.7380 -0.2065
 7441TIP3   OH246517   2.590   1.028   1.539 -0.2374 -0.6026 -0.2435
 7441TIP3    H146518   2.592   0.978   1.458  0.1580 -1.4179  0.2572
 7441TIP3    H246519   2.680   1.056   1.553  0.0771 -2.0628  0.8694
 7442TIP3   OH246520   2.849   4.649   1.932  0.0848 -0.0348 -0.0449
 7442TIP3    H146521   2.785   4.692   1.989  0.5527 -1.4482  1.6349
 7442TIP3    H246522   2.835   4.689   1.846 -1.4691  1.3254  0.7821
 7443TIP3   OH246523   5.217   5.111   3.043 -0.0499  0.5672 -0.4179
 7443TIP3    H146524   5.249   5.026   3.012 -1.6825 -0.7518  1.2295
 7443TIP3    H246525   5.278   5.136   3.112 -0.5177 -0.2025  0.3069
 7444TIP3   OH246526   3.311   2.367   0.755  0.0628 -0.3479 -0.0393
 7444TIP3    H146527   3.303   2.444   0.812 -2.1457  0.3636 -1.1660
 7444TIP3    H246528   3.401   2.337   0.767  0.2699  0.9464  2.2780
 7445TIP3   OH246529   5.453   6.300   1.116  0.5085  0.5050 -0.0369
 7445TIP3    H146530   5.392   6.368   1.145 -0.7047  0.2578 -1.8109
 7445TIP3    H246531   5.397   6.226   1.094  1.5511 -0.0910 -0.7673
 7446TIP3   OH246532   1.350   5.922   1.267 -0.1126  0.4274  0.3561
 7446TIP3    H146533   1.386   5.918   1.355  1.4383 -0.9024 -0.2944
 7446TIP3    H246534   1.318   5.834   1.249 -0.7352  0.7710 -0.2858
 7447TIP3   OH246535   2.376   3.249   2.984  0.0075  0.4263 -0.3849
 7447TIP3    H146536   2.289   3.245   3.023  0.1044  1.5829  0.0019
 7447TIP3    H246537   2.433   3.274   3.057  0.7299 -0.6404 -0.5608
 7448TIP3   OH246538   4.339   5.542   1.866 -0.2844 -0.1269 -0.2682
 7448TIP3    H146539   4.381   5.507   1.788 -1.6261 -0.7288 -0.7537
 7448TIP3    H246540   4.259   5.490   1.876 -1.1510  1.2571  0.3466
 7449TIP3   OH246541   1.058   0.354   2.668  0.4031 -0.3205 -0.0030
 7449TIP3    H146542   1.032   0.361   2.576 -2.1241  2.8936  0.7746
 7449TIP3    H246543   1.154   0.361   2.666  0.4032 -0.1497 -2.3457
 7450TIP3   OH246544   2.399   4.434   3.122 -0.4087  0.1856  0.6843
 7450TIP3    H146545   2.315   4.479   3.123 -0.1616  1.0485 -3.2099
 7450TIP3    H246546   2.463   4.502   3.139 -0.3231  0.1913  0.3395
 7451TIP3   OH246547   6.333   2.628   3.385  0.4426 -0.5905  0.6143
 7451TIP3    H146548   6.279   2.693   3.342 -0.0615  0.4662  2.7243
 7451TIP3    H246549   6.384   2.588   3.314 -0.5687  0.7972 -0.9593
 7452TIP3   OH246550   0.762   2.994   2.822  0.2509 -0.1895  0.7042
 7452TIP3    H146551   0.825   2.923   2.823  0.0686 -0.3595  2.1848
 7452TIP3    H246552   0.677   2.951   2.812  0.3100  0.0310 -1.1652
 7453TIP3   OH246553   2.149   1.076   1.647 -0.2405 -0.3993 -0.1231
 7453TIP3    H146554   2.136   1.125   1.728  0.7310  1.4037 -0.9966
 7453TIP3    H246555   2.225   1.021   1.664  1.6354  1.8857 -0.5495
 7454TIP3   OH246556   4.088   4.779   1.487 -0.6634 -0.4085  0.2419
 7454TIP3    H146557   4.003   4.808   1.451 -0.1683 -0.0547 -0.6867
 7454TIP3    H246558   4.105   4.696   1.442  0.7299  0.8212 -1.6592
 7455TIP3   OH246559   3.315   4.704   3.781  0.2052  0.1418  0.3460
 7455TIP3    H146560   3.300   4.611   3.762  0.0839  0.5177 -1.6163
 7455TIP3    H246561   3.227   4.741   3.792 -0.0211  0.6859 -2.5828
 7456TIP3   OH246562   1.649   2.550   2.979  0.4291 -0.0519 -0.2005
 7456TIP3    H146563   1.720   2.602   2.940 -1.1022  1.7199 -0.7802
 7456TIP3    H246564   1.653   2.466   2.934  0.6569  0.8825 -1.9971
 7457TIP3   OH246565   6.129   0.682   2.402  0.3070  0.1674 -0.2909
 7457TIP3    H146566   6.094   0.673   2.313  1.2404 -1.0771 -0.5707
 7457TIP3    H246567   6.125   0.776   2.420 -1.8520  0.2268 -0.8117
 7458TIP3   OH246568   4.531   4.201   2.317  0.3116 -0.2254  0.1512
 7458TIP3    H146569   4.528   4.236   2.228  1.4016  2.3939  1.0441
 7458TIP3    H246570   4.510   4.276   2.373 -0.5336 -1.8388  2.1199
 7459TIP3   OH246571   5.690   5.631   1.136  0.0200  0.1070 -0.1050
 7459TIP3    H146572   5.665   5.644   1.228  2.2698  1.3033  0.4136
 7459TIP3    H246573   5.687   5.718   1.098  0.6586 -0.1321 -0.7225
 7460TIP3   OH246574   4.314   4.954   1.848 -0.2059  0.1594 -0.0298
 7460TIP3    H146575   4.379   4.983   1.912  1.4898 -0.6333 -1.3134
 7460TIP3    H246576   4.251   4.903   1.899  0.9722 -0.2520  1.0513
 7461TIP3   OH246577   5.794   4.514   1.598  0.6314 -0.1350  0.0361
 7461TIP3    H146578   5.704   4.494   1.575  0.7280 -1.0179  0.4093
 7461TIP3    H246579   5.788   4.551   1.686  0.5270  0.8872 -0.3827
 7462TIP3   OH246580   5.165   6.470   2.544  0.3032 -0.1301 -0.2090
 7462TIP3    H146581   5.213   6.389   2.564  1.3151 -0.0760 -2.1990
 7462TIP3    H246582   5.215   6.510   2.473 -1.1372  1.4101 -0.3967
 7463TIP3   OH246583   4.714   6.476   3.249  0.5378  0.1164  0.3049
 7463TIP3    H146584   4.731   6.469   3.155  1.3823  1.4562  0.3365
 7463TIP3    H246585   4.660   6.399   3.269 -0.7772  0.4972 -1.5168
 7464TIP3   OH246586   2.449   0.216   1.689  0.0743  0.4935 -0.0092
 7464TIP3    H146587   2.394   0.156   1.639  0.0227  1.1900 -0.8128
 7464TIP3    H246588   2.509   0.159   1.738 -0.1016 -0.2159 -0.6064
 7465TIP3   OH246589   3.144   0.488   2.796 -0.1084  0.8656  0.0250
 7465TIP3    H146590   3.226   0.441   2.807  0.6329  2.2378  0.6342
 7465TIP3    H246591   3.148   0.524   2.708 -0.0423  0.9394  0.0575
 7466TIP3   OH246592   5.991   5.895   3.502  0.0391 -0.6304  0.9689
 7466TIP3    H146593   5.969   5.805   3.528  0.7925 -0.9406  0.5637
 7466TIP3    H246594   5.928   5.915   3.432 -0.2139 -0.7993  1.1475
 7467TIP3   OH246595   0.983   2.241   2.293 -0.0817  0.3305 -0.3862
 7467TIP3    H146596   0.905   2.295   2.308 -0.1650  0.0059  0.3894
 7467TIP3    H246597   1.045   2.300   2.251 -0.6212  0.6883 -0.7009
 7468TIP3   OH246598   6.081   5.765   0.916 -0.5081 -0.1682  0.2075
 7468TIP3    H146599   6.168   5.780   0.879  0.0481 -1.7456  0.7923
 7468TIP3    H246600   6.031   5.725   0.845 -0.3322 -0.5090  0.2728
 7469TIP3   OH246601   5.244   0.583   2.238 -0.7033 -0.6017 -0.0079
 7469TIP3    H146602   5.303   0.568   2.164  1.4376 -0.8245  1.6720
 7469TIP3    H246603   5.166   0.622   2.198  0.3524 -0.7461 -2.3792
 7470TIP3   OH246604   5.374   4.669   2.518  0.4283 -0.7731 -0.5192
 7470TIP3    H146605   5.330   4.626   2.592 -0.1006  0.8654  0.1478
 7470TIP3    H246606   5.423   4.741   2.557  0.2540  0.0397 -1.7500
 7471TIP3   OH246607   5.311   0.352   2.651 -0.4454 -0.4406 -0.0270
 7471TIP3    H146608   5.226   0.390   2.628 -0.2487  0.0345  0.0198
 7471TIP3    H246609   5.290   0.268   2.691 -0.7745 -1.7905 -2.8151
 7472TIP3   OH246610   2.882   2.037   1.915  0.0517 -0.1110 -0.4259
 7472TIP3    H146611   2.831   2.060   1.837  0.5600  1.0683 -0.4320
 7472TIP3    H246612   2.913   1.948   1.898  0.9823  0.4720 -2.0251
 7473TIP3   OH246613   0.432   6.385   1.486  0.3249  0.1943  0.3873
 7473TIP3    H146614   0.341   6.357   1.491  0.5979 -0.7464  0.2524
 7473TIP3    H246615   0.472   6.351   1.566  0.8282 -0.4286 -0.1231
 7474TIP3   OH246616   5.136   3.518   2.477 -0.1951 -0.0097  0.7077
 7474TIP3    H146617   5.102   3.603   2.506 -0.6109 -0.7352  2.4511
 7474TIP3    H246618   5.207   3.541   2.416 -0.5663  1.5768  0.8120
 7475TIP3   OH246619   6.166   1.568   1.705  1.0406  0.3916 -0.0830
 7475TIP3    H146620   6.145   1.558   1.612  0.9198  0.6730 -0.0887
 7475TIP3    H246621   6.084   1.550   1.750  1.7415 -2.7324  0.1857
 7476TIP3   OH246622   5.956   3.297   1.003  0.3771  0.1030 -0.1314
 7476TIP3    H146623   5.880   3.245   1.027 -2.0250  3.4233  0.1621
 7476TIP3    H246624   6.008   3.302   1.082  0.9107 -2.0649 -0.2817
 7477TIP3   OH246625   6.140   2.015   1.361  0.1898 -0.3253 -0.8972
 7477TIP3    H146626   6.108   2.053   1.279 -2.1134 -0.4324 -0.1228
 7477TIP3    H246627   6.107   1.926   1.362 -1.1589  0.1222  0.7730
 7478TIP3   OH246628   6.334   2.519   2.681 -0.8484 -0.2593  0.2674
 7478TIP3    H146629   6.382   2.600   2.665  0.2190 -0.8272  0.5012
 7478TIP3    H246630   6.318   2.519   2.776 -1.0505 -0.2180  0.2341
 7479TIP3   OH246631   4.552   2.789   9.480 -0.5403  0.4215  0.3363
 7479TIP3    H146632   4.573   2.701   9.448  0.1750  1.2099 -1.4999
 7479TIP3    H246633   4.491   2.825   9.415 -0.4308  1.4628  0.7854
 7480TIP3   OH246634   2.079   5.517   0.798  0.1070 -0.1538 -0.2627
 7480TIP3    H146635   2.132   5.472   0.732 -0.5879 -0.4033 -0.6522
 7480TIP3    H246636   2.017   5.452   0.829  0.0520  0.1244  0.2409
 7481TIP3   OH246637   1.871   1.453   1.362  0.9179  0.4877  0.3426
 7481TIP3    H146638   1.959   1.488   1.377  0.5284  1.4544  0.4396
 7481TIP3    H246639   1.836   1.435   1.449  1.4683 -1.0998  0.2693
 7482TIP3   OH246640   2.601   0.069   1.884 -0.5726  0.0042 -0.0054
 7482TIP3    H146641   2.635   0.142   1.936 -0.3337  1.5353 -2.1423
 7482TIP3    H246642   2.678   0.016   1.864 -0.1753  0.8823 -0.9321
 7483TIP3   OH246643   6.407   1.279   1.082  0.4886  0.4040 -0.4818
 7483TIP3    H146644   6.495   1.240   1.086  0.1687 -0.2631  0.6841
 7483TIP3    H246645   6.378   1.263   0.993  1.1861 -0.2249 -0.6136
 7484TIP3   OH246646   0.561   0.212   4.103 -0.0992 -0.0044 -0.4620
 7484TIP3    H146647   0.509   0.140   4.068  0.8231 -0.7306 -0.3938
 7484TIP3    H246648   0.501   0.286   4.107 -1.0474 -0.7494 -0.6121
 7485TIP3   OH246649   2.059   2.503   0.975  0.3146  0.6283 -0.7058
 7485TIP3    H146650   2.069   2.565   1.047  0.0345 -0.0168 -0.0872
 7485TIP3    H246651   1.965   2.500   0.958  0.2738  0.0497 -0.4193
 7486TIP3   OH246652   4.888   2.200   3.124  0.3885 -0.2939  0.1244
 7486TIP3    H146653   4.968   2.241   3.091 -0.2209  0.8625  0.0362
 7486TIP3    H246654   4.856   2.261   3.191 -0.5709 -0.5948 -0.0481
 7487TIP3   OH246655   4.738   2.815   2.373 -0.2828  0.0267 -0.1682
 7487TIP3    H146656   4.823   2.785   2.341 -0.5600 -2.4256  1.1567
 7487TIP3    H246657   4.687   2.734   2.385 -2.1613  1.2857  0.8350
 7488TIP3   OH246658   3.242   1.195   1.188 -0.2266 -0.2241  0.4649
 7488TIP3    H146659   3.214   1.134   1.120 -0.4469  1.5719 -1.1395
 7488TIP3    H246660   3.198   1.278   1.165  3.0754  1.6386  0.2199
 7489TIP3   OH246661   1.359   3.709   1.164  0.2242 -0.0223 -0.7483
 7489TIP3    H146662   1.427   3.713   1.231  1.3574 -2.0866 -1.6496
 7489TIP3    H246663   1.310   3.629   1.184  0.0927 -0.2623 -1.9068
 7490TIP3   OH246664   5.400   5.433   2.603 -0.1048  0.4166  0.4047
 7490TIP3    H146665   5.343   5.487   2.658 -1.7370 -0.2063 -0.6240
 7490TIP3    H246666   5.464   5.495   2.567 -1.1430  1.4391  0.2612
 7491TIP3   OH246667   0.246   3.669   1.515  0.0230  0.9857 -0.0970
 7491TIP3    H146668   0.276   3.589   1.472 -0.8464  0.2848  0.5816
 7491TIP3    H246669   0.319   3.731   1.504  0.9722 -0.0999 -0.0472
 7492TIP3   OH246670   4.772   0.825   2.831 -0.6145  0.2358  0.5338
 7492TIP3    H146671   4.728   0.745   2.860  1.4486 -1.1362  0.0407
 7492TIP3    H246672   4.863   0.813   2.857 -0.1343  2.1921 -0.0802
 7493TIP3   OH246673   3.115   4.509   1.890  0.3157  1.1403 -0.3160
 7493TIP3    H146674   3.185   4.574   1.905 -0.2667  1.3951  1.6598
 7493TIP3    H246675   3.059   4.549   1.824 -0.6604  3.2855  1.6413
 7494TIP3   OH246676   0.661   5.324   4.309  0.1091  0.0459 -0.8212
 7494TIP3    H146677   0.608   5.276   4.246 -1.2643 -0.5428  0.7063
 7494TIP3    H246678   0.713   5.257   4.353 -0.4910  0.1590  0.0902
 7495TIP3   OH246679   4.966   3.592   2.932 -0.3653  0.2194  0.1384
 7495TIP3    H146680   4.988   3.545   2.852  0.0813  2.2761 -1.0210
 7495TIP3    H246681   5.000   3.681   2.919 -2.9224  1.5069  1.3074
 7496TIP3   OH246682   3.885   5.301   2.019  0.0939  0.4459 -0.2935
 7496TIP3    H146683   3.801   5.344   2.004  0.6046  1.8472  0.6105
 7496TIP3    H246684   3.924   5.350   2.093  1.2137 -0.8664  0.0250
 7497TIP3   OH246685   3.476   3.900   1.277  0.0642 -0.3296  0.0851
 7497TIP3    H146686   3.522   3.855   1.348 -0.0568  0.5662  0.7584
 7497TIP3    H246687   3.520   3.871   1.197  1.3051 -0.1007  0.6590
 7498TIP3   OH246688   2.700   5.602   1.576 -0.8780  1.0080 -0.2351
 7498TIP3    H146689   2.795   5.597   1.565 -0.7990  0.5790  0.5632
 7498TIP3    H246690   2.665   5.565   1.495 -0.3488 -0.2403  0.0919
 7499TIP3   OH246691   5.008   6.337   3.453  0.1367  0.0747 -0.2329
 7499TIP3    H146692   5.084   6.312   3.400 -0.4275 -1.1608 -0.4861
 7499TIP3    H246693   4.945   6.267   3.439 -0.9102  0.8904  0.2866
 7500TIP3   OH246694   5.737   4.601   2.827  0.3525  0.3182 -0.0061
 7500TIP3    H146695   5.802   4.535   2.851  1.3200  0.6748 -1.4949
 7500TIP3    H246696   5.658   4.550   2.807  0.4772 -0.2101  0.7775
 7501TIP3   OH246697   6.301   1.735   1.128  0.1403  0.1756  0.3133
 7501TIP3    H146698   6.329   1.788   1.054 -1.2120  2.4612  1.3192
 7501TIP3    H246699   6.368   1.751   1.195  0.1239 -0.0071  0.3740
 7502TIP3   OH246700   3.471   6.440   3.579  0.4697  0.1636  0.1640
 7502TIP3    H146701   3.402   6.385   3.616  1.3151 -1.8465 -1.0845
 7502TIP3    H246702   3.457   6.436   3.484  0.3025  2.5119  0.0319
 7503TIP3   OH246703   4.114   3.215   1.643  0.3471  0.5672 -0.2074
 7503TIP3    H146704   4.094   3.253   1.728 -0.7241 -0.5726  0.0706
 7503TIP3    H246705   4.205   3.242   1.626  0.9089  0.0312  1.7110
 7504TIP3   OH246706   2.755   0.713   1.672  0.2537 -0.0938  0.5416
 7504TIP3    H146707   2.807   0.643   1.632  0.6761 -0.3329  1.4726
 7504TIP3    H246708   2.664   0.689   1.653  0.4369  1.5036 -3.0631
 7505TIP3   OH246709   2.726   6.595   2.664 -0.0223 -0.1584 -0.0218
 7505TIP3    H146710   2.755   6.506   2.642 -1.7222 -1.3267  2.0313
 7505TIP3    H246711   2.803   6.637   2.702  0.9346 -0.5570 -1.4522
 7506TIP3   OH246712   6.313   2.889   1.767 -0.3395  0.2000 -0.4095
 7506TIP3    H146713   6.321   2.811   1.822 -0.0628 -1.6895 -2.9450
 7506TIP3    H246714   6.219   2.897   1.751 -0.2573 -0.4967 -1.2932
 7507TIP3   OH246715   3.528   0.607   3.553 -0.3042  0.2948  0.0175
 7507TIP3    H146716   3.445   0.645   3.525 -0.2220  0.9893  0.6852
 7507TIP3    H246717   3.579   0.681   3.586  0.1267 -0.2924  0.7089
 7508TIP3   OH246718   5.378   3.313   3.003 -0.2752  0.1753 -0.0809
 7508TIP3    H146719   5.381   3.408   3.012  1.6285  0.3941 -2.0875
 7508TIP3    H246720   5.469   3.287   2.991 -0.8698 -1.7567 -0.8069
 7509TIP3   OH246721   0.158   6.328   1.537 -0.4122 -0.1837  0.0947
 7509TIP3    H146722   0.149   6.242   1.578 -0.2813  0.2405  1.0425
 7509TIP3    H246723   0.090   6.329   1.469  0.5824 -1.6004 -0.9756
 7510TIP3   OH246724   1.764   0.842   2.702 -0.3896  0.3103 -0.6508
 7510TIP3    H146725   1.766   0.889   2.785  1.1572  0.2849 -0.6490
 7510TIP3    H246726   1.742   0.752   2.727  0.3417  0.2406 -0.2285
 7511TIP3   OH246727   3.437   5.233   2.820 -0.6927  0.4344 -0.6060
 7511TIP3    H146728   3.384   5.303   2.780 -1.0522  0.3109 -0.3463
 7511TIP3    H246729   3.411   5.233   2.912 -1.9759 -1.1885 -0.9327
 7512TIP3   OH246730   1.483   3.726   3.296 -0.0086 -0.1069 -0.1867
 7512TIP3    H146731   1.472   3.750   3.388  0.2982 -2.1529  0.4479
 7512TIP3    H246732   1.442   3.797   3.247 -0.8324  0.6767  1.5531
 7513TIP3   OH246733   1.001   1.781   1.126 -0.2324 -0.0935  0.0593
 7513TIP3    H146734   0.973   1.727   1.052  1.0938 -1.1061  0.2672
 7513TIP3    H246735   0.931   1.771   1.190 -0.6098 -0.5326 -0.4080
 7514TIP3   OH246736   0.771   6.456   1.752  0.2244 -0.1749  1.1202
 7514TIP3    H146737   0.780   6.548   1.730 -2.7664 -0.2517 -1.1032
 7514TIP3    H246738   0.827   6.410   1.688 -0.3747  0.0217  0.4452
 7515TIP3   OH246739   0.252   6.267   2.019 -0.2367  0.3683  0.2542
 7515TIP3    H146740   0.296   6.186   2.043 -1.3444  0.2139  1.8759
 7515TIP3    H246741   0.160   6.244   2.011 -0.4484  1.2959 -0.1279
 7516TIP3   OH246742   6.082   3.560   1.936 -0.8501 -0.3288 -0.2771
 7516TIP3    H146743   6.137   3.612   1.994  0.1827 -1.4558 -0.1858
 7516TIP3    H246744   6.048   3.623   1.872  0.5006  0.4387 -0.2858
 7517TIP3   OH246745   4.896   1.229   3.828 -0.4307  0.2010 -0.1398
 7517TIP3    H146746   4.881   1.314   3.786  1.0639  0.2351 -0.6676
 7517TIP3    H246747   4.828   1.222   3.895 -0.3734  1.9575  0.1274
 7518TIP3   OH246748   2.693   0.625   3.416  0.0162  0.3950  0.5522
 7518TIP3    H146749   2.621   0.672   3.457  0.1618  1.4615 -0.3521
 7518TIP3    H246750   2.705   0.670   3.332 -0.9137 -2.2702 -1.1097
 7519TIP3   OH246751   3.094   3.468   1.305  0.1182 -0.4523  0.6767
 7519TIP3    H146752   3.038   3.435   1.375 -0.0116 -0.7756  0.4272
 7519TIP3    H246753   3.148   3.392   1.280  0.6031 -0.1698  0.8505
 7520TIP3   OH246754   2.747   1.603   2.666  0.3517 -0.1668 -0.0635
 7520TIP3    H146755   2.733   1.698   2.665  1.8459  0.0814 -0.4932
 7520TIP3    H246756   2.717   1.573   2.580 -1.9270 -0.4123  0.7657
 7521TIP3   OH246757   0.593   6.437   4.688 -0.1654  0.0353  0.3579
 7521TIP3    H146758   0.498   6.446   4.685 -0.1909  0.2368  1.4989
 7521TIP3    H246759   0.609   6.372   4.756  0.5048 -0.3855 -0.1809
 7522TIP3   OH246760   1.476   2.072   2.629  0.3467 -0.4145 -0.4897
 7522TIP3    H146761   1.555   2.048   2.678 -0.9607 -0.0194  1.9897
 7522TIP3    H246762   1.498   2.155   2.587  0.9384  0.2583  1.0722
 7523TIP3   OH246763   0.868   1.618   2.938  0.2875 -0.3417 -0.1162
 7523TIP3    H146764   0.795   1.608   2.999  0.7887  1.5266  0.8915
 7523TIP3    H246765   0.861   1.709   2.908  1.3062 -0.5997 -1.1877
 7524TIP3   OH246766   2.185   2.536   3.094  0.0710  0.2130 -0.2469
 7524TIP3    H146767   2.200   2.456   3.043 -0.8031 -0.1987  0.1068
 7524TIP3    H246768   2.252   2.597   3.065  0.1645 -0.3342 -1.2149
 7525TIP3   OH246769   1.827   4.323   1.084  0.4141 -1.2370 -0.1468
 7525TIP3    H146770   1.830   4.284   0.996  0.9468  0.2313 -0.8148
 7525TIP3    H246771   1.749   4.379   1.082 -0.0384 -1.8262  0.6089
 7526TIP3   OH246772   6.163   3.814   1.683 -0.1567  0.1907  0.1145
 7526TIP3    H146773   6.181   3.803   1.776  0.9405  0.0430 -0.1046
 7526TIP3    H246774   6.079   3.769   1.669  0.2320 -0.7747  0.8136
 7527TIP3   OH246775   4.913   5.980   1.054 -0.1914  0.1033  0.3541
 7527TIP3    H146776   4.975   5.999   1.124  1.2953 -0.0568 -0.8580
 7527TIP3    H246777   4.854   5.914   1.091  0.2581  0.3753  1.5880
 7528TIP3   OH246778   0.272   2.243   1.594 -0.4017 -0.3242 -0.3635
 7528TIP3    H146779   0.215   2.181   1.640 -1.5266  1.0209  0.1297
 7528TIP3    H246780   0.350   2.249   1.648  0.1299 -1.9659 -0.8897
 7529TIP3   OH246781   0.731   4.608   0.681  0.3030 -0.0409  0.1545
 7529TIP3    H146782   0.651   4.601   0.630  0.5190  1.4669 -0.4776
 7529TIP3    H246783   0.753   4.702   0.677 -0.0590  0.3173  3.6712
 7530TIP3   OH246784   0.346   5.336   4.208  0.1041 -0.0715  0.3431
 7530TIP3    H146785   0.315   5.423   4.180  0.3576 -0.9959 -3.3400
 7530TIP3    H246786   0.286   5.275   4.166  0.6028 -1.7505  1.9558
 7531TIP3   OH246787   2.759   1.628   0.667  0.6347  0.1898  0.1092
 7531TIP3    H146788   2.698   1.572   0.620  0.7344 -1.5204  1.9177
 7531TIP3    H246789   2.790   1.575   0.741  1.4812  2.2865  1.3620
 7532TIP3   OH246790   4.542   3.760   0.887 -0.3887 -0.3112  0.2505
 7532TIP3    H146791   4.581   3.757   0.800 -0.7306 -0.0597  0.0895
 7532TIP3    H246792   4.571   3.844   0.923 -0.6405 -0.2018  0.1970
 7533TIP3   OH246793   4.910   0.907   1.693  0.2094  0.3712  0.0259
 7533TIP3    H146794   4.994   0.952   1.699  1.2767 -1.2623 -1.6952
 7533TIP3    H246795   4.888   0.885   1.784  0.3350  2.9844  0.7779
 7534TIP3   OH246796   0.057   3.623   1.263  0.7077  0.1760 -0.0273
 7534TIP3    H146797   0.080   3.596   1.352 -0.7737 -0.4413  0.1949
 7534TIP3    H246798   0.044   3.717   1.268 -0.9692 -0.0799  0.7944
 7535TIP3   OH246799   4.360   0.268   3.220 -0.2692  0.9953  0.6451
 7535TIP3    H146800   4.394   0.273   3.130 -0.6142  0.6214  0.4910
 7535TIP3    H246801   4.317   0.183   3.224 -0.4206  1.0952  1.1096
 7536TIP3   OH246802   2.775   4.792   1.271 -0.4383  0.3932 -0.1214
 7536TIP3    H146803   2.770   4.752   1.358 -0.2016 -2.8173 -1.4385
 7536TIP3    H246804   2.686   4.784   1.236 -0.5600  1.7668 -0.1752
 7537TIP3   OH246805   1.464   4.030   1.887  0.4727  0.0611 -0.5430
 7537TIP3    H146806   1.387   3.974   1.898  1.6376 -1.6846 -0.9541
 7537TIP3    H246807   1.428   4.115   1.860 -1.3451 -0.4688  0.0944
 7538TIP3   OH246808   1.825   4.986   0.431 -0.0111 -0.2662 -0.7667
 7538TIP3    H146809   1.787   5.067   0.395  0.2309  0.1361 -0.1413
 7538TIP3    H246810   1.920   4.998   0.423  0.0374 -0.3162 -0.3276
 7539TIP3   OH246811   5.790   2.442   2.027  0.2061 -0.0068 -0.1189
 7539TIP3    H146812   5.805   2.371   2.089  0.5977 -0.0363 -0.2487
 7539TIP3    H246813   5.818   2.407   1.942 -0.2721  0.0528 -0.3061
 7540TIP3   OH246814   2.601   0.993   3.138  0.5054  0.1679  0.1407
 7540TIP3    H146815   2.643   1.034   3.062  0.3599 -1.2935 -0.7686
 7540TIP3    H246816   2.507   0.992   3.116  0.3566  0.4934  0.7300
 7541TIP3   OH246817   5.950   3.967   2.103  0.5220  0.0883 -0.3543
 7541TIP3    H146818   5.904   3.920   2.034  1.1881  0.1218 -0.8359
 7541TIP3    H246819   6.022   4.011   2.058  1.3643 -0.4123  0.4571
 7542TIP3   OH246820   4.157   0.123   0.878  0.5018 -0.2099 -0.3110
 7542TIP3    H146821   4.148   0.217   0.866 -0.0599 -0.3174 -0.7965
 7542TIP3    H246822   4.159   0.087   0.789 -0.2350 -0.7285 -0.1342
 7543TIP3   OH246823   1.121   0.839   1.460  0.1891  0.0123  0.0163
 7543TIP3    H146824   1.057   0.896   1.502 -0.1552 -0.2410 -0.1630
 7543TIP3    H246825   1.070   0.787   1.398  0.5200 -0.4195  0.1044
 7544TIP3   OH246826   0.902   2.557   2.148 -0.5135  0.3833 -0.1217
 7544TIP3    H146827   0.824   2.511   2.181 -1.0544  0.0036 -1.8305
 7544TIP3    H246828   0.953   2.489   2.105  1.2937  0.4467  1.7922
 7545TIP3   OH246829   2.566   3.596   3.351 -0.0991 -0.0924 -0.0177
 7545TIP3    H146830   2.636   3.531   3.344 -1.0514 -0.9829 -2.1035
 7545TIP3    H246831   2.488   3.545   3.371 -0.4946  0.6846  0.4876
 7546TIP3   OH246832   4.350   0.718   1.484 -0.5373 -0.2960 -0.1590
 7546TIP3    H146833   4.300   0.690   1.406  0.1097 -1.5698 -0.1456
 7546TIP3    H246834   4.433   0.748   1.449 -0.2899 -0.7619  0.0224
 7547TIP3   OH246835   0.079   2.629   1.431 -0.7775  0.0623 -0.2054
 7547TIP3    H146836   0.129   2.708   1.454 -1.9812  0.6054  0.6615
 7547TIP3    H246837   0.056   2.641   1.339 -1.4090  1.0049  0.0611
 7548TIP3   OH246838   4.792   3.483   1.755 -0.1454 -0.1847 -0.2921
 7548TIP3    H146839   4.738   3.410   1.724  0.4532  0.5776 -3.3930
 7548TIP3    H246840   4.881   3.448   1.757 -0.0735  0.0019 -0.2043
 7549TIP3   OH246841   0.435   6.473   2.887 -0.4190  0.2314 -0.5956
 7549TIP3    H146842   0.410   6.402   2.828  1.7171  0.9164 -2.4963
 7549TIP3    H246843   0.518   6.443   2.925 -0.3002  1.0509 -0.2054
 7550TIP3   OH246844   4.829   3.628   1.016  0.5316 -0.6507 -0.1141
 7550TIP3    H146845   4.805   3.575   1.093  0.3755 -0.3032  0.0777
 7550TIP3    H246846   4.746   3.659   0.981  0.6717  0.3418  0.3989
 7551TIP3   OH246847   4.254   3.901   3.209  0.4423 -0.1516  0.1370
 7551TIP3    H146848   4.207   3.931   3.131  0.3062 -2.2670 -0.6763
 7551TIP3    H246849   4.187   3.889   3.275  0.4430  0.8484  0.3298
 7552TIP3   OH246850   0.619   0.523   0.505  0.2293  0.3540 -0.6518
 7552TIP3    H146851   0.705   0.547   0.469  0.2937  1.4183  0.1546
 7552TIP3    H246852   0.571   0.606   0.507 -0.1413  0.1252  0.6925
 7553TIP3   OH246853   1.190   1.530   2.150  0.4045  0.4378  0.2755
 7553TIP3    H146854   1.196   1.625   2.158 -0.9271  0.5962 -0.4038
 7553TIP3    H246855   1.157   1.501   2.236 -1.4693  0.8528 -0.2573
 7554TIP3   OH246856   0.639   6.049   4.347 -0.0867  0.8181 -0.0441
 7554TIP3    H146857   0.635   5.957   4.318 -1.2280  0.5044  1.0273
 7554TIP3    H246858   0.615   6.046   4.439  4.1644  1.6858  1.3143
 7555TIP3   OH246859   6.006   2.055   1.137  0.5260  0.1105 -0.0289
 7555TIP3    H146860   6.022   1.986   1.073 -1.2052  1.1671 -1.7151
 7555TIP3    H246861   5.915   2.043   1.164  0.3644  1.3763  0.0751
 7556TIP3   OH246862   3.038   1.447   1.017  0.0398 -0.5873 -0.3310
 7556TIP3    H146863   2.963   1.476   0.966  0.8900  0.6793 -0.8978
 7556TIP3    H246864   3.031   1.351   1.017 -1.2445 -0.5108 -0.8634
 7557TIP3   OH246865   5.693   5.039   3.289 -0.0873 -0.0443  0.1751
 7557TIP3    H146866   5.642   5.004   3.362 -0.3160  0.0693  0.0705
 7557TIP3    H246867   5.780   4.999   3.299  0.6083  1.7196  1.8463
 7558TIP3   OH246868   6.569   3.892   3.457  0.0002 -0.1640  0.2677
 7558TIP3    H146869   6.587   3.897   3.551  4.7285 -3.2181 -0.1732
 7558TIP3    H246870   6.632   3.952   3.417  0.6110 -1.6125 -1.0395
 7559TIP3   OH246871   1.961   3.092   2.595 -0.2626 -0.0914 -0.1296
 7559TIP3    H146872   1.993   3.069   2.682  0.9389 -0.9648 -0.7780
 7559TIP3    H246873   1.872   3.125   2.610  0.2447  0.6388  1.5153
 7560TIP3   OH246874   1.344   4.586   0.496 -0.1890  0.1616 -0.1014
 7560TIP3    H146875   1.371   4.654   0.558  1.0612  0.1826 -0.6374
 7560TIP3    H246876   1.340   4.630   0.412 -0.7646 -0.1189 -0.2234
 7561TIP3   OH246877   4.031   2.810   2.630 -0.5897  0.5171 -0.0480
 7561TIP3    H146878   4.006   2.837   2.718 -2.0405  1.4863 -0.7089
 7561TIP3    H246879   4.126   2.797   2.635 -0.6260  0.6668  1.6141
 7562TIP3   OH246880   0.109   5.889   3.683  0.1761  0.2374 -0.2042
 7562TIP3    H146881   0.171   5.926   3.620  2.5760 -0.3633  1.6564
 7562TIP3    H246882   0.053   5.832   3.631  2.0368 -0.2040 -1.8261
 7563TIP3   OH246883   1.709   1.040   3.501 -0.1001 -0.1393 -0.6623
 7563TIP3    H146884   1.696   0.947   3.521  0.8360 -0.2008 -0.2928
 7563TIP3    H246885   1.670   1.052   3.414 -1.4046 -0.5785 -0.1605
 7564TIP3   OH246886   4.660   0.385   2.936 -0.2031 -0.1011  0.3501
 7564TIP3    H146887   4.687   0.316   2.876 -1.2135 -0.1032 -0.1171
 7564TIP3    H246888   4.646   0.341   3.020  1.9442  0.0198  0.8208
 7565TIP3   OH246889   4.412   4.178   1.883  0.2653 -0.4840  0.0192
 7565TIP3    H146890   4.446   4.158   1.796 -0.6616 -3.9152  0.2924
 7565TIP3    H246891   4.319   4.155   1.879 -1.2364  4.2962  0.5861
 7566TIP3   OH246892   6.366   4.780   2.287  0.3265  0.1398 -0.5494
 7566TIP3    H146893   6.334   4.707   2.235  0.7911 -1.7666  1.6534
 7566TIP3    H246894   6.287   4.827   2.315 -0.0680 -0.3390 -0.8595
 7567TIP3   OH246895   0.587   4.844   2.784  0.4274  0.3872 -0.7103
 7567TIP3    H146896   0.492   4.848   2.795  0.4139 -1.4403  0.2343
 7567TIP3    H246897   0.602   4.878   2.696 -1.1075  0.6350 -0.9064
 7568TIP3   OH246898   4.148   2.101   3.033  0.5412  0.4693 -0.7993
 7568TIP3    H146899   4.221   2.138   3.082 -0.9992  0.1640  1.9442
 7568TIP3    H246900   4.163   2.006   3.034  0.0636  0.3908 -0.0724
 7569TIP3   OH246901   3.746   5.974   2.337 -0.0844 -0.2723  0.1213
 7569TIP3    H146902   3.716   6.024   2.413  0.6991 -0.1354  0.3505
 7569TIP3    H246903   3.803   5.906   2.374 -1.2790 -1.4779 -0.1675
 7570TIP3   OH246904   2.552   4.494   1.540 -0.4283 -0.1402  0.2711
 7570TIP3    H146905   2.609   4.544   1.599 -0.6962 -0.6479  0.9686
 7570TIP3    H246906   2.479   4.554   1.522 -0.6701 -0.2055  0.9795
 7571TIP3   OH246907   6.414   2.281   2.599 -0.0959  0.0904 -0.4376
 7571TIP3    H146908   6.368   2.362   2.624 -1.0874 -0.1574 -1.4104
 7571TIP3    H246909   6.500   2.289   2.641 -1.4527 -0.0618  2.6102
 7572TIP3   OH246910   4.938   1.423   0.464 -0.0245 -1.0196 -0.0186
 7572TIP3    H146911   4.869   1.451   0.524  1.6144 -0.8926  1.9213
 7572TIP3    H246912   5.001   1.496   0.464 -0.2349 -0.7472 -2.4300
 7573TIP3   OH246913   6.052   4.572   3.291 -0.5290  0.3026  0.3187
 7573TIP3    H146914   6.107   4.500   3.322 -1.6386 -0.2392  1.1130
 7573TIP3    H246915   6.114   4.638   3.260  0.5373 -0.6544  0.3190
 7574TIP3   OH246916   6.367   2.032   1.495 -0.5259 -0.0434  0.6671
 7574TIP3    H146917   6.281   2.030   1.454 -1.6212  1.4179  2.7403
 7574TIP3    H246918   6.385   1.941   1.517 -1.6126 -0.3482  0.3560
 7575TIP3   OH246919   3.845   6.006   0.827  0.1450  0.1306 -0.0937
 7575TIP3    H146920   3.837   6.070   0.898 -0.5810 -1.0649  0.9293
 7575TIP3    H246921   3.771   6.025   0.769  0.9026  1.2949 -0.7202
 7576TIP3   OH246922   2.422   5.317   1.879  0.0952 -0.2731 -0.1812
 7576TIP3    H146923   2.438   5.224   1.894 -1.0716 -0.4439  0.1307
 7576TIP3    H246924   2.502   5.360   1.907  0.5035 -1.1522  0.0485
 7577TIP3   OH246925   3.855   2.194   3.657  0.3231 -0.1058 -0.3195
 7577TIP3    H146926   3.876   2.103   3.679 -0.3647 -0.1408  0.2223
 7577TIP3    H246927   3.812   2.228   3.735 -1.0306  0.1509 -1.1539
 7578TIP3   OH246928   0.948   3.574   2.241 -0.1806  0.8780 -0.2925
 7578TIP3    H146929   1.030   3.600   2.283 -0.1313  0.0322  0.1513
 7578TIP3    H246930   0.895   3.654   2.240  0.7702  1.5227 -0.9068
 7579TIP3   OH246931   4.697   6.204   3.595 -0.2244  0.3205 -0.4380
 7579TIP3    H146932   4.738   6.183   3.511 -0.0856 -0.0718 -0.2753
 7579TIP3    H246933   4.723   6.131   3.653  0.8977  1.3081  0.3569
 7580TIP3   OH246934   4.701   4.807   2.596 -0.7230 -0.3974 -0.0220
 7580TIP3    H146935   4.764   4.746   2.634  1.5941  0.7911 -1.7228
 7580TIP3    H246936   4.688   4.777   2.507  2.7116  2.8839 -1.9208
 7581TIP3   OH246937   6.297   5.751   3.407 -0.1041 -0.2249 -0.2724
 7581TIP3    H146938   6.234   5.694   3.364 -2.2884  2.9652 -1.6806
 7581TIP3    H246939   6.252   5.783   3.485  1.1241 -0.5196  0.5865
 7582TIP3   OH246940   4.712   1.877   3.435  0.4774  0.4045 -0.3557
 7582TIP3    H146941   4.738   1.969   3.432  0.5769  0.3626 -1.8578
 7582TIP3    H246942   4.616   1.879   3.434  0.4735  0.5011 -1.9611
 7583TIP3   OH246943   2.954   6.597   3.079 -0.8515 -0.1144 -0.0857
 7583TIP3    H146944   2.904   6.621   3.157  0.5186  0.7485  0.5671
 7583TIP3    H246945   3.005   6.521   3.107  0.7838  1.0904  0.4115
 7584TIP3   OH246946   4.416   6.300   1.508  0.4592  0.8814 -0.1942
 7584TIP3    H146947   4.432   6.236   1.578  1.6073  0.7586 -0.5481
 7584TIP3    H246948   4.323   6.321   1.516  0.2120 -0.3249  0.3610
 7585TIP3   OH246949   5.498   4.600   1.566 -0.0309 -0.2931 -0.6922
 7585TIP3    H146950   5.532   4.540   1.500 -1.0774 -0.0266 -1.4863
 7585TIP3    H246951   5.416   4.561   1.595 -0.1005  0.1296 -0.3047
 7586TIP3   OH246952   5.148   3.697   0.520 -0.3798  0.0181 -1.1870
 7586TIP3    H146953   5.105   3.774   0.483  0.2513  0.2224 -1.5201
 7586TIP3    H246954   5.187   3.729   0.602 -1.3800 -0.3192 -0.5675
 7587TIP3   OH246955   4.187   4.877   2.934  0.2391  0.0723 -0.9355
 7587TIP3    H146956   4.259   4.836   2.983  0.9869  1.6315 -0.6482
 7587TIP3    H246957   4.109   4.828   2.960  0.7310  0.3668  1.2944
 7588TIP3   OH246958   1.623   5.012   0.720  0.0544 -0.2578 -0.0255
 7588TIP3    H146959   1.676   5.045   0.792 -0.7974  0.3242  0.3514
 7588TIP3    H246960   1.633   5.076   0.651  1.8627 -1.4308 -0.9278
 7589TIP3   OH246961   3.099   1.863   3.228  0.0087 -0.2456  0.2147
 7589TIP3    H146962   3.161   1.936   3.228 -0.2229  0.0059  1.7951
 7589TIP3    H246963   3.154   1.785   3.242  0.0892 -0.1515  0.4342
 7590TIP3   OH246964   2.328   4.238   2.520 -0.3155 -0.2604 -0.2368
 7590TIP3    H146965   2.295   4.172   2.459  2.0126 -0.8673 -0.9124
 7590TIP3    H246966   2.413   4.205   2.549  0.2922  1.7812  0.5092
 7591TIP3   OH246967   0.676   6.095   3.309 -0.5989  0.2710 -0.6469
 7591TIP3    H146968   0.623   6.128   3.236 -0.8452  2.5129  0.4943
 7591TIP3    H246969   0.637   6.133   3.387  0.8547 -0.5026  0.5054
 7592TIP3   OH246970   5.787   2.293   2.272 -0.1304  0.6192 -0.2071
 7592TIP3    H146971   5.835   2.315   2.351  0.2565  2.0560 -0.8010
 7592TIP3    H246972   5.810   2.202   2.253  2.8809  1.3947 -0.7914
 7593TIP3   OH246973   1.891   0.008   2.493 -0.4894 -0.3463  0.0400
 7593TIP3    H146974   1.800   0.025   2.516 -0.4944 -0.7704  0.3566
 7593TIP3    H246975   1.941   0.068   2.548 -0.6293  1.1052 -1.3560
 7594TIP3   OH246976   0.585   6.149   1.958 -0.3536  0.2879 -0.3240
 7594TIP3    H146977   0.571   6.238   1.992 -0.1220  0.4175 -0.5637
 7594TIP3    H246978   0.665   6.156   1.905 -0.9154  0.1711 -1.2026
 7595TIP3   OH246979   4.256   3.769   0.953  0.3593  0.5374 -0.7469
 7595TIP3    H146980   4.343   3.767   0.913  0.1249 -0.4138 -1.2337
 7595TIP3    H246981   4.202   3.712   0.898  0.1471 -1.2593  1.1700
 7596TIP3   OH246982   0.303   0.791   3.388 -0.3406 -0.5603 -0.0681
 7596TIP3    H146983   0.246   0.725   3.427 -1.5440  0.2235 -0.4662
 7596TIP3    H246984   0.316   0.856   3.458 -1.1287 -0.0106 -0.4176
 7597TIP3   OH246985   0.564   4.204   4.210 -0.0429 -0.3837  0.4011
 7597TIP3    H146986   0.600   4.229   4.125 -1.9477  1.1797 -0.0062
 7597TIP3    H246987   0.523   4.119   4.194  0.9392 -0.8365  0.1812
 7598TIP3   OH246988   0.190   1.844   0.375  0.0195  0.6791 -0.1639
 7598TIP3    H146989   0.113   1.856   0.430  0.1780  0.9046  0.0096
 7598TIP3    H246990   0.157   1.854   0.285 -0.2900  0.0187 -0.1282
 7599TIP3   OH246991   0.744   5.504   3.931 -0.5132 -0.1713 -0.2246
 7599TIP3    H146992   0.790   5.563   3.991 -1.5183  0.1786  0.2282
 7599TIP3    H246993   0.733   5.423   3.981  0.3192 -0.5363 -0.6243
 7600TIP3   OH246994   0.094   4.273   0.580 -0.4274  0.2466 -0.1752
 7600TIP3    H146995   0.118   4.225   0.659 -1.7502  0.2738  0.2665
 7600TIP3    H246996   0.016   4.229   0.548 -0.6288  1.0113 -0.7579
 7601TIP3   OH246997   3.766   0.784   3.730  0.1004  0.1480  0.1441
 7601TIP3    H146998   3.784   0.708   3.786  0.0159 -0.9781 -1.2665
 7601TIP3    H246999   3.713   0.842   3.784 -2.8443 -2.3689  0.2764
 7602TIP3   OH247000   4.772   1.532   3.544  0.2093 -0.3074 -0.0148
 7602TIP3    H147001   4.813   1.616   3.524  0.6597 -1.0895 -2.7913
 7602TIP3    H247002   4.773   1.527   3.639  1.2610  2.2761  0.1931
 7603TIP3   OH247003   3.609   5.337   2.527  0.0046  0.4669  0.0148
 7603TIP3    H147004   3.520   5.365   2.505  0.0138 -0.7380 -1.7690
 7603TIP3    H247005   3.597   5.263   2.587 -0.2813 -0.7343 -1.4841
 7604TIP3   OH247006   4.973   1.158   3.554  0.0129  0.5816  0.3650
 7604TIP3    H147007   4.972   1.161   3.650 -0.0950  1.9148  0.3344
 7604TIP3    H247008   4.883   1.136   3.530  0.2199 -0.5798  0.5662
 7605TIP3   OH247009   4.608   4.745   3.788 -0.0745 -0.0620  0.2281
 7605TIP3    H147010   4.565   4.780   3.866  1.1341  1.4305  0.2689
 7605TIP3    H247011   4.536   4.730   3.726 -1.0677 -1.4230  1.6451
 7606TIP3   OH247012   1.183   1.771   0.416  0.2725 -0.2227 -0.3685
 7606TIP3    H147013   1.225   1.817   0.343 -0.6434  3.0409  0.9891
 7606TIP3    H247014   1.256   1.743   0.471  0.8513  0.7666 -0.6017
 7607TIP3   OH247015   0.704   6.617   3.515 -0.3261  0.3820 -0.3326
 7607TIP3    H147016   0.766   6.590   3.447 -0.7903  0.9059 -0.9818
 7607TIP3    H247017   0.710   6.548   3.581 -0.2613 -0.4326 -1.1578
 7608TIP3   OH247018   4.611   1.240   4.484  0.0012 -0.8392  0.0232
 7608TIP3    H147019   4.592   1.320   4.435  1.4157 -1.4538 -1.6519
 7608TIP3    H247020   4.527   1.213   4.520 -0.9068  0.2120 -1.2337
 7609TIP3   OH247021   6.213   0.301   2.264 -0.0442 -0.5368  0.3144
 7609TIP3    H147022   6.137   0.327   2.316 -0.6957 -1.0529 -0.3623
 7609TIP3    H247023   6.219   0.368   2.195  1.3406  0.6418  1.5185
 7610TIP3   OH247024   0.993   2.015   3.059  0.2948  0.7708  0.0736
 7610TIP3    H147025   1.055   1.948   3.085 -2.9138 -2.3913  0.4686
 7610TIP3    H247026   1.036   2.098   3.079  4.8177 -0.9954 -1.0343
 7611TIP3   OH247027   2.270   5.162   4.073 -0.5855 -0.3644 -0.0053
 7611TIP3    H147028   2.284   5.201   4.159 -1.3674 -1.3272  0.5783
 7611TIP3    H247029   2.221   5.082   4.091  0.7041 -1.4674 -1.1921
 7612TIP3   OH247030   3.526   6.242   3.059  0.5291 -0.0388 -0.9910
 7612TIP3    H147031   3.444   6.276   3.092  0.4314 -0.3452 -0.9198
 7612TIP3    H247032   3.542   6.293   2.979  0.4152  0.2131 -0.8555
 7613TIP3   OH247033   1.850   4.849   0.787 -0.0581 -0.0690  0.1336
 7613TIP3    H147034   1.825   4.813   0.702  0.7707  0.8142 -0.5016
 7613TIP3    H247035   1.916   4.789   0.820  0.3750  0.1443 -0.3306
 7614TIP3   OH247036   5.505   3.403   1.808 -0.2986 -0.0885  0.3359
 7614TIP3    H147037   5.505   3.489   1.767  1.1820  0.2354  0.9627
 7614TIP3    H247038   5.532   3.343   1.738  0.4122  0.2081  0.3507
 7615TIP3   OH247039   1.938   2.853   1.082  0.4037  0.2960 -0.0038
 7615TIP3    H147040   1.890   2.897   1.152  1.4326 -0.2326  1.0660
 7615TIP3    H247041   2.030   2.859   1.108  1.0182  1.5245 -2.1280
 7616TIP3   OH247042   0.248   6.252   2.893  0.5859 -0.2088 -0.1565
 7616TIP3    H147043   0.318   6.229   2.954 -1.2058 -2.3217  1.2476
 7616TIP3    H247044   0.169   6.258   2.947 -0.9135 -1.1816 -2.0919
 7617TIP3   OH247045   0.236   3.422   3.251  0.1712 -0.7035 -0.5669
 7617TIP3    H147046   0.241   3.518   3.247 -0.2402 -0.7218 -2.2546
 7617TIP3    H247047   0.327   3.393   3.243  0.3939 -0.4608  0.8242
 7618TIP3   OH247048   5.338   4.154   0.837 -0.2774 -0.3736 -0.2424
 7618TIP3    H147049   5.243   4.146   0.844 -0.5098  2.5384  1.4061
 7618TIP3    H247050   5.354   4.248   0.835  2.6365 -0.7769  0.2570
 7619TIP3   OH247051   6.527   5.327   0.651 -0.3652  0.6450 -0.5423
 7619TIP3    H147052   6.491   5.387   0.716  0.6343  0.7701 -0.0818
 7619TIP3    H247053   6.550   5.383   0.577 -1.8356  0.4528 -1.1656
 7620TIP3   OH247054   5.586   1.350   2.094  0.1569 -0.3517 -0.1385
 7620TIP3    H147055   5.626   1.323   2.012 -1.3660 -0.6475 -0.8160
 7620TIP3    H247056   5.634   1.302   2.161  1.9692  0.5260 -0.7582
 7621TIP3   OH247057   0.658   1.190   1.444 -0.4270 -0.0635 -0.0156
 7621TIP3    H147058   0.751   1.170   1.429 -0.5254 -1.5794  1.1591
 7621TIP3    H247059   0.655   1.224   1.533 -1.0995 -0.7975  0.2486
 7622TIP3   OH247060   1.031   2.382   2.000  0.7476 -0.6864  0.1376
 7622TIP3    H147061   1.023   2.448   1.931  1.1881  0.7856  1.4107
 7622TIP3    H247062   1.124   2.362   2.004  0.6696 -1.0730  0.0339
 7623TIP3   OH247063   6.211   5.845   3.023  0.4686 -0.3523  0.0871
 7623TIP3    H147064   6.261   5.927   3.017  0.3514  0.0594  3.2408
 7623TIP3    H247065   6.126   5.871   3.057 -0.6678 -1.5024 -1.7281
 7624TIP3   OH247066   4.791   5.693   1.868 -0.2889  0.1296 -0.1249
 7624TIP3    H147067   4.784   5.690   1.773  0.7292  0.4956 -0.2173
 7624TIP3    H247068   4.771   5.603   1.896  0.1424 -0.1639 -0.7373
 7625TIP3   OH247069   3.937   6.007   2.894 -0.5562 -0.0097 -0.5767
 7625TIP3    H147070   4.030   6.022   2.874 -0.9010  0.7364 -1.7556
 7625TIP3    H247071   3.902   6.095   2.906 -1.3706 -0.2064 -1.4322
 7626TIP3   OH247072   2.915   6.096   3.002 -0.1908  0.2558  0.2631
 7626TIP3    H147073   2.856   6.058   2.935 -1.4725  0.6956  1.1026
 7626TIP3    H247074   2.899   6.043   3.080  1.0499 -0.0383  0.3292
 7627TIP3   OH247075   2.748   4.970   3.565  0.5491 -0.1015  0.0358
 7627TIP3    H147076   2.761   5.034   3.634 -1.4108  0.7078 -0.2879
 7627TIP3    H247077   2.703   4.897   3.607 -1.4535  0.7691 -0.5039
 7628TIP3   OH247078   0.570   4.235   0.744 -0.1276  0.3105 -0.2349
 7628TIP3    H147079   0.497   4.268   0.796 -2.6098 -1.3642 -2.3567
 7628TIP3    H247080   0.626   4.189   0.807 -0.0514  2.8097  1.6724
 7629TIP3   OH247081   5.973   0.554   2.646 -0.3616  0.3492 -0.0461
 7629TIP3    H147082   5.897   0.584   2.596 -1.1751  0.7811  1.3750
 7629TIP3    H247083   5.942   0.550   2.736  1.5820  1.5535  0.7558
 7630TIP3   OH247084   4.957   5.575   3.420  0.2800 -0.0727  0.1157
 7630TIP3    H147085   4.905   5.655   3.430  1.5329  0.9012 -0.7424
 7630TIP3    H247086   4.892   5.506   3.409 -0.8471  0.7774  1.1623
 7631TIP3   OH247087   1.237   5.405   3.775  0.5763 -0.0522 -0.2297
 7631TIP3    H147088   1.271   5.433   3.690  0.6184  0.9521  0.1078
 7631TIP3    H247089   1.314   5.400   3.832  0.4173  0.3377  0.0273
 7632TIP3   OH247090   2.125   2.665   1.450 -0.0281 -0.1813  0.1054
 7632TIP3    H147091   2.197   2.722   1.425  0.4983 -0.8140  0.1428
 7632TIP3    H247092   2.104   2.616   1.370 -0.3037 -0.1241  0.1397
 7633TIP3   OH247093   6.284   3.188   1.768  0.2908  0.3230  0.0217
 7633TIP3    H147094   6.310   3.108   1.814  2.6719  0.7445 -0.4743
 7633TIP3    H247095   6.202   3.165   1.724  1.4124 -2.2013 -0.9335
 7634TIP3   OH247096   2.267   0.382   0.955  0.0396 -0.0108 -0.4216
 7634TIP3    H147097   2.338   0.321   0.976  0.5174  0.3639 -0.9000
 7634TIP3    H247098   2.192   0.327   0.934 -0.0628 -0.4080  0.9114
 7635TIP3   OH247099   3.808   0.577   3.381 -0.2620  0.4202  0.0596
 7635TIP3    H147100   3.793   0.560   3.474  0.2570  1.0095  0.2521
 7635TIP3    H247101   3.752   0.513   3.337  0.3541 -0.6560  0.7688
 7636TIP3   OH247102   5.268   6.485   1.230 -0.0277  0.0495  0.2027
 7636TIP3    H147103   5.199   6.494   1.164  1.0360  0.3925 -0.9077
 7636TIP3    H247104   5.224   6.499   1.314 -1.4615 -0.6332 -0.4101
 7637TIP3   OH247105   5.361   0.602   1.317 -0.5413  0.2812 -0.3711
 7637TIP3    H147106   5.402   0.518   1.295 -0.1304 -0.5053  2.9899
 7637TIP3    H247107   5.416   0.667   1.273 -1.3954 -1.0689 -3.8590
 7638TIP3   OH247108   5.292   3.243   1.029 -0.2226  0.1957  0.2222
 7638TIP3    H147109   5.277   3.270   0.939 -1.7531  0.1696  0.4381
 7638TIP3    H247110   5.290   3.147   1.026 -1.0403  0.2010  0.3850
 7639TIP3   OH247111   0.314   1.952   1.100 -0.0687  0.1942 -0.4001
 7639TIP3    H147112   0.357   1.994   1.025  0.5044  0.9215  0.3226
 7639TIP3    H247113   0.239   2.008   1.120 -2.1347 -1.6722 -2.3753
 7640TIP3   OH247114   0.686   6.432   3.717 -0.0292  0.5036 -0.8263
 7640TIP3    H147115   0.682   6.340   3.744 -2.2686  0.9126  0.4038
 7640TIP3    H247116   0.743   6.473   3.782  0.8598  0.0433 -1.2938
 7641TIP3   OH247117   0.390   5.042   1.330 -0.6285 -0.1422 -0.3533
 7641TIP3    H147118   0.336   5.069   1.404 -1.1745 -0.9723 -0.4425
 7641TIP3    H247119   0.328   5.009   1.265 -0.2947  1.7868 -1.7514
 7642TIP3   OH247120   4.430   3.573   1.940  0.2151 -0.2306 -0.3795
 7642TIP3    H147121   4.437   3.481   1.967  0.9900 -0.4796 -1.3685
 7642TIP3    H247122   4.435   3.570   1.845  1.3755  0.9328 -0.3763
 7643TIP3   OH247123   1.460   3.850   3.544 -0.3887  0.1854 -0.1361
 7643TIP3    H147124   1.496   3.938   3.534  0.2571 -0.3132 -3.8967
 7643TIP3    H247125   1.528   3.801   3.591  0.4113  1.1062 -0.3131
 7644TIP3   OH247126   6.599   2.344   2.823 -0.3267  0.1848 -0.3795
 7644TIP3    H147127   6.542   2.299   2.885 -1.1262  2.5468  0.7403
 7644TIP3    H247128   6.610   2.432   2.860  1.7305  0.7106 -2.0407
 7645TIP3   OH247129   6.410   0.255   1.604  0.5359  0.7593  0.3395
 7645TIP3    H147130   6.370   0.288   1.523 -0.9086 -1.0974  0.2079
 7645TIP3    H247131   6.478   0.195   1.574  1.0154  1.2050  0.5291
 7646TIP3   OH247132   5.665   1.242   1.799  0.1075 -0.1506  0.3548
 7646TIP3    H147133   5.612   1.163   1.809  0.4235 -0.5772 -1.1184
 7646TIP3    H247134   5.752   1.209   1.778  0.6188  0.5771  1.2651
 7647TIP3   OH247135   2.168   5.721   0.562  0.4317 -0.2149  0.4601
 7647TIP3    H147136   2.207   5.764   0.638  1.1084 -1.5349  0.8967
 7647TIP3    H247137   2.074   5.717   0.582  0.5063  0.1077  0.8880
 7648TIP3   OH247138   4.359   2.983   1.836  0.2042  0.3033 -0.2867
 7648TIP3    H147139   4.332   2.917   1.900  0.6642 -0.7825 -1.1685
 7648TIP3    H247140   4.415   3.043   1.884  0.8960 -0.7452  0.2464
 7649TIP3   OH247141   1.073   2.295   3.146 -0.1481 -0.4451  0.5465
 7649TIP3    H147142   1.003   2.312   3.084  1.6410 -0.4470 -1.6323
 7649TIP3    H247143   1.133   2.369   3.136  1.7888 -1.9935 -0.2338
 7650TIP3   OH247144   2.342   3.416   1.730  0.5270  0.1852 -0.2096
 7650TIP3    H147145   2.264   3.472   1.727  0.6375  0.2879 -2.2907
 7650TIP3    H247146   2.401   3.461   1.791 -0.3096  1.0866 -0.0357
 7651TIP3   OH247147   5.160   3.549   1.777  0.3124  0.6498 -0.3289
 7651TIP3    H147148   5.122   3.489   1.842  0.3880  0.9996  0.0447
 7651TIP3    H247149   5.184   3.493   1.704 -2.1276  0.5580 -1.1516
 7652TIP3   OH247150   4.703   1.572   4.047 -0.2943  0.1136  0.4716
 7652TIP3    H147151   4.770   1.636   4.068 -0.4526  1.3800 -2.3801
 7652TIP3    H247152   4.620   1.616   4.066 -0.3875  0.6028 -0.9355
 7653TIP3   OH247153   3.134   1.735   2.796  0.4140 -0.0451  1.0770
 7653TIP3    H147154   3.196   1.806   2.816  0.3649  0.4399 -0.3840
 7653TIP3    H247155   3.076   1.772   2.730 -0.5150 -1.0004  1.3226
 7654TIP3   OH247156   4.814   2.139   1.337  0.1416 -0.5153 -0.1244
 7654TIP3    H147157   4.820   2.164   1.429 -0.7807  0.1449 -0.2319
 7654TIP3    H247158   4.726   2.166   1.310  0.0279 -1.6091 -0.9341
 7655TIP3   OH247159   3.363   5.562   2.687  0.5390 -0.7400 -0.3985
 7655TIP3    H147160   3.272   5.590   2.695  0.8915  0.5416 -0.6333
 7655TIP3    H247161   3.367   5.518   2.602  0.1497 -0.7633 -0.4057
 7656TIP3   OH247162   5.920   1.495   1.844 -0.3277  0.0121 -0.2954
 7656TIP3    H147163   5.868   1.478   1.765  0.9700 -0.1659 -1.1316
 7656TIP3    H247164   5.906   1.417   1.898 -0.1488 -0.4827 -0.9518
 7657TIP3   OH247165   0.484   2.959   2.810 -0.5890 -0.1357 -0.2985
 7657TIP3    H147166   0.512   3.011   2.735  0.8685  0.5709  0.6974
 7657TIP3    H247167   0.506   2.869   2.787 -1.5864 -0.1473 -1.3348
 7658TIP3   OH247168   2.106   0.614   1.980 -0.0415 -0.2808 -0.4060
 7658TIP3    H147169   2.201   0.617   1.991  0.1820  2.3339 -2.0652
 7658TIP3    H247170   2.071   0.604   2.069  1.7429 -2.7833  0.1059
 7659TIP3   OH247171   2.728   0.125   0.746 -0.5230 -0.1183  0.6004
 7659TIP3    H147172   2.744   0.193   0.680 -0.1987  0.1118  0.9091
 7659TIP3    H247173   2.713   0.174   0.827  0.2433 -0.4272  0.9389
 7660TIP3   OH247174   3.037   4.342   2.530  1.0995 -0.0027  0.6158
 7660TIP3    H147175   3.083   4.297   2.459 -1.2824 -2.2415  0.3265
 7660TIP3    H247176   3.093   4.327   2.607  1.7967 -0.9543 -0.0502
 7661TIP3   OH247177   0.548   1.904   2.130 -0.3757 -0.4259 -0.0896
 7661TIP3    H147178   0.520   1.948   2.050 -0.4642 -1.1497 -0.4657
 7661TIP3    H247179   0.616   1.961   2.166 -1.8322  1.0278  0.4942
 7662TIP3   OH247180   5.745   1.009   2.034 -0.1335 -0.4753  0.1607
 7662TIP3    H147181   5.780   0.947   2.098 -0.0867 -0.2719  0.3306
 7662TIP3    H247182   5.712   1.082   2.086  0.6529  0.0674 -0.0922
 7663TIP3   OH247183   6.424   6.403   3.902 -0.4384 -0.5403 -0.0944
 7663TIP3    H147184   6.355   6.359   3.950 -0.7526  1.0308  0.9594
 7663TIP3    H247185   6.489   6.427   3.969 -0.3802  0.7427 -0.5757
 7664TIP3   OH247186   0.883   3.942   1.046 -0.2017  0.0430  0.0739
 7664TIP3    H147187   0.859   3.852   1.071 -1.0640  0.1081 -0.4646
 7664TIP3    H247188   0.962   3.932   0.994 -0.5228 -0.4610 -0.3330
 7665TIP3   OH247189   2.394   6.287   1.316 -0.4722 -0.6368 -0.1838
 7665TIP3    H147190   2.328   6.353   1.296  1.7515  1.2995 -1.7204
 7665TIP3    H247191   2.478   6.331   1.298  1.1693 -3.7113 -0.7174
 7666TIP3   OH247192   4.598   1.020   2.428 -0.6675 -0.6199  0.0233
 7666TIP3    H147193   4.536   0.988   2.493  1.8640 -1.1270  2.3641
 7666TIP3    H247194   4.616   1.110   2.454  0.0753 -0.6895 -0.2392
 7667TIP3   OH247195   2.664   1.909   1.425  0.2916  0.3670 -0.1328
 7667TIP3    H147196   2.705   1.825   1.445  0.0548  0.3119  0.1206
 7667TIP3    H247197   2.737   1.971   1.420  0.5699 -0.0155 -1.2144
 7668TIP3   OH247198   1.579   5.238   3.381  0.5640  0.1115  0.0448
 7668TIP3    H147199   1.486   5.250   3.395  0.4962 -0.1408 -0.1796
 7668TIP3    H247200   1.585   5.161   3.324  0.7959  1.5637 -1.9801
 7669TIP3   OH247201   4.497   1.043   3.693 -0.3645 -0.0900  0.4511
 7669TIP3    H147202   4.573   1.065   3.639 -1.4400  1.4813 -0.5247
 7669TIP3    H247203   4.524   0.965   3.742  2.1184  0.8398  0.7137
 7670TIP3   OH247204   3.198   2.618   3.005 -0.2170 -0.6845 -0.2481
 7670TIP3    H147205   3.266   2.620   3.072  0.8678 -1.0071 -1.3112
 7670TIP3    H247206   3.230   2.558   2.939 -1.5225 -0.8081 -0.8125
 7671TIP3   OH247207   2.677   3.590   2.356 -0.6384 -0.4652  0.1267
 7671TIP3    H147208   2.738   3.658   2.384 -1.6752  0.4963  0.1215
 7671TIP3    H247209   2.615   3.636   2.299  0.3621 -1.9847 -2.3368
 7672TIP3   OH247210   3.022   3.850   3.219  0.0308  0.1330  0.0771
 7672TIP3    H147211   3.062   3.782   3.274 -1.0854 -0.7881 -0.2146
 7672TIP3    H247212   2.975   3.907   3.281  2.5310  1.8459  0.5504
 7673TIP3   OH247213   2.650   0.117   3.146 -0.1315 -0.6537 -0.1694
 7673TIP3    H147214   2.672   0.156   3.061  1.0533  0.7435  0.7381
 7673TIP3    H247215   2.614   0.031   3.124 -0.5763 -0.0161 -2.1197
 7674TIP3   OH247216   3.981   2.047   1.404  0.2171 -0.4435 -0.4761
 7674TIP3    H147217   3.949   2.136   1.387  1.5499  0.2292  0.3829
 7674TIP3    H247218   3.947   1.995   1.331  0.0479  0.9098 -1.4019
 7675TIP3   OH247219   1.098   1.801   3.179  0.1696  0.4766 -0.5935
 7675TIP3    H147220   1.063   1.717   3.209 -0.2745  0.8521 -0.0484
 7675TIP3    H247221   1.178   1.813   3.230 -0.1760  0.7495 -0.1166
 7676TIP3   OH247222   4.556   5.043   0.979  0.1627  0.1778 -0.3752
 7676TIP3    H147223   4.609   5.122   0.985 -0.4651  1.0857 -4.2805
 7676TIP3    H247224   4.617   4.973   0.958  0.1775  0.7914 -2.5838
 7677TIP3   OH247225   2.032   2.580   2.838  0.1222  0.2751 -0.2217
 7677TIP3    H147226   2.108   2.536   2.876  0.9981  1.3107 -0.7300
 7677TIP3    H247227   2.065   2.624   2.760 -0.8852  1.1493 -0.1932
 7678TIP3   OH247228   0.668   1.668   3.145  0.2023 -0.0011  0.0691
 7678TIP3    H147229   0.659   1.619   3.226 -0.7462 -0.3819 -0.2522
 7678TIP3    H247230   0.703   1.753   3.172 -1.0296  0.2336  0.9986
 7679TIP3   OH247231   0.014   0.432   2.089 -0.4922 -0.1562  0.3940
 7679TIP3    H147232   0.081   0.468   2.031  0.5957 -1.3618  0.8521
 7679TIP3    H247233  -0.036   0.373   2.034  1.0277 -1.8980  0.7942
 7680TIP3   OH247234   3.658   6.097   3.282  0.5241 -0.7912  0.2594
 7680TIP3    H147235   3.620   6.163   3.224  0.2435 -0.4696  0.7967
 7680TIP3    H247236   3.748   6.087   3.252  0.4104 -0.5555 -0.1646
 7681TIP3   OH247237   4.843   1.494   3.805  0.6326 -0.1130 -0.0381
 7681TIP3    H147238   4.797   1.505   3.888  1.3025 -0.2738  0.3659
 7681TIP3    H247239   4.923   1.546   3.816 -0.4169  1.9501 -1.5142
 7682TIP3   OH247240   0.846   3.072   3.274  0.5596 -0.3087  0.0136
 7682TIP3    H147241   0.776   3.117   3.227  0.4309 -1.3607 -0.8560
 7682TIP3    H247242   0.876   3.135   3.340 -0.9847  0.2810  0.1956
 7683TIP3   OH247243   3.171   6.456   1.815  0.5352  0.0496 -0.4778
 7683TIP3    H147244   3.253   6.467   1.863  0.5689 -2.1150  0.0870
 7683TIP3    H247245   3.124   6.538   1.827  1.5694  0.4356  1.2790
 7684TIP3   OH247246   4.030   3.843   2.637 -0.4788 -0.1622  0.0994
 7684TIP3    H147247   3.999   3.814   2.723 -2.0195 -0.7699 -0.6218
 7684TIP3    H247248   3.991   3.781   2.575 -0.5891  1.1027 -1.1533
 7685TIP3   OH247249   5.560   4.978   2.853  0.0973  0.3611 -1.0742
 7685TIP3    H147250   5.606   4.922   2.915 -0.0778 -0.4938 -1.6971
 7685TIP3    H247251   5.595   5.066   2.868 -1.3787  0.5937  1.6490
 7686TIP3   OH247252   1.673   4.793   2.412 -0.8737  0.1046  0.0581
 7686TIP3    H147253   1.700   4.860   2.474 -0.1171 -0.2432  0.1261
 7686TIP3    H247254   1.623   4.730   2.464  0.0545 -0.3667  0.4075
 7687TIP3   OH247255   2.276   0.492   3.333 -0.4959 -0.4408  0.3607
 7687TIP3    H147256   2.258   0.585   3.326  0.0447 -0.3840 -0.3204
 7687TIP3    H247257   2.195   0.454   3.367 -0.6434  0.2989  0.8573
 7688TIP3   OH247258   0.934   1.576   0.957  0.1827 -1.1295 -0.1429
 7688TIP3    H147259   0.966   1.578   0.867 -1.0245  2.8153 -0.6434
 7688TIP3    H247260   0.845   1.542   0.951  0.2047 -1.1451 -0.3771
 7689TIP3   OH247261   2.416   4.225   2.939 -0.8706 -0.7410 -0.4070
 7689TIP3    H147262   2.505   4.216   2.906 -0.3770 -1.9905  1.1254
 7689TIP3    H247263   2.421   4.298   3.002 -0.8615 -1.0100 -0.0959
 7690TIP3   OH247264   0.656   6.479   4.389  0.1824  0.0259 -0.0945
 7690TIP3    H147265   0.571   6.478   4.346  0.0643 -1.5299  0.0899
 7690TIP3    H247266   0.637   6.487   4.482  0.1536 -1.1356  0.0220
 7691TIP3   OH247267   4.276   4.605   0.608 -0.3154  0.0490 -0.0089
 7691TIP3    H147268   4.340   4.671   0.581 -0.0725 -0.4683 -0.7278
 7691TIP3    H247269   4.218   4.651   0.668  0.3454  0.6985  0.1457
 7692TIP3   OH247270   4.225   6.023   2.818 -0.2602  0.0186  0.0631
 7692TIP3    H147271   4.223   6.117   2.835  0.2304  0.4420 -1.9288
 7692TIP3    H247272   4.300   5.991   2.869 -1.1975  0.4336  1.7843
 7693TIP3   OH247273   1.555   1.776  11.299 -0.5440  0.3689  0.0069
 7693TIP3    H147274   1.549   1.719  11.223  2.3783  2.2780 -1.8159
 7693TIP3    H247275   1.642   1.814  11.294 -1.8000  3.9054  1.9084
 7694TIP3   OH247276   4.346   0.048   1.083  0.2368  0.1502  0.1716
 7694TIP3    H147277   4.292   0.008   1.014  0.7020  0.4203 -0.3588
 7694TIP3    H247278   4.286   0.061   1.156 -0.0192 -1.1795  0.2297
 7695TIP3   OH247279   3.212   3.222   1.035  0.2634 -0.1386 -0.0633
 7695TIP3    H147280   3.256   3.217   0.950  0.2985 -0.7402 -0.0101
 7695TIP3    H247281   3.283   3.238   1.098  0.2664  0.0434 -0.1100
 7696TIP3   OH247282   1.011   0.714   0.790  0.2830 -0.6128 -0.1176
 7696TIP3    H147283   0.917   0.725   0.775  0.3305  1.1048  0.5172
 7696TIP3    H247284   1.042   0.661   0.717 -0.6314  1.6464 -2.3064
 7697TIP3   OH247285   1.191   2.650   0.986  0.0073  0.6218 -0.3207
 7697TIP3    H147286   1.111   2.649   0.932 -0.5367  0.5989  0.4799
 7697TIP3    H247287   1.262   2.654   0.922 -0.6206  0.3255 -1.0573
 7698TIP3   OH247288   3.448   2.478   1.515  0.3867  0.3339  0.2144
 7698TIP3    H147289   3.484   2.418   1.581 -2.0218 -0.7633  0.6440
 7698TIP3    H247290   3.507   2.553   1.516  2.2145 -1.0455  1.3149
 7699TIP3   OH247291   6.276   3.871   3.603  0.0224  0.3813 -0.2173
 7699TIP3    H147292   6.297   3.853   3.511  0.4320 -1.3038  0.1765
 7699TIP3    H247293   6.251   3.964   3.604 -1.3387  0.0871 -2.2532
 7700TIP3   OH247294   0.129   1.816   1.463  0.5212  0.5703  0.2795
 7700TIP3    H147295   0.222   1.825   1.441  1.3847 -0.3616  3.1801
 7700TIP3    H247296   0.120   1.725   1.490 -1.0434  0.8879  0.9160
 7701TIP3   OH247297   4.166   5.403   2.309  0.1355 -0.0019  0.6278
 7701TIP3    H147298   4.208   5.489   2.316  0.3976  0.2461 -2.4787
 7701TIP3    H247299   4.094   5.416   2.247 -0.9643 -1.6708  1.4652
 7702TIP3   OH247300   4.616   2.880   3.636  0.5282  0.5661 -0.0219
 7702TIP3    H147301   4.709   2.872   3.613  0.6493  2.6844 -0.4671
 7702TIP3    H247302   4.584   2.951   3.580 -2.1933 -2.1603 -2.2938
 7703TIP3   OH247303   6.295   4.799   1.244  0.2202 -0.0083 -0.1752
 7703TIP3    H147304   6.283   4.745   1.166  1.4160 -0.8862  0.2230
 7703TIP3    H247305   6.215   4.852   1.249 -0.2359 -0.5300 -1.5178
 7704TIP3   OH247306   5.308   0.957   1.379  0.2139 -0.2875  0.2004
 7704TIP3    H147307   5.354   0.895   1.324 -0.5530  0.2962 -1.1572
 7704TIP3    H247308   5.218   0.958   1.345  0.4812  2.4649 -0.7068
 7705TIP3   OH247309   0.220   5.302   1.254  0.1212 -0.1949 -0.1044
 7705TIP3    H147310   0.209   5.215   1.214 -0.1172 -0.5471  0.7148
 7705TIP3    H247311   0.131   5.328   1.278  0.1721  0.3580 -0.4881
 7706TIP3   OH247312   4.663   2.342   4.259 -0.0586 -0.7121 -0.0037
 7706TIP3    H147313   4.635   2.414   4.316  0.8187  0.8201 -1.4095
 7706TIP3    H247314   4.758   2.340   4.268  0.0291 -0.8846 -0.8778
 7707TIP3   OH247315   5.091   6.479   1.785  0.3286 -0.3209  0.0045
 7707TIP3    H147316   5.021   6.544   1.781 -0.4273 -1.1828 -1.3848
 7707TIP3    H247317   5.052   6.406   1.833  0.6665 -0.3583  0.2228
 7708TIP3   OH247318   2.161   1.492   2.993 -0.2830 -0.5039 -0.0192
 7708TIP3    H147319   2.150   1.563   2.929 -2.4318  0.3761  1.2155
 7708TIP3    H247320   2.175   1.537   3.076 -0.9994 -1.5103  0.6733
 7709TIP3   OH247321   3.877   3.246   2.442 -0.9410  0.4001 -0.1541
 7709TIP3    H147322   3.872   3.304   2.518 -0.4243  0.1339  0.0906
 7709TIP3    H247323   3.814   3.177   2.460 -0.4705  0.0700  0.2748
 7710TIP3   OH247324   2.230   6.581   2.650 -0.0630 -0.4792 -0.4915
 7710TIP3    H147325   2.197   6.668   2.672  0.8047 -0.2848  0.1006
 7710TIP3    H247326   2.152   6.525   2.650 -0.5236  0.1486 -0.1184
 7711TIP3   OH247327   5.123   3.922   2.589  0.0121  0.0530  0.2941
 7711TIP3    H147328   5.049   3.878   2.547  0.1038  0.5365 -0.3796
 7711TIP3    H247329   5.200   3.888   2.543  0.0473  1.3875 -0.6932
 7712TIP3   OH247330   5.567   1.350   1.163  0.3394 -0.4867  0.2705
 7712TIP3    H147331   5.658   1.352   1.133  0.6781  0.0184  1.2748
 7712TIP3    H247332   5.565   1.282   1.230 -0.4346 -1.6802 -0.9013
 7713TIP3   OH247333   0.036   2.770   1.164  0.1671 -0.0789  0.4312
 7713TIP3    H147334   0.014   2.864   1.169 -1.3102 -0.4624  2.4992
 7713TIP3    H247335  -0.030   2.734   1.105 -1.8366 -0.3898  2.7119
 7714TIP3   OH247336   2.273   4.095   2.267  0.1201  0.1808  0.1260
 7714TIP3    H147337   2.194   4.148   2.269 -0.9255 -1.3278  1.1488
 7714TIP3    H247338   2.243   4.009   2.239  1.7353  0.0512 -1.3607
 7715TIP3   OH247339   1.157   3.874   0.650  0.4543 -0.2161  0.3996
 7715TIP3    H147340   1.239   3.825   0.656  0.3248 -0.9374 -2.5392
 7715TIP3    H247341   1.184   3.965   0.641  1.1552 -0.6313 -2.7647
 7716TIP3   OH247342   6.171   6.435   3.418  0.2959 -0.4408 -0.5362
 7716TIP3    H147343   6.187   6.345   3.446  0.7223 -0.5295 -1.0495
 7716TIP3    H247344   6.247   6.484   3.450 -0.3201 -0.0952  0.4493
 7717TIP3   OH247345   0.585   2.286   1.025  0.2379 -0.0059  0.5807
 7717TIP3    H147346   0.543   2.229   1.090  1.2110 -1.6983 -0.2141
 7717TIP3    H247347   0.651   2.335   1.074  0.3166 -0.5693  1.0469
 7718TIP3   OH247348   0.884   4.713   1.342 -0.2064  0.6585  0.0231
 7718TIP3    H147349   0.811   4.748   1.292  0.3993 -0.4924 -1.7619
 7718TIP3    H247350   0.962   4.742   1.294  0.3535 -1.7245 -0.6099
 7719TIP3   OH247351   0.966   4.476   0.759 -0.2722  0.3317  0.0461
 7719TIP3    H147352   0.896   4.536   0.731 -1.1611 -0.0045  1.4433
 7719TIP3    H247353   0.966   4.407   0.692 -2.8516 -0.8387  1.0857
 7720TIP3   OH247354   3.373   2.690   1.841  0.1642 -0.0552  0.0976
 7720TIP3    H147355   3.318   2.701   1.764  0.1122  2.0548  0.4003
 7720TIP3    H247356   3.421   2.608   1.824 -1.1060 -0.5425 -1.3527
 7721TIP3   OH247357   3.832   1.610   3.678  0.1054  0.0710  0.1887
 7721TIP3    H147358   3.771   1.684   3.670 -0.0530 -0.0507  0.2546
 7721TIP3    H247359   3.918   1.649   3.665  0.0006  0.2154 -0.0784
 7722TIP3   OH247360   0.119   1.550   1.524  0.3813  0.0352  0.3198
 7722TIP3    H147361   0.031   1.522   1.497 -0.4176  0.7179  2.0017
 7722TIP3    H247362   0.163   1.469   1.549  0.4173 -0.3668 -0.9745
 7723TIP3   OH247363   2.424   0.186   1.112  0.3494  0.1051 -0.4972
 7723TIP3    H147364   2.505   0.149   1.146  0.4696  0.4128 -0.4420
 7723TIP3    H247365   2.395   0.246   1.180 -0.9775 -1.4437  0.3720
 7724TIP3   OH247366   1.913   0.558   1.407 -0.1366  0.0547  0.0357
 7724TIP3    H147367   1.872   0.545   1.321  0.2253  1.1580 -0.3144
 7724TIP3    H247368   1.917   0.653   1.418  1.3001 -0.0396  0.5511
 7725TIP3   OH247369   6.397   2.996   3.707  0.1606 -0.1460  0.3565
 7725TIP3    H147370   6.393   2.945   3.788 -0.3077 -0.8533 -0.1031
 7725TIP3    H247371   6.480   2.969   3.667 -0.2832 -0.8734 -0.0894
 7726TIP3   OH247372   3.180   2.845   0.842 -0.0654 -0.2823  0.1259
 7726TIP3    H147373   3.106   2.904   0.854 -0.0891 -0.7115  2.5042
 7726TIP3    H247374   3.255   2.904   0.830 -0.2694  0.2182  1.2495
 7727TIP3   OH247375   3.038   4.632   1.617 -0.2067 -0.2968  0.0247
 7727TIP3    H147376   3.070   4.719   1.596  0.5935 -0.1102  1.7960
 7727TIP3    H247377   2.943   4.639   1.613 -0.1250  0.3601 -0.9073
 7728TIP3   OH247378   0.973   1.574   2.691 -0.7685 -0.1684  0.0500
 7728TIP3    H147379   1.066   1.594   2.699 -0.6990 -1.1287  2.5662
 7728TIP3    H247380   0.937   1.595   2.777 -2.6324 -1.0254 -0.4796
 7729TIP3   OH247381   1.469   1.958   1.264  0.0560 -0.2660 -0.1162
 7729TIP3    H147382   1.478   1.912   1.347  0.7227 -0.9939 -0.5830
 7729TIP3    H247383   1.495   2.048   1.284  0.0568 -0.3968  0.4922
 7730TIP3   OH247384   2.375   1.624   3.424  0.0346  0.1860 -0.2114
 7730TIP3    H147385   2.310   1.694   3.420  1.2099  1.3123 -0.4373
 7730TIP3    H247386   2.396   1.616   3.517 -0.8374 -0.5849 -0.0750
 7731TIP3   OH247387   3.398   6.618   0.822 -0.3581  0.3214 -0.4044
 7731TIP3    H147388   3.304   6.632   0.806 -0.7201 -1.2814  0.1846
 7731TIP3    H247389   3.405   6.525   0.843  1.2883  0.5665  0.2289
 7732TIP3   OH247390   3.814   4.039   3.113 -1.0085 -0.4257  0.2971
 7732TIP3    H147391   3.797   4.099   3.041 -0.5822 -0.6111  0.0348
 7732TIP3    H247392   3.835   4.096   3.187 -3.0145 -0.1856  0.7197
 7733TIP3   OH247393   3.290   5.935   1.392  0.0749 -0.1989 -0.4443
 7733TIP3    H147394   3.227   5.978   1.334 -0.3031 -2.2460 -1.6463
 7733TIP3    H247395   3.375   5.949   1.349  0.1440  0.5072 -0.0912
 7734TIP3   OH247396   6.255   2.865   2.998 -0.3683 -0.1631 -0.2797
 7734TIP3    H147397   6.230   2.940   3.052 -0.0308  0.6101 -1.1633
 7734TIP3    H247398   6.175   2.843   2.950 -0.4524 -0.3420 -0.0607
 7735TIP3   OH247399   0.412   5.698   1.320  0.0414 -0.1729 -0.0441
 7735TIP3    H147400   0.461   5.742   1.390  1.9441 -2.3954  0.1312
 7735TIP3    H247401   0.336   5.661   1.365 -1.0818  1.9609 -0.0283
 7736TIP3   OH247402   1.465   1.191   2.347 -0.1705 -0.4773 -0.6626
 7736TIP3    H147403   1.507   1.214   2.430  0.0608 -0.0708 -0.8894
 7736TIP3    H247404   1.530   1.137   2.302 -0.7619 -1.7102 -0.0770
 7737TIP3   OH247405   4.793   4.089   2.422  0.1320 -0.2110  0.6445
 7737TIP3    H147406   4.778   4.006   2.376  1.8438  1.4683 -3.4343
 7737TIP3    H247407   4.712   4.139   2.407 -0.9308 -1.0317  3.1664
 7738TIP3   OH247408   4.041   1.044   2.160 -0.2051 -0.0916 -0.2309
 7738TIP3    H147409   4.060   0.957   2.194  1.4320 -0.3240 -1.6562
 7738TIP3    H247410   4.093   1.052   2.080  0.1105  2.3853  0.1223
 7739TIP3   OH247411   0.006   0.683   3.292  0.1761 -0.6818 -0.1299
 7739TIP3    H147412  -0.055   0.622   3.333 -0.5770  0.1839  0.0660
 7739TIP3    H247413  -0.050   0.746   3.246  0.7375  1.6417  2.1020
 7740TIP3   OH247414   6.537   6.518   0.943  0.2928 -0.0214  0.2326
 7740TIP3    H147415   6.473   6.457   0.979  0.2223 -0.8991 -1.2693
 7740TIP3    H247416   6.520   6.601   0.987  0.3546 -1.0556  2.2914
 7741TIP3   OH247417   6.587   5.356   3.358  0.1457  0.0388 -0.0799
 7741TIP3    H147418   6.658   5.394   3.305  1.3506  1.0197  2.1024
 7741TIP3    H247419   6.508   5.369   3.306  1.1307  1.8178 -1.2243
 7742TIP3   OH247420   2.663   1.720   2.051 -0.5352 -0.0272  0.2254
 7742TIP3    H147421   2.642   1.631   2.080  0.1874 -0.7958 -1.5050
 7742TIP3    H247422   2.757   1.728   2.066 -0.3268 -0.1035 -0.9819
 7743TIP3   OH247423   2.603   1.838   2.609 -0.1992 -0.1793 -0.6375
 7743TIP3    H147424   2.516   1.832   2.570 -0.5415  1.0286 -0.0862
 7743TIP3    H247425   2.660   1.860   2.535 -0.3973 -0.6487 -0.9395
 7744TIP3   OH247426   5.742   5.264   3.468  0.1229 -0.1435 -0.1501
 7744TIP3    H147427   5.739   5.222   3.555  0.9439  0.1182  0.0145
 7744TIP3    H247428   5.730   5.191   3.407 -0.6647 -0.3064  0.1768
 7745TIP3   OH247429   5.840   1.997   1.461  0.4340  0.1274  0.7522
 7745TIP3    H147430   5.775   1.929   1.479  0.3213  0.4453  1.5950
 7745TIP3    H247431   5.906   1.953   1.408 -0.5764 -0.1404 -0.3266
 7746TIP3   OH247432   5.278   0.868   2.873 -0.3796 -0.2563 -0.0447
 7746TIP3    H147433   5.304   0.956   2.900  1.7497  0.6019 -4.1506
 7746TIP3    H247434   5.358   0.828   2.841 -1.5453 -3.2623  0.5045
 7747TIP3   OH247435   4.183   5.382   3.495 -0.1330 -0.4635 -0.2451
 7747TIP3    H147436   4.237   5.403   3.419  0.4132 -0.8458  0.0307
 7747TIP3    H247437   4.229   5.310   3.538  1.1352  1.5616  2.0494
 7748TIP3   OH247438   1.720   1.784   0.649 -0.0825  0.1697 -0.5246
 7748TIP3    H147439   1.744   1.870   0.616  1.4376 -0.0052  0.0440
 7748TIP3    H247440   1.800   1.750   0.688 -1.5214 -0.0104  2.5662
 7749TIP3   OH247441   0.322   2.644   1.207 -0.4148  0.1056 -0.1486
 7749TIP3    H147442   0.288   2.732   1.224 -0.4574 -0.0211  0.4584
 7749TIP3    H247443   0.361   2.617   1.290 -1.5354 -0.9441  0.0699
 7750TIP3   OH247444   6.578   3.461   1.479  0.3572  0.0256 -0.9638
 7750TIP3    H147445   6.605   3.518   1.551 -1.7491  1.2074 -1.0296
 7750TIP3    H247446   6.505   3.508   1.437  0.7864 -1.1354 -3.1876
 7751TIP3   OH247447   4.045   1.947   1.645 -0.5362  1.3680  0.4324
 7751TIP3    H147448   4.026   1.986   1.559 -1.6830  1.6439  0.7962
 7751TIP3    H247449   3.997   1.864   1.644  0.4506  0.7831  0.3470
 7752TIP3   OH247450   3.950   2.369   0.977 -0.4618 -0.1283 -0.2276
 7752TIP3    H147451   3.893   2.308   1.024  0.2435 -0.5260  0.1234
 7752TIP3    H247452   3.916   2.456   1.001  0.5707 -0.2723  1.9657
 7753TIP3   OH247453   2.728   2.249   2.738  0.0034  0.1572  0.9207
 7753TIP3    H147454   2.821   2.233   2.755  0.0689 -0.9317 -0.3224
 7753TIP3    H247455   2.683   2.179   2.784 -0.0820 -0.3243  0.1158
 7754TIP3   OH247456   0.159   2.892   2.125  0.4159 -0.3573 -0.3555
 7754TIP3    H147457   0.169   2.855   2.038 -0.6891 -0.7321 -0.3419
 7754TIP3    H247458   0.225   2.847   2.178  0.0112 -1.3198 -0.6452
 7755TIP3   OH247459   6.452   6.211   2.034 -0.0298 -0.2385  0.7107
 7755TIP3    H147460   6.372   6.262   2.050 -0.6014 -0.4962 -1.1246
 7755TIP3    H247461   6.457   6.203   1.939  1.7361 -0.9709  0.8346
 7756TIP3   OH247462   4.343   4.483   2.399  0.4952  0.3213 -0.2665
 7756TIP3    H147463   4.312   4.417   2.462  0.3547  1.9100  1.4212
 7756TIP3    H247464   4.266   4.504   2.347  0.1721  0.1908  0.1504
 7757TIP3   OH247465   3.717   1.794   0.449 -0.2053 -0.3562  0.1466
 7757TIP3    H147466   3.783   1.818   0.515  0.4015  0.0637 -0.5935
 7757TIP3    H247467   3.768   1.766   0.373 -0.8964 -0.8552 -0.1447
 7758TIP3   OH247468   5.794   4.263   4.564 -0.1592 -0.1784 -0.4935
 7758TIP3    H147469   5.717   4.214   4.590  0.6034 -0.6395  1.0108
 7758TIP3    H247470   5.810   4.324   4.636  0.9095 -0.1425 -0.7392
 7759TIP3   OH247471   6.288   3.612   3.216  0.0834  0.3451 -0.0209
 7759TIP3    H147472   6.319   3.535   3.169 -0.0829 -0.9940  1.9343
 7759TIP3    H247473   6.364   3.671   3.220  1.3672 -1.2944  1.5135
 7760TIP3   OH247474   5.003   6.262   1.917 -0.1808  0.5006 -0.0184
 7760TIP3    H147475   4.936   6.212   1.871  1.4383  0.0259 -1.9825
 7760TIP3    H247476   5.066   6.197   1.947  0.3671  1.1032  0.1679
 7761TIP3   OH247477   6.447   5.982   4.223  0.2864  0.0094  0.1271
 7761TIP3    H147478   6.441   6.078   4.233  0.2963  0.0660 -0.4007
 7761TIP3    H247479   6.411   5.965   4.136 -2.7387 -0.7864  1.3968
 7762TIP3   OH247480   3.388   1.660   0.977 -0.3551  0.1807  0.3916
 7762TIP3    H147481   3.478   1.629   0.965 -0.3290  0.5675 -0.4647
 7762TIP3    H247482   3.362   1.693   0.891 -0.3802  2.5733  1.2466
 7763TIP3   OH247483   2.778   6.460   0.841 -0.0711  0.0496 -0.2530
 7763TIP3    H147484   2.691   6.432   0.812 -0.6734  1.1336  0.4371
 7763TIP3    H247485   2.777   6.555   0.834  1.1881  0.0583 -0.5446
 7764TIP3   OH247486   3.987   5.844   3.761  0.0325 -0.2867 -0.5106
 7764TIP3    H147487   3.962   5.863   3.852  0.3121 -0.1041 -0.4699
 7764TIP3    H247488   3.955   5.755   3.746  1.0419 -0.7966  0.1685
 7765TIP3   OH247489   2.446   3.302   0.981 -0.1266  0.3447 -0.3961
 7765TIP3    H147490   2.393   3.281   1.058 -0.2974  1.9530 -0.0425
 7765TIP3    H247491   2.525   3.343   1.017 -0.4540  1.6259 -1.0795
 7766TIP3   OH247492   1.642   6.588   2.596  0.4139  0.3798 -0.6782
 7766TIP3    H147493   1.679   6.500   2.602 -0.2479 -0.1447 -3.1616
 7766TIP3    H247494   1.557   6.582   2.639  0.8626  0.1221  0.1814
 7767TIP3   OH247495   2.911   2.021   1.463 -0.0574 -0.0269  0.5169
 7767TIP3    H147496   2.956   2.035   1.380  1.6664  0.0595  1.4174
 7767TIP3    H247497   2.951   1.941   1.499 -2.1206 -1.1676  0.4147
 7768TIP3   OH247498   2.550   4.005   2.223  0.7909 -0.4811 -0.7894
 7768TIP3    H147499   2.576   4.080   2.169  0.5484  1.0533  1.1216
 7768TIP3    H247500   2.457   4.020   2.241  1.3572  0.2792  1.8480
 7769TIP3   OH247501   0.967   0.130   1.536  0.0646  0.2993  0.4734
 7769TIP3    H147502   1.029   0.193   1.499  1.6651 -1.4905 -0.1057
 7769TIP3    H247503   1.023   0.060   1.572 -1.5621  0.1088  2.8546
 7770TIP3   OH247504   0.435   3.643   0.686  0.1847 -0.6117 -0.2307
 7770TIP3    H147505   0.497   3.714   0.703 -0.0215 -0.4153 -0.2942
 7770TIP3    H247506   0.353   3.687   0.666 -0.4062 -0.8610  1.4392
 7771TIP3   OH247507   6.179   6.607   2.231  0.0421  0.0804 -0.7413
 7771TIP3    H147508   6.112   6.578   2.293 -0.2257 -0.7300 -1.3921
 7771TIP3    H247509   6.195   6.698   2.255  1.4118 -0.7433  1.8184
 7772TIP3   OH247510   3.998   2.794   0.799  0.2680 -0.8518 -0.1843
 7772TIP3    H147511   4.079   2.757   0.764 -0.6272 -2.6924 -0.4303
 7772TIP3    H247512   3.930   2.731   0.774 -1.4412  1.2010 -0.9805
 7773TIP3   OH247513   4.389   5.230   2.300 -0.1907 -0.1355  0.3659
 7773TIP3    H147514   4.306   5.276   2.315  0.3687  0.8758  0.4073
 7773TIP3    H247515   4.410   5.248   2.209  0.6097  0.6804  0.6941
 7774TIP3   OH247516   2.397   4.378   2.261 -0.0484  0.1726  0.0815
 7774TIP3    H147517   2.434   4.354   2.177 -0.5917 -0.0557 -0.0999
 7774TIP3    H247518   2.400   4.297   2.313 -1.6052 -0.2484 -0.4279
 7775TIP3   OH247519   1.260   1.666   2.789 -0.4406  0.0649 -0.4035
 7775TIP3    H147520   1.256   1.761   2.774  1.2844  0.1931 -0.2224
 7775TIP3    H247521   1.264   1.657   2.884 -1.2323 -0.2528 -0.3855
 7776TIP3   OH247522   5.366   1.123   1.096  0.4801 -0.2000  0.4138
 7776TIP3    H147523   5.451   1.103   1.055  0.5045  0.0629  0.3334
 7776TIP3    H247524   5.387   1.133   1.189  0.2986 -1.5694  0.6236
 7777TIP3   OH247525   4.280   2.281   1.930 -0.0772 -0.0576 -0.5884
 7777TIP3    H147526   4.285   2.373   1.904 -0.1741 -0.4046 -1.9287
 7777TIP3    H247527   4.268   2.234   1.848  0.4438 -1.3163  0.0299
 7778TIP3   OH247528   2.777   1.683   1.791  0.1642 -0.1550 -0.0579
 7778TIP3    H147529   2.742   1.722   1.871 -0.7181  1.9073 -1.3729
 7778TIP3    H247530   2.738   1.596   1.788 -1.2285  0.3994  0.8560
 7779TIP3   OH247531   3.175   6.470   3.665 -0.1291 -0.1633 -0.1791
 7779TIP3    H147532   3.157   6.530   3.737  1.1196  0.9463 -0.7414
 7779TIP3    H247533   3.151   6.519   3.586 -0.0670 -0.8029 -0.6052
 7780TIP3   OH247534   5.478   4.249   3.232  0.2133  0.2484 -0.5098
 7780TIP3    H147535   5.492   4.213   3.144 -3.2825  1.0727 -1.5679
 7780TIP3    H247536   5.432   4.180   3.279  1.1679  0.1982  0.3885
 7781TIP3   OH247537   0.301   4.941   0.569 -0.0420 -0.2038 -0.2486
 7781TIP3    H147538   0.250   4.862   0.585 -0.4006  0.1146  0.2067
 7781TIP3    H247539   0.241   4.999   0.522  0.4578 -0.4758 -1.2508
 7782TIP3   OH247540   4.289   0.675   3.038  0.1382 -0.0673  0.1296
 7782TIP3    H147541   4.260   0.584   3.046  0.8532 -0.4132 -0.9737
 7782TIP3    H247542   4.320   0.682   2.948  1.1202  0.9676  0.5257
 7783TIP3   OH247543   2.194   0.252   1.983  0.8887 -0.4938 -0.0948
 7783TIP3    H147544   2.106   0.271   2.015  0.2019 -2.3094 -0.7806
 7783TIP3    H247545   2.199   0.294   1.897  1.7581  2.0145  1.0701
 7784TIP3   OH247546   3.873   1.467   0.393  0.0114  0.1363 -0.4464
 7784TIP3    H147547   3.888   1.374   0.407 -0.1409 -0.5876 -4.0977
 7784TIP3    H247548   3.788   1.472   0.348  0.1660  1.9815 -0.6356
 7785TIP3   OH247549   6.205   4.279   2.266 -0.2118 -0.1223  0.8208
 7785TIP3    H147550   6.216   4.189   2.235 -0.5367 -0.1390  0.7510
 7785TIP3    H247551   6.118   4.280   2.306 -2.1884  1.2104 -2.9842
 7786TIP3   OH247552   2.568   2.894   1.253  0.1189 -0.1207 -0.4559
 7786TIP3    H147553   2.619   2.844   1.317 -0.5303  0.4029  0.4961
 7786TIP3    H247554   2.632   2.927   1.191  0.8498 -0.1196  0.2819
 7787TIP3   OH247555   2.297   0.082   0.823  0.1063 -0.0300  0.1278
 7787TIP3    H147556   2.208   0.116   0.834 -0.1449 -1.1976  2.7191
 7787TIP3    H247557   2.326   0.064   0.913  2.3685 -1.1557 -0.7560
 7788TIP3   OH247558   0.234   1.308   1.627  0.0866 -0.5216  0.3409
 7788TIP3    H147559   0.230   1.219   1.591 -3.6251 -0.5635  0.4648
 7788TIP3    H247560   0.282   1.299   1.708  1.7485 -1.9557 -0.7318
 7789TIP3   OH247561   3.327   2.947   3.583 -0.0038 -0.1167 -0.0402
 7789TIP3    H147562   3.238   2.939   3.548 -0.3056 -2.4061  1.1181
 7789TIP3    H247563   3.349   3.039   3.568 -2.1612  0.2852 -1.2669
 7790TIP3   OH247564   1.666   3.213   2.309 -0.4977 -0.0661 -0.2879
 7790TIP3    H147565   1.694   3.177   2.393 -0.3942 -0.9128 -0.6785
 7790TIP3    H247566   1.572   3.228   2.320 -0.9492 -2.2719 -0.7328
 7791TIP3   OH247567   4.973   1.357   1.489 -0.3406  0.8339  0.2368
 7791TIP3    H147568   4.998   1.358   1.582  0.0993  0.9979  0.1184
 7791TIP3    H247569   5.051   1.388   1.443  0.1220 -1.0827 -0.3492
 7792TIP3   OH247570   1.789   3.654   1.632  0.1619  0.8168 -0.7306
 7792TIP3    H147571   1.699   3.642   1.603  0.6624  1.0574 -2.4976
 7792TIP3    H247572   1.842   3.610   1.566  1.2938 -1.8884  1.7815
 7793TIP3   OH247573   6.222   5.156   2.101  0.1776  0.5319  0.3117
 7793TIP3    H147574   6.291   5.091   2.090 -0.8819 -0.3803 -1.4904
 7793TIP3    H247575   6.238   5.220   2.031  0.5617  1.6386  1.3759
 7794TIP3   OH247576   0.625   0.538   0.951  0.2619  0.3359 -0.0089
 7794TIP3    H147577   0.718   0.554   0.971  0.0120  0.5324  1.1028
 7794TIP3    H247578   0.617   0.443   0.949  0.6538  0.3144 -0.9923
 7795TIP3   OH247579   3.774   5.873   3.083 -0.1376 -0.0040  0.2110
 7795TIP3    H147580   3.835   5.828   3.141 -0.1734 -0.5316 -0.1555
 7795TIP3    H247581   3.830   5.926   3.027 -0.0665  0.0947  0.3752
 7796TIP3   OH247582   1.067   3.264   1.221 -0.1428 -0.0441  0.4800
 7796TIP3    H147583   1.071   3.266   1.126 -1.2690  0.0920  0.4187
 7796TIP3    H247584   0.975   3.279   1.242  0.1736  0.5129  1.6054
 7797TIP3   OH247585   0.141   6.476   2.178 -0.1573  0.4185 -0.1076
 7797TIP3    H147586   0.175   6.395   2.140 -1.3867 -0.2879  0.2307
 7797TIP3    H247587   0.190   6.487   2.260 -1.7560 -1.4773  1.2179
 7798TIP3   OH247588   6.105   3.942   0.462 -0.3757 -0.0826  0.2677
 7798TIP3    H147589   6.191   3.909   0.438 -0.6384 -0.6885  0.1147
 7798TIP3    H247590   6.057   3.864   0.491 -1.7343 -0.2487 -2.1580
 7799TIP3   OH247591   0.041   2.035   2.118 -0.2700 -0.2380 -0.0495
 7799TIP3    H147592  -0.001   1.993   2.194 -0.3624 -0.9356 -0.4815
 7799TIP3    H247593  -0.006   2.118   2.108 -1.2143 -0.7778 -0.2135
 7800TIP3   OH247594   2.349   2.525   0.809 -0.1945  0.2412  0.2108
 7800TIP3    H147595   2.275   2.583   0.828  0.5690  2.7482 -3.3857
 7800TIP3    H247596   2.426   2.573   0.840  0.1643 -1.1837  1.6204
 7801TIP3   OH247597   4.086   2.644   2.125 -0.4787 -0.1327  0.1217
 7801TIP3    H147598   3.997   2.608   2.129 -1.1723  1.4574 -0.1778
 7801TIP3    H247599   4.123   2.624   2.211 -0.2714 -2.7764 -0.4853
 7802TIP3   OH247600   3.232   2.070   1.654  0.3440 -0.2568  0.7716
 7802TIP3    H147601   3.163   2.026   1.604  0.8742 -0.6566  0.3818
 7802TIP3    H247602   3.305   2.078   1.592 -0.4945  3.3337  0.0436
 7803TIP3   OH247603   1.125   0.636   3.020 -0.6153  0.5909  0.4972
 7803TIP3    H147604   1.104   0.685   2.940  0.6060  1.8123  0.8983
 7803TIP3    H247605   1.046   0.642   3.073 -0.6283  1.8030  0.3641
 7804TIP3   OH247606   1.882   5.187   3.216  0.7613  0.2338 -0.3484
 7804TIP3    H147607   1.954   5.249   3.207 -0.0970  1.2991 -0.0570
 7804TIP3    H247608   1.850   5.173   3.127  1.0340  0.1109 -0.4280
 7805TIP3   OH247609   0.377   1.700   0.687  0.4633  0.8265 -0.5491
 7805TIP3    H147610   0.397   1.668   0.599 -1.1815  1.5103 -1.2265
 7805TIP3    H247611   0.448   1.760   0.708 -0.2220  2.3824 -2.3707
 7806TIP3   OH247612   3.539   0.753   1.867  0.4616 -0.6139  0.1690
 7806TIP3    H147613   3.508   0.791   1.786  2.0042  1.4888  0.4647
 7806TIP3    H247614   3.519   0.659   1.860  0.4993 -0.4793 -2.5804
 7807TIP3   OH247615   6.313   1.799   2.190 -0.1509 -0.2483  1.1517
 7807TIP3    H147616   6.346   1.885   2.216  0.4089 -0.5278  1.3638
 7807TIP3    H247617   6.246   1.778   2.255 -0.9963  0.4560  0.5441
 7808TIP3   OH247618   4.244   3.105   0.708 -0.1507 -0.1280  0.3107
 7808TIP3    H147619   4.148   3.098   0.700 -0.2432  1.0899  0.1931
 7808TIP3    H247620   4.277   3.024   0.668 -1.1238 -0.4250  0.0767
 7809TIP3   OH247621   5.653   1.084   0.569 -0.2443  0.1884 -0.0664
 7809TIP3    H147622   5.717   1.026   0.610 -1.9079 -1.3210  0.4944
 7809TIP3    H247623   5.690   1.104   0.483  0.0661 -2.3164 -0.5784
 7810TIP3   OH247624   1.423   0.484   1.081  0.1488 -0.1057 -0.0515
 7810TIP3    H147625   1.503   0.495   1.133 -0.4731  1.4693  0.6329
 7810TIP3    H247626   1.364   0.552   1.112 -1.0688 -0.5172 -1.3266
 7811TIP3   OH247627   0.221   1.285   1.175 -0.3229 -0.2498  0.1030
 7811TIP3    H147628   0.203   1.356   1.114 -0.9007 -0.7446 -0.3054
 7811TIP3    H247629   0.317   1.281   1.180 -0.2831  1.0783  0.7517
 7812TIP3   OH247630   3.989   1.010   1.050 -0.7039  0.1377 -0.3928
 7812TIP3    H147631   3.987   0.949   1.124  1.2507 -0.5128 -0.8325
 7812TIP3    H247632   3.991   0.953   0.973  1.0816  0.7234 -0.8140
 7813TIP3   OH247633   1.593   0.628   3.739  0.1345  0.6819 -0.4165
 7813TIP3    H147634   1.656   0.556   3.741  1.3765  1.7011 -1.3737
 7813TIP3    H247635   1.507   0.585   3.739  0.7288 -0.7389  2.3173
 7814TIP3   OH247636   3.537   2.229   1.199  0.7873 -0.0828 -0.1030
 7814TIP3    H147637   3.524   2.179   1.279  2.3048 -0.2059  0.1034
 7814TIP3    H247638   3.497   2.314   1.217  3.6965  0.9868  2.0040
 7815TIP3   OH247639   1.377   1.689   0.607 -0.4747 -0.2255  0.4637
 7815TIP3    H147640   1.438   1.762   0.605 -0.4698 -0.2289  0.4960
 7815TIP3    H247641   1.332   1.696   0.691 -0.4717 -0.2616  0.4685
 7816TIP3   OH247642   3.355   1.114   0.704 -0.2112  0.3837  0.0688
 7816TIP3    H147643   3.410   1.180   0.661  1.6880 -0.4425  1.1078
 7816TIP3    H247644   3.287   1.165   0.748 -0.1694  1.4640 -1.0496
 7817TIP3   OH247645   5.676   3.287   3.844 -0.3574 -0.1111  0.2149
 7817TIP3    H147646   5.644   3.367   3.887 -0.9833  0.8525 -1.8850
 7817TIP3    H247647   5.753   3.262   3.895  0.3278  2.2820  0.4995
 7818TIP3   OH247648   4.137   5.817   2.087 -0.3360 -0.2054  0.3172
 7818TIP3    H147649   4.074   5.782   2.025  0.6372  1.3603 -1.6879
 7818TIP3    H247650   4.106   5.907   2.103  0.5282  0.0702  0.4814
 7819TIP3   OH247651   1.156   5.729   2.917  0.5199 -0.5390 -0.2480
 7819TIP3    H147652   1.070   5.738   2.957  0.2688 -2.3510 -0.2970
 7819TIP3    H247653   1.216   5.719   2.991  0.3099 -1.9694 -0.2513
 7820TIP3   OH247654   4.756   4.376   1.563 -0.2008  0.0192  0.2120
 7820TIP3    H147655   4.826   4.437   1.540 -0.2876  0.3396  0.7864
 7820TIP3    H247656   4.796   4.315   1.625 -0.3488  0.0111  0.2989
 7821TIP3   OH247657   4.277   1.916   3.274 -0.0891  0.2665  0.8240
 7821TIP3    H147658   4.357   1.895   3.225 -0.4513 -0.9124  0.7213
 7821TIP3    H247659   4.300   1.995   3.324  0.9852  0.2162  0.4323
 7822TIP3   OH247660   3.828   4.257   1.170  0.1940  0.0601 -0.2081
 7822TIP3    H147661   3.763   4.192   1.142  0.4609  0.4090 -1.7668
 7822TIP3    H247662   3.776   4.335   1.190 -0.0117 -0.2086  0.3222
 7823TIP3   OH247663   1.832   0.396   0.765 -0.3928 -0.0069  0.4597
 7823TIP3    H147664   1.745   0.386   0.805 -0.4578  0.1277  0.3532
 7823TIP3    H247665   1.821   0.360   0.677 -0.2107 -0.4401  0.6138
 7824TIP3   OH247666   1.584   2.828   3.045  0.0272  0.3337  0.6315
 7824TIP3    H147667   1.676   2.828   3.072 -0.1968  1.7463  1.4963
 7824TIP3    H247668   1.574   2.747   2.994  1.8687  0.3992  0.0861
 7825TIP3   OH247669   1.410   1.128   2.987 -0.0876  0.4085  0.0119
 7825TIP3    H147670   1.493   1.173   3.001 -1.7579  3.2379  1.9703
 7825TIP3    H247671   1.403   1.119   2.892  1.9133  1.1679 -0.2458
 7826TIP3   OH247672   6.039   3.772   2.411 -0.7982 -0.1096 -0.0769
 7826TIP3    H147673   5.981   3.712   2.362 -0.3274 -1.4998  1.0122
 7826TIP3    H247674   6.005   3.771   2.500 -2.6207  3.6275 -0.5293
 7827TIP3   OH247675   2.158   5.655   2.266  0.1543  0.0031 -0.0794
 7827TIP3    H147676   2.145   5.735   2.216 -0.4229  0.2794  0.5052
 7827TIP3    H247677   2.169   5.684   2.357 -0.0281 -0.5665  0.1332
 7828TIP3   OH247678   5.755   3.666   3.547  0.0005 -0.3442 -0.1090
 7828TIP3    H147679   5.801   3.717   3.614 -0.7730 -0.1968  0.3180
 7828TIP3    H247680   5.797   3.581   3.549 -1.1036 -0.8999  1.7764
 7829TIP3   OH247681   6.090   4.454   2.873  0.1965  0.4958 -0.3354
 7829TIP3    H147682   6.124   4.543   2.884 -0.0296  0.4425  1.1103
 7829TIP3    H247683   6.167   4.397   2.877  0.2459  0.5717 -0.1773
 7830TIP3   OH247684   3.442   5.428   3.300 -0.1620 -0.3550 -0.5429
 7830TIP3    H147685   3.521   5.443   3.249 -0.4210 -1.9037 -1.4549
 7830TIP3    H247686   3.474   5.414   3.389  0.4357  0.5900 -0.5852
 7831TIP3   OH247687   4.595   2.043   2.720  0.6714 -0.3579 -0.3844
 7831TIP3    H147688   4.673   2.086   2.755  0.3954  1.4186 -1.8455
 7831TIP3    H247689   4.618   2.021   2.630 -0.6340  0.5639 -0.9656
 7832TIP3   OH247690   4.931   0.819   0.806 -0.3610  0.0410 -0.5118
 7832TIP3    H147691   4.986   0.885   0.850 -0.6139 -0.0086 -0.1237
 7832TIP3    H247692   4.942   0.740   0.858 -0.6896 -0.0089 -0.5217
 7833TIP3   OH247693   6.150   0.172   3.940  0.0961 -0.0302 -0.0301
 7833TIP3    H147694   6.178   0.087   3.905  3.1659  0.4757  0.8618
 7833TIP3    H247695   6.186   0.236   3.880 -0.3338  0.6880  0.4642
 7834TIP3   OH247696   4.045   1.451   0.815 -0.5379 -0.0171  0.4552
 7834TIP3    H147697   4.054   1.414   0.902  0.2165 -0.3002  0.2654
 7834TIP3    H247698   4.129   1.434   0.773 -0.6334  0.7654 -0.0760
 7835TIP3   OH247699   6.548   0.783   1.461 -0.5616 -0.4150 -0.3802
 7835TIP3    H147700   6.490   0.717   1.498  0.2314 -1.9890 -1.8193
 7835TIP3    H247701   6.626   0.779   1.515 -0.4732 -0.7553 -0.5291
 7836TIP3   OH247702   4.186   0.582   0.449  0.5660 -0.4246 -0.5323
 7836TIP3    H147703   4.211   0.494   0.420  0.8272 -0.5371  0.0197
 7836TIP3    H247704   4.253   0.639   0.412  1.0014 -0.5899 -0.0174
 7837TIP3   OH247705   3.097   5.159   1.206  0.1349  0.4885  0.0228
 7837TIP3    H147706   3.095   5.252   1.183  0.3538  0.3552 -0.5516
 7837TIP3    H247707   3.062   5.115   1.129 -0.6250  0.1367  0.5610
 7838TIP3   OH247708   4.674   1.436   4.290 -0.0207  0.0680 -0.9478
 7838TIP3    H147709   4.705   1.474   4.208  1.9059 -0.0236 -0.2949
 7838TIP3    H247710   4.753   1.419   4.341 -1.1909  0.9061  1.3024
 7839TIP3   OH247711   0.323   4.915   2.810  0.8120  0.2541  0.5496
 7839TIP3    H147712   0.229   4.896   2.808  1.0439 -0.9287  0.3756
 7839TIP3    H247713   0.337   4.972   2.734  0.4835 -0.8011 -0.3276
 7840TIP3   OH247714   1.997   4.819   2.560 -0.2365 -0.4336 -0.0811
 7840TIP3    H147715   1.980   4.739   2.509  0.8000 -0.5561 -0.2433
 7840TIP3    H247716   1.961   4.799   2.647 -1.1374 -0.5867 -0.4719
 7841TIP3   OH247717   1.472   6.322   3.252 -0.0225 -0.5289  0.0600
 7841TIP3    H147718   1.514   6.319   3.338 -1.2812 -2.2763  0.6898
 7841TIP3    H247719   1.412   6.247   3.252 -1.1560  0.2886 -1.7856
 7842TIP3   OH247720   2.976   2.515   3.680 -0.7496 -0.1708  0.5400
 7842TIP3    H147721   2.927   2.443   3.640 -1.6578 -0.0543  1.3955
 7842TIP3    H247722   2.992   2.576   3.609 -0.0270 -1.1765 -0.1871
 7843TIP3   OH247723   4.023   1.695   1.362  0.2845  0.7339  0.1358
 7843TIP3    H147724   4.108   1.737   1.372  1.1271 -0.7299 -0.6525
 7843TIP3    H247725   4.001   1.704   1.269  0.6786 -0.8663 -0.1448
 7844TIP3   OH247726   0.212   0.955   1.906 -0.4307 -0.4013 -0.4442
 7844TIP3    H147727   0.187   0.934   1.816 -1.8350 -1.6728  0.1924
 7844TIP3    H247728   0.180   1.045   1.919 -2.4609 -1.0584 -0.4989
 7845TIP3   OH247729   1.228   4.664   1.283 -0.1672  0.3326 -0.5190
 7845TIP3    H147730   1.310   4.670   1.331 -0.9525 -0.5243  0.9817
 7845TIP3    H247731   1.224   4.745   1.232  0.4570  1.5408  1.2596
 7846TIP3   OH247732   6.276   6.143   1.767 -0.2676 -0.1385  0.1612
 7846TIP3    H147733   6.339   6.193   1.715  1.6345 -0.0907  2.3527
 7846TIP3    H247734   6.195   6.194   1.763  0.1880  0.4840 -1.6821
 7847TIP3   OH247735   4.649   0.691   4.609  0.1237  0.0695 -0.6534
 7847TIP3    H147736   4.635   0.782   4.634  0.3887  0.1266 -0.7029
 7847TIP3    H247737   4.717   0.696   4.542 -0.2109 -0.1212 -1.0131
 7848TIP3   OH247738   3.799   0.756   1.717  0.0614  0.2034  0.3872
 7848TIP3    H147739   3.758   0.767   1.631  1.1634 -1.8031 -0.4314
 7848TIP3    H247740   3.725   0.757   1.779 -0.7584  1.4223 -0.5526
 7849TIP3   OH247741   3.730   3.155   1.604  0.5247 -0.0019  0.0506
 7849TIP3    H147742   3.788   3.231   1.599 -1.7367  1.9005  0.7427
 7849TIP3    H247743   3.682   3.166   1.686 -1.0417 -1.2833 -0.6304
 7850TIP3   OH247744   1.930   1.015   2.866 -0.5710 -0.3700 -0.1636
 7850TIP3    H147745   1.958   1.006   2.957 -2.2999  1.6056  0.6510
 7850TIP3    H247746   1.999   0.973   2.815 -0.2416 -2.8047  2.0972
 7851TIP3   OH247747   3.649   1.746   3.368 -0.7890 -0.3490  0.0782
 7851TIP3    H147748   3.557   1.763   3.345 -1.0124 -0.6792  0.6989
 7851TIP3    H247749   3.649   1.741   3.463 -0.0090  0.2694  0.1173
 7852TIP3   OH247750   0.890   1.289   2.779  0.1577  0.2606 -0.6042
 7852TIP3    H147751   0.895   1.370   2.729  0.3652  1.6765  1.6146
 7852TIP3    H247752   0.808   1.296   2.827  0.9171 -0.1234  0.7776
 7853TIP3   OH247753   6.469   0.708   2.722 -0.2149  0.0531 -0.4203
 7853TIP3    H147754   6.529   0.765   2.673 -0.3999  0.6892  0.0835
 7853TIP3    H247755   6.402   0.682   2.658  0.2236 -0.1231 -0.8139
 7854TIP3   OH247756   0.981   0.857   1.063 -0.3426  0.1632  0.1623
 7854TIP3    H147757   1.011   0.943   1.092  0.2237 -0.1440  0.4949
 7854TIP3    H247758   1.012   0.850   0.973 -1.1753  0.6745 -0.1753
 7855TIP3   OH247759   1.832   1.848   3.247  0.1767  0.2134  0.1075
 7855TIP3    H147760   1.897   1.850   3.176  0.0829  2.0089  0.0377
 7855TIP3    H247761   1.769   1.916   3.224 -1.6726 -1.3647  0.2704
 7856TIP3   OH247762   6.094   0.570   1.775 -0.6038  0.2105 -0.0732
 7856TIP3    H147763   6.082   0.480   1.745  0.5900  0.0181 -0.0369
 7856TIP3    H247764   6.036   0.622   1.719  0.2664 -0.3364 -1.5555
 7857TIP3   OH247765   1.849   1.214   2.659  0.0591 -0.1693  0.2557
 7857TIP3    H147766   1.769   1.244   2.701  0.8661  1.7876  0.5344
 7857TIP3    H247767   1.917   1.223   2.726  0.6370 -1.1971 -0.1584
 7858TIP3   OH247768   5.386   6.488   1.674  1.0870 -0.7358  0.4954
 7858TIP3    H147769   5.392   6.484   1.769  0.3954 -0.9199  0.5326
 7858TIP3    H247770   5.445   6.418   1.644  2.6005  0.3850  0.7267
 7859TIP3   OH247771   4.754   1.667   3.166 -0.3398 -0.0243 -0.3726
 7859TIP3    H147772   4.680   1.693   3.221 -0.6068 -0.4318 -0.5272
 7859TIP3    H247773   4.743   1.718   3.086 -1.3693 -1.2259 -1.0335
 7860TIP3   OH247774   6.513   0.221   0.669 -0.4519 -0.5061 -0.4838
 7860TIP3    H147775   6.546   0.301   0.708 -0.8570 -0.1301 -0.8970
 7860TIP3    H247776   6.434   0.247   0.623 -0.7316 -1.1915 -0.4148
 7861TIP3   OH247777   3.988   3.596   2.506  0.1369  0.0438 -0.1692
 7861TIP3    H147778   3.933   3.599   2.584  0.0147 -0.3712 -0.2328
 7861TIP3    H247779   3.925   3.598   2.433  0.2756  1.0350 -0.2704
 7862TIP3   OH247780   3.421   2.614   3.151 -0.0360 -0.1659 -0.5762
 7862TIP3    H147781   3.488   2.567   3.200  0.7028 -0.4887 -1.8681
 7862TIP3    H247782   3.404   2.693   3.204  0.1374 -0.8859  0.5934
 7863TIP3   OH247783   5.950   5.857   3.143  0.0326 -0.2718  0.0731
 7863TIP3    H147784   5.928   5.796   3.072  1.7136 -1.3945  0.4413
 7863TIP3    H247785   5.922   5.812   3.222 -0.8111  0.4754  0.2062
 7864TIP3   OH247786   6.601   0.131   2.165  0.0934 -0.1409  0.5332
 7864TIP3    H147787   6.667   0.066   2.142 -0.9172 -1.9139  2.3270
 7864TIP3    H247788   6.531   0.117   2.101  0.2141 -0.2929  0.4331
 7865TIP3   OH247789   2.065   1.472   2.665 -0.2580  0.0617  0.7420
 7865TIP3    H147790   2.127   1.541   2.692  0.3745  0.3906 -1.3995
 7865TIP3    H247791   2.119   1.393   2.657 -0.0551  0.3612 -1.1920
 7866TIP3   OH247792   6.015   3.005   2.340  0.2546 -0.0130  0.1825
 7866TIP3    H147793   5.925   3.018   2.370  1.3878  0.7531  3.6980
 7866TIP3    H247794   6.007   2.951   2.262 -3.1800 -1.4281  1.3373
 7867TIP3   OH247795   1.229   1.112   0.799 -0.2637  0.2949 -0.2826
 7867TIP3    H147796   1.201   1.187   0.852  1.4908  0.0793  1.0699
 7867TIP3    H247797   1.316   1.137   0.767 -1.4891  0.6571 -3.6940
 7868TIP3   OH247798   3.782   6.130   1.063  0.7127 -0.5398  0.2374
 7868TIP3    H147799   3.700   6.168   1.095  1.3423 -0.0888  1.3708
 7868TIP3    H247800   3.825   6.096   1.142  2.4506  0.8510 -0.0587
 7869TIP3   OH247801   3.297   5.712   1.527 -0.3549  0.3803  0.4695
 7869TIP3    H147802   3.290   5.788   1.470 -2.0473  0.0630  0.2129
 7869TIP3    H247803   3.251   5.738   1.607  0.0971  0.0368  0.8494
 7870TIP3   OH247804   2.893   5.659   2.529  0.2884 -0.0372  0.6857
 7870TIP3    H147805   2.983   5.670   2.498 -0.4491  0.7218 -1.3363
 7870TIP3    H247806   2.846   5.734   2.494 -0.9051  0.2536  2.7775
 7871TIP3   OH247807   5.980   1.681   3.432  0.2302 -0.3801  0.1082
 7871TIP3    H147808   5.918   1.742   3.471  1.7089  1.3970 -0.1983
 7871TIP3    H247809   6.059   1.689   3.485  0.7331 -1.4308 -0.4360
 7872TIP3   OH247810   5.778   3.490   0.917  0.1688 -0.2711  0.1644
 7872TIP3    H147811   5.806   3.398   0.915  0.4027 -0.1917 -0.2615
 7872TIP3    H247812   5.859   3.540   0.911 -0.0221 -0.0429 -0.6928
 7873TIP3   OH247813   3.007   2.137   2.209 -0.0449  0.0604 -0.6509
 7873TIP3    H147814   2.931   2.159   2.154 -0.1489  0.0773 -0.5001
 7873TIP3    H247815   3.064   2.085   2.151 -0.7168 -0.9693 -0.4197
 7874TIP3   OH247816   2.027   5.881   2.042  0.2897  0.2669 -0.0122
 7874TIP3    H147817   2.029   5.880   1.947 -0.5760 -0.8544 -0.0426
 7874TIP3    H247818   1.997   5.969   2.064 -1.3579 -0.0419 -0.8650
 7875TIP3   OH247819   4.786   3.228   2.215 -0.0307 -0.1441 -0.1516
 7875TIP3    H147820   4.767   3.181   2.297 -1.3092  1.0429  0.2547
 7875TIP3    H247821   4.752   3.170   2.146  0.8399 -1.0391  0.1368
 7876TIP3   OH247822   5.684   0.614   3.132  0.3502 -0.4345 -0.0577
 7876TIP3    H147823   5.667   0.668   3.210 -0.2135  0.1802 -0.5913
 7876TIP3    H247824   5.597   0.589   3.101  0.5446 -0.2387 -0.7859
 7877TIP3   OH247825   2.407   0.392   0.517  0.1691 -0.8613 -0.0753
 7877TIP3    H147826   2.437   0.307   0.486  0.7176 -1.9659  3.0773
 7877TIP3    H247827   2.431   0.393   0.610  0.1270  2.7459  0.0156
 7878TIP3   OH247828   5.666   0.237   0.656  0.1557 -0.9007  0.1034
 7878TIP3    H147829   5.609   0.184   0.600 -0.6209  0.0331 -0.0038
 7878TIP3    H247830   5.616   0.316   0.675  2.0009  0.7766 -1.4070
 7879TIP3   OH247831   3.716   4.897   1.212 -0.1004  0.7943 -0.0603
 7879TIP3    H147832   3.718   4.821   1.154  1.8301  1.0363 -0.3937
 7879TIP3    H247833   3.650   4.955   1.174 -1.4722 -0.5970  0.0992
 7880TIP3   OH247834   3.468   6.508   2.066  0.3986  0.0577  0.5966
 7880TIP3    H147835   3.482   6.417   2.041 -0.0746 -0.5320  2.3354
 7880TIP3    H247836   3.501   6.514   2.156  3.0347  2.3308 -0.3742
 7881TIP3   OH247837   2.852   2.899   1.166  0.4287 -0.7033  0.0621
 7881TIP3    H147838   2.855   2.937   1.079  0.1768  0.6125  0.6004
 7881TIP3    H247839   2.943   2.903   1.198  0.7610 -2.3441 -0.5874
 7882TIP3   OH247840   6.443   0.755   1.967  0.0471  0.2023  0.1649
 7882TIP3    H147841   6.517   0.759   2.028 -0.6105 -0.8015  1.0757
 7882TIP3    H247842   6.420   0.662   1.964  2.1418 -0.3954 -4.2537
 7883TIP3   OH247843   2.616   6.127   3.792 -0.1981  0.4826 -0.7028
 7883TIP3    H147844   2.625   6.036   3.818 -1.1724  0.7299  0.5902
 7883TIP3    H247845   2.706   6.158   3.783  0.1433 -0.4555 -0.6576
 7884TIP3   OH247846   2.258   6.069   1.439 -0.3029  0.4715  0.0508
 7884TIP3    H147847   2.321   6.139   1.425  0.0140  0.2426  0.2984
 7884TIP3    H247848   2.180   6.095   1.390 -0.2919  1.1325  0.3810
 7885TIP3   OH247849   4.956   5.747   3.720  0.3870 -0.1396 -0.3169
 7885TIP3    H147850   4.870   5.704   3.723  0.7409 -0.9296 -0.9987
 7885TIP3    H247851   5.017   5.677   3.744  0.7233  0.8757  2.0942
 7886TIP3   OH247852   4.574   0.967   1.660  0.1056 -0.3296  0.3710
 7886TIP3    H147853   4.570   0.978   1.565 -1.7982  2.4453  0.6595
 7886TIP3    H247854   4.645   1.026   1.688 -0.3040 -0.0092  0.7576
 7887TIP3   OH247855   4.656   6.611   2.196 -0.0101 -0.0210 -0.4800
 7887TIP3    H147856   4.566   6.615   2.165 -0.8592  0.2985  1.7781
 7887TIP3    H247857   4.659   6.532   2.250  0.9249  0.2147 -0.1616
 7888TIP3   OH247858   5.657   0.229   3.918  0.0699  0.1425  0.0233
 7888TIP3    H147859   5.672   0.205   3.826 -0.2432 -1.3889  0.3430
 7888TIP3    H247860   5.627   0.320   3.914 -2.6736 -0.7238 -1.6552
 7889TIP3   OH247861   5.658   6.021   3.933  0.7926  0.5197 -0.2593
 7889TIP3    H147862   5.709   6.018   3.852  1.7493 -1.3609  0.3533
 7889TIP3    H247863   5.672   6.110   3.967  3.3819  0.2030 -0.3109
 7890TIP3   OH247864   5.592   2.499   1.615  0.4613  0.1132 -0.5565
 7890TIP3    H147865   5.557   2.543   1.693  0.5049  0.2203 -0.5970
 7890TIP3    H247866   5.666   2.449   1.648  1.4576  1.3874 -0.7768
 7891TIP3   OH247867   6.284   5.570   1.089 -0.2713 -0.1957  0.1737
 7891TIP3    H147868   6.208   5.590   1.143  0.1804  1.1540  0.3499
 7891TIP3    H247869   6.340   5.647   1.096 -0.1234 -0.0135 -2.0978
 7892TIP3   OH247870   2.545   1.471   0.550  0.0762  0.0466 -0.3182
 7892TIP3    H147871   2.534   1.435   0.638  0.0559  0.1801 -0.2660
 7892TIP3    H247872   2.473   1.434   0.500 -1.8293  2.4047  0.4761
 7893TIP3   OH247873   6.059   6.284   1.801  0.0997 -0.2186  1.0073
 7893TIP3    H147874   5.968   6.254   1.805 -0.0503 -0.3243 -1.6878
 7893TIP3    H247875   6.057   6.362   1.745  1.9592 -1.7572 -1.3892
 7894TIP3   OH247876   0.309   3.073   3.940  0.2764  0.1066 -0.2270
 7894TIP3    H147877   0.239   3.135   3.957  0.4871  0.3283 -0.1712
 7894TIP3    H247878   0.314   3.068   3.844  0.2390  0.1525 -0.2312
 7895TIP3   OH247879   4.567   0.033   1.814  0.4268  0.8053 -0.2907
 7895TIP3    H147880   4.551  -0.048   1.862 -0.1000  0.8770 -0.3472
 7895TIP3    H247881   4.640   0.012   1.755  2.6470  1.3458  2.0978
 7896TIP3   OH247882   0.255   6.216   0.549 -0.5730  0.2347  0.3731
 7896TIP3    H147883   0.212   6.165   0.480 -0.1443  1.4962 -0.8673
 7896TIP3    H247884   0.344   6.183   0.551  0.0636  1.6439 -1.2815
 7897TIP3   OH247885   5.580   5.483   4.019  0.9112 -0.2214 -0.1155
 7897TIP3    H147886   5.571   5.574   4.046  1.6514 -0.2297  0.2025
 7897TIP3    H247887   5.575   5.433   4.101  0.8407 -0.4393 -0.2514
 7898TIP3   OH247888   2.389   5.432   2.940 -0.1902  0.1350 -0.0922
 7898TIP3    H147889   2.404   5.513   2.989 -3.0225 -0.5562  2.1606
 7898TIP3    H247890   2.411   5.363   3.001 -0.5187 -0.8074 -1.0091
 7899TIP3   OH247891   0.834   4.994   1.912 -0.7978 -0.1329  0.1083
 7899TIP3    H147892   0.783   4.937   1.970 -2.9345  1.4469 -0.0719
 7899TIP3    H247893   0.867   5.062   1.969 -0.0086 -0.4192 -0.0027
 7900TIP3   OH247894   5.434   3.010   2.002 -0.1185 -0.4092 -0.4803
 7900TIP3    H147895   5.384   2.964   2.070 -0.6372 -2.1341 -1.9609
 7900TIP3    H247896   5.440   3.100   2.034 -2.4902 -0.5859  0.7059
 7901TIP3   OH247897   5.209   2.051   1.116  0.1434  0.2934 -1.0426
 7901TIP3    H147898   5.147   2.096   1.174  0.5884  1.1700 -1.2226
 7901TIP3    H247899   5.166   2.050   1.031  0.1782  0.4863 -1.0633
 7902TIP3   OH247900   6.059   4.474   4.022  0.1835  0.4653  0.1670
 7902TIP3    H147901   6.086   4.405   4.082  1.2019  0.3940 -0.3550
 7902TIP3    H247902   6.044   4.550   4.078  0.6260  0.2585  0.5729
 7903TIP3   OH247903   4.037   2.252   3.404  0.1640  0.2645  0.0005
 7903TIP3    H147904   4.050   2.160   3.427  0.0138  0.8713  2.9274
 7903TIP3    H247905   3.974   2.284   3.469  3.1490  3.3506  1.7043
 7904TIP3   OH247906   2.399   3.512   2.143  0.2521 -0.1045  0.1755
 7904TIP3    H147907   2.437   3.599   2.146 -0.4327  0.1674  1.2705
 7904TIP3    H247908   2.319   3.518   2.195  0.3227 -1.4507  0.4795
 7905TIP3   OH247909   5.374   3.046   0.690 -0.0594  0.0093  0.2395
 7905TIP3    H147910   5.322   3.087   0.621  0.6115 -0.5452 -0.6240
 7905TIP3    H247911   5.413   2.969   0.648  0.3066 -0.3843  1.2625
 7906TIP3   OH247912   6.128   3.476   0.486 -0.5461 -0.4053 -0.1534
 7906TIP3    H147913   6.134   3.556   0.537  1.1435  0.2854 -1.3289
 7906TIP3    H247914   6.037   3.472   0.458 -0.8322  0.6917  0.5538
 7907TIP3   OH247915   2.285   0.429   8.417 -0.2939  0.1286  0.1654
 7907TIP3    H147916   2.217   0.422   8.483  0.3533 -0.6862  0.7687
 7907TIP3    H247917   2.366   0.438   8.466  0.2768 -1.1601 -0.4716
 7908TIP3   OH247918   4.687   1.714   2.379  0.0838  0.2193 -0.2044
 7908TIP3    H147919   4.673   1.658   2.303  0.4268  1.1706 -0.9749
 7908TIP3    H247920   4.622   1.684   2.442  0.0137 -0.7978 -0.7370
 7909TIP3   OH247921   3.569   3.966   3.859 -0.0220  0.0274 -0.8673
 7909TIP3    H147922   3.595   3.875   3.872 -1.0040 -0.2461 -0.7855
 7909TIP3    H247923   3.651   4.016   3.868  0.2620 -0.6800  0.7254
 7910TIP3   OH247924   3.565   2.398   2.480  0.0419  0.0940  0.1070
 7910TIP3    H147925   3.521   2.482   2.491 -0.1974  0.3774 -2.4012
 7910TIP3    H247926   3.621   2.390   2.557  0.9746  3.1142 -0.1393
 7911TIP3   OH247927   3.209   2.159   0.560 -0.2324  0.1443 -0.0650
 7911TIP3    H147928   3.261   2.163   0.480  0.2612 -0.4417  0.2241
 7911TIP3    H247929   3.258   2.213   0.622  1.3484 -2.2762  0.9351
 7912TIP3   OH247930   4.213   1.293   2.696 -0.4485 -0.1074 -0.2341
 7912TIP3    H147931   4.187   1.225   2.759  0.5712  0.6978  1.1198
 7912TIP3    H247932   4.254   1.361   2.750  0.4512  0.6276 -1.7738
 7913TIP3   OH247933   2.129   3.940   0.456  0.2157 -0.3226  0.3245
 7913TIP3    H147934   2.191   3.993   0.405 -0.4819 -0.6778 -0.9349
 7913TIP3    H247935   2.177   3.918   0.536  1.0630  0.9141  0.1865
 7914TIP3   OH247936   3.772   4.214   2.929 -0.1934  0.1238  0.6963
 7914TIP3    H147937   3.712   4.267   2.981 -1.9708 -0.0921 -1.0370
 7914TIP3    H247938   3.798   4.270   2.856 -0.5238 -0.7091 -0.0797
 7915TIP3   OH247939   2.840   1.124   1.389 -0.4799 -0.0872  0.1777
 7915TIP3    H147940   2.763   1.111   1.333 -2.2307  0.3932  2.3107
 7915TIP3    H247941   2.901   1.056   1.362 -0.7018  0.8145 -3.0567
 7916TIP3   OH247942   1.050   5.187   1.518 -0.4244 -0.0351  0.0925
 7916TIP3    H147943   1.001   5.132   1.579 -1.1277  0.9789  0.4597
 7916TIP3    H247944   0.982   5.228   1.463  0.0931  0.4179 -0.2178
 7917TIP3   OH247945   4.445   5.917   1.136 -0.4918  0.7012 -0.2767
 7917TIP3    H147946   4.520   5.857   1.135 -0.5532  0.6191  0.0833
 7917TIP3    H247947   4.459   5.972   1.213  0.0841  1.8108 -1.1391
 7918TIP3   OH247948   2.431   0.218   2.826 -0.1568 -0.1431  0.9767
 7918TIP3    H147949   2.526   0.211   2.812 -0.0056  0.6307  1.5646
 7918TIP3    H247950   2.411   0.145   2.885 -0.1222 -0.9535  0.0200
 7919TIP3   OH247951   2.717   4.800   2.351 -0.1247 -0.6126 -0.3437
 7919TIP3    H147952   2.788   4.845   2.396 -0.4439 -2.2978  1.9784
 7919TIP3    H247953   2.637   4.846   2.379 -0.2533 -1.0897  0.0756
 7920TIP3   OH247954   4.055   6.255   2.396  0.0743 -0.0562  0.6213
 7920TIP3    H147955   3.990   6.303   2.345 -0.1729 -0.3455  0.6684
 7920TIP3    H247956   4.139   6.281   2.357 -0.0575  0.4258  0.6536
 7921TIP3   OH247957   1.515   1.505   2.820  0.2040 -0.1778 -0.2571
 7921TIP3    H147958   1.437   1.558   2.836  0.2565 -0.1775 -0.0061
 7921TIP3    H247959   1.565   1.509   2.901  0.4313 -0.2386 -0.3926
 7922TIP3   OH247960   6.319   0.665   3.840 -0.2320  0.0968 -0.3268
 7922TIP3    H147961   6.290   0.741   3.789 -0.3148  0.5090  0.3189
 7922TIP3    H247962   6.341   0.701   3.925 -1.1771 -0.7464  0.2988
 7923TIP3   OH247963   4.734   5.350   2.608  0.1253 -1.0065 -0.7672
 7923TIP3    H147964   4.795   5.403   2.660 -0.6198 -0.3288 -0.5626
 7923TIP3    H247965   4.781   5.268   2.592  1.9573  0.2685 -2.4114
 7924TIP3   OH247966   4.247   2.405   0.698 -0.5199 -0.0385 -0.5733
 7924TIP3    H147967   4.224   2.490   0.737  0.6755 -0.5542  1.3927
 7924TIP3    H247968   4.176   2.387   0.636 -2.3594  1.0265  1.1104
 7925TIP3   OH247969   3.411   4.749   2.544  0.3132  0.7448  0.1216
 7925TIP3    H147970   3.365   4.689   2.485 -0.6063  0.6216  0.9497
 7925TIP3    H247971   3.503   4.731   2.529  0.0955  0.4803 -1.0368
 7926TIP3   OH247972   2.853   6.433   4.039 -0.1870 -0.1353 -0.3396
 7926TIP3    H147973   2.785   6.383   4.084  1.4583 -1.0234  1.2682
 7926TIP3    H247974   2.805   6.502   3.993 -2.3318 -1.8463 -0.8470
 7927TIP3   OH247975   5.497   5.016   1.942  0.1307  0.1129 -0.0714
 7927TIP3    H147976   5.478   5.097   1.895 -2.3548 -0.4580 -0.2048
 7927TIP3    H247977   5.533   4.957   1.876 -0.8332  0.1802 -0.6742
 7928TIP3   OH247978   2.893   4.818   0.862 -0.1094 -0.2335 -0.9152
 7928TIP3    H147979   2.814   4.866   0.837 -0.3131 -1.1757 -2.2167
 7928TIP3    H247980   2.861   4.741   0.909  0.0257 -0.5938 -1.4063
 7929TIP3   OH247981   0.302   3.900   1.215 -1.1914 -0.5782 -0.1806
 7929TIP3    H147982   0.338   3.974   1.265 -1.6240  0.2862 -1.1006
 7929TIP3    H247983   0.378   3.856   1.177 -0.8898 -0.9746  0.8529
 7930TIP3   OH247984   2.598   1.612   2.418 -0.3551  0.1782 -0.0941
 7930TIP3    H147985   2.619   1.556   2.343  0.3519 -0.2819  0.4319
 7930TIP3    H247986   2.571   1.695   2.379  1.7383  0.5601 -0.8573
 7931TIP3   OH247987   2.933   3.413   1.509  0.5415  0.0605 -0.0609
 7931TIP3    H147988   2.890   3.327   1.511 -0.7063  0.6813  1.3250
 7931TIP3    H247989   2.910   3.454   1.592  1.2762  1.6773 -0.6114
 7932TIP3   OH247990   2.390   0.929   1.695 -0.0938  0.2118  0.1186
 7932TIP3    H147991   2.378   0.846   1.648  2.7832 -0.5109  0.4992
 7932TIP3    H247992   2.474   0.962   1.664  0.2801  1.4143  2.2640
 7933TIP3   OH247993   4.291   1.868   2.279  0.4163  0.0669 -0.3527
 7933TIP3    H147994   4.356   1.850   2.348  0.0706 -1.6633 -0.4409
 7933TIP3    H247995   4.330   1.939   2.228  1.9696 -0.5280 -0.0450
 7934TIP3   OH247996   4.565   0.807   2.287 -0.2062 -0.2580  0.3757
 7934TIP3    H147997   4.619   0.795   2.209 -1.4873  0.4156 -0.6635
 7934TIP3    H247998   4.604   0.882   2.331  0.7332 -0.8545  0.5798
 7935TIP3   OH247999   0.012   1.341   3.770 -0.3400  0.4497 -0.1844
 7935TIP3    H148000   0.026   1.265   3.826  0.2471  1.3542  0.9608
 7935TIP3    H248001   0.050   1.317   3.686 -0.6629 -0.7168 -0.0082
 7936TIP3   OH248002   1.128   4.440   2.730 -0.1299  0.0888 -0.5624
 7936TIP3    H148003   1.175   4.369   2.773  0.2363 -0.6439 -2.1046
 7936TIP3    H248004   1.140   4.424   2.636 -0.4663  1.9110 -0.9610
 7937TIP3   OH248005   3.909   1.616   1.825 -0.1949  0.1319 -0.0934
 7937TIP3    H148006   3.961   1.626   1.905  0.4402 -1.5415 -0.2668
 7937TIP3    H248007   3.842   1.552   1.849 -0.7763  0.5636 -0.5502
 7938TIP3   OH248008   4.259   2.705   0.744 -0.5925  0.5455  0.5596
 7938TIP3    H148009   4.301   2.685   0.827 -1.9971  0.0105  1.1797
 7938TIP3    H248010   4.324   2.684   0.677  1.2502  2.7406  1.5312
 7939TIP3   OH248011   3.070   0.632   3.155  0.1909  0.4645  0.7205
 7939TIP3    H148012   3.111   0.672   3.078  0.4274 -0.0624  0.5697
 7939TIP3    H248013   3.070   0.702   3.220  0.3863  0.7853  0.3846
 7940TIP3   OH248014   2.505   5.457   2.260 -0.2112 -0.2297  0.2376
 7940TIP3    H148015   2.581   5.428   2.209  0.1437  0.5049  0.3377
 7940TIP3    H248016   2.511   5.552   2.260 -2.7970  0.0638 -2.3192
 7941TIP3   OH248017   2.616   0.875   2.782  0.4152  0.1976 -0.0641
 7941TIP3    H148018   2.702   0.833   2.775 -0.6031 -2.0615  0.0669
 7941TIP3    H248019   2.555   0.802   2.789 -1.5892  1.7281 -0.8082
 7942TIP3   OH248020   2.251   3.134   1.838 -0.4148  0.6390  0.1463
 7942TIP3    H148021   2.261   3.219   1.795 -2.3092  1.4739  1.2468
 7942TIP3    H248022   2.169   3.099   1.803 -0.0300 -0.4344  0.2612
 7943TIP3   OH248023   5.438   0.488   2.022  0.1103 -0.3307  0.2068
 7943TIP3    H148024   5.520   0.478   2.071  0.4831  0.8775 -0.1372
 7943TIP3    H248025   5.465   0.527   1.939 -0.7282 -0.6868 -0.2364
 7944TIP3   OH248026   4.771   5.254   2.216  0.2004 -0.3913 -0.6265
 7944TIP3    H148027   4.704   5.223   2.155  0.1689  0.0738 -0.8257
 7944TIP3    H248028   4.770   5.349   2.208  0.1931 -0.3223  0.1064
 7945TIP3   OH248029   0.031   6.345   1.289  0.4934  0.5444  0.0366
 7945TIP3    H148030   0.090   6.339   1.214 -0.2143  1.1747 -0.5933
 7945TIP3    H248031  -0.057   6.333   1.251  0.0461  1.8037  0.5936
 7946TIP3   OH248032   4.584   4.004   2.059  0.1814 -0.0089  0.0418
 7946TIP3    H148033   4.538   3.923   2.082 -0.0160  0.1921  0.3588
 7946TIP3    H248034   4.522   4.051   2.003  1.3869 -1.3810 -2.6137
 7947TIP3   OH248035   0.547   0.798   0.565  0.0214  0.2171 -0.3475
 7947TIP3    H148036   0.487   0.867   0.535 -1.0010 -0.7260 -0.5448
 7947TIP3    H248037   0.552   0.811   0.659 -2.9987 -1.5163  0.1782
 7948TIP3   OH248038   4.601   2.729   2.880 -0.0194  0.5502 -0.0728
 7948TIP3    H148039   4.551   2.651   2.856 -0.9808  1.1794 -0.1680
 7948TIP3    H248040   4.687   2.715   2.841  0.9150 -1.9121  2.4840
 7949TIP3   OH248041   3.091   2.851   3.862  0.1874  0.0899 -0.3726
 7949TIP3    H148042   3.032   2.851   3.787 -1.5784  0.9231  0.9610
 7949TIP3    H248043   3.035   2.833   3.937  1.3748  2.2236  1.1308
 7950TIP3   OH248044   2.501   2.741   2.374  0.0762  0.8680  0.0280
 7950TIP3    H148045   2.529   2.746   2.465  2.6777 -0.3405 -0.5930
 7950TIP3    H248046   2.495   2.647   2.355  0.4580  1.0742 -1.2470
 7951TIP3   OH248047   4.212   4.311   2.605  0.0305  0.3973  0.5038
 7951TIP3    H148048   4.136   4.254   2.592  0.5977 -0.2090 -0.1821
 7951TIP3    H248049   4.185   4.370   2.675 -1.0871  0.1999  0.2648
 7952TIP3   OH248050   2.585   2.771   2.678  0.5155 -0.7839 -0.1795
 7952TIP3    H148051   2.573   2.850   2.625  0.6510  1.2047  2.5676
 7952TIP3    H248052   2.667   2.733   2.646  0.7860  0.5380 -1.1368
 7953TIP3   OH248053   6.396   3.599   2.930 -0.1007  0.2978  0.4468
 7953TIP3    H148054   6.417   3.521   2.983  0.9852  0.5665  0.4342
 7953TIP3    H248055   6.466   3.604   2.866 -0.9223  0.5035 -0.4518
 7954TIP3   OH248056   3.150   0.640   2.002  0.3603 -0.4584  0.5936
 7954TIP3    H148057   3.207   0.638   1.925 -1.2016 -3.2597 -0.6396
 7954TIP3    H248058   3.117   0.730   2.004  0.8908 -0.1424 -1.7019
 7955TIP3   OH248059   4.489   4.343   3.900 -0.3261  0.0153 -0.3713
 7955TIP3    H148060   4.431   4.281   3.855 -1.2873  0.1240  0.6412
 7955TIP3    H248061   4.477   4.323   3.993  0.3535  0.8560 -0.0853
 7956TIP3   OH248062   6.052   5.834   1.491 -0.2766  0.3519  0.1479
 7956TIP3    H148063   6.086   5.870   1.573 -0.3747 -0.3863  0.5122
 7956TIP3    H248064   6.100   5.881   1.423 -1.0225  1.8184  0.5864
 7957TIP3   OH248065   3.643   0.873   1.213  0.1369 -0.2860 -0.2949
 7957TIP3    H148066   3.661   0.915   1.129 -0.1054 -0.4648 -0.4373
 7957TIP3    H248067   3.572   0.811   1.195 -0.4394  0.2216  0.2071
 7958TIP3   OH248068   2.961   5.709   0.879  0.2925  0.4840  0.7229
 7958TIP3    H148069   2.935   5.789   0.924  0.0902  0.2630  0.9977
 7958TIP3    H248070   2.878   5.666   0.857  0.3930 -1.0771  3.1146
 7959TIP3   OH248071   1.245   6.605   2.966 -0.2491  0.0988  0.1721
 7959TIP3    H148072   1.220   6.695   2.944 -0.9281  0.4023  2.0605
 7959TIP3    H248073   1.214   6.592   3.055  1.2310 -1.5130  0.4979
 7960TIP3   OH248074   4.740   0.598   3.863 -0.5313  0.0981  0.7782
 7960TIP3    H148075   4.807   0.577   3.797  0.8241  1.0043  1.8095
 7960TIP3    H248076   4.780   0.574   3.946 -0.2845  3.2491  1.7037
 7961TIP3   OH248077   2.714   0.468   0.466 -0.2116  0.1165  0.7830
 7961TIP3    H148078   2.687   0.559   0.474 -0.5552  0.2897 -1.5954
 7961TIP3    H248079   2.641   0.425   0.422  0.4761 -1.0241  0.7155
 7962TIP3   OH248080   1.480   4.855   2.768  0.1351  0.1373 -0.4062
 7962TIP3    H148081   1.476   4.823   2.678  2.4399  1.7043 -1.1565
 7962TIP3    H248082   1.428   4.935   2.767 -0.2187 -0.0913 -0.2280
 7963TIP3   OH248083   5.776   0.983   2.873  0.2312  0.6648 -0.1411
 7963TIP3    H148084   5.760   1.053   2.810 -0.4651  0.4334 -0.2243
 7963TIP3    H248085   5.857   0.941   2.842 -0.3614  0.2510 -1.1553
 7964TIP3   OH248086   3.458   0.858   1.605 -0.2059 -0.3220  0.0345
 7964TIP3    H148087   3.511   0.937   1.592 -0.5984 -0.0014  0.3911
 7964TIP3    H248088   3.439   0.827   1.517  0.4638 -0.3625 -0.0998
 7965TIP3   OH248089   1.237   5.710   3.198 -0.1340 -0.0186 -0.6248
 7965TIP3    H148090   1.234   5.766   3.275  0.4832  2.2282 -2.1406
 7965TIP3    H248091   1.146   5.698   3.173 -0.2544  1.1457 -0.8089
 7966TIP3   OH248092   3.060   4.221   1.813 -0.6350  0.3164 -0.7640
 7966TIP3    H148093   3.149   4.250   1.794  0.0733 -1.2764 -0.0898
 7966TIP3    H248094   3.005   4.296   1.791  0.8747  1.3725 -1.1122
 7967TIP3   OH248095   5.245   6.381   2.994 -0.2655 -0.2419 -0.4446
 7967TIP3    H148096   5.251   6.463   3.042 -0.9685  0.4319 -1.4443
 7967TIP3    H248097   5.229   6.315   3.061 -0.9921  0.6236  0.2687
 7968TIP3   OH248098   6.420   2.937   2.787 -0.1916  0.0713 -0.3423
 7968TIP3    H148099   6.364   2.983   2.724 -1.4050 -1.4870 -0.4681
 7968TIP3    H248100   6.366   2.929   2.866  0.4513 -0.0893  0.0919
 7969TIP3   OH248101   5.199   4.958   2.650  0.7152 -0.2683 -0.0270
 7969TIP3    H148102   5.279   4.928   2.607 -0.2702 -2.4703 -0.4611
 7969TIP3    H248103   5.217   5.050   2.672  3.1392 -0.5364 -0.5641
 7970TIP3   OH248104   0.795   1.118   3.075 -0.2650 -0.5141 -0.0089
 7970TIP3    H148105   0.813   1.031   3.038  2.2756 -0.6659  1.3529
 7970TIP3    H248106   0.881   1.151   3.101 -1.0239  2.9085 -1.4078
 7971TIP3   OH248107   0.038   3.691   2.805  0.1835 -0.2891  0.8670
 7971TIP3    H148108   0.053   3.620   2.742 -1.3901 -0.7148  0.9334
 7971TIP3    H248109   0.008   3.765   2.752 -0.9558 -0.5882  1.0586
 7972TIP3   OH248110   5.897   6.113   2.165  0.0992 -0.1402 -0.3364
 7972TIP3    H148111   5.917   6.185   2.224  1.1899 -0.9533  0.3211
 7972TIP3    H248112   5.868   6.155   2.084 -1.4079  0.9893  0.7394
 7973TIP3   OH248113   3.629   3.156   3.554 -0.3251 -0.0112 -0.1138
 7973TIP3    H148114   3.535   3.167   3.541 -0.9452 -4.5967 -1.1871
 7973TIP3    H248115   3.665   3.151   3.466  0.5527 -0.5471  0.2597
 7974TIP3   OH248116   4.922   5.854   3.296  0.0497 -0.2696  0.0193
 7974TIP3    H148117   4.843   5.817   3.334  0.1524  0.3671  0.8694
 7974TIP3    H248118   4.928   5.814   3.209 -2.1991  1.0115 -0.8116
 7975TIP3   OH248119   6.580   1.600   1.877  0.2486  0.2825 -0.4962
 7975TIP3    H148120   6.496   1.556   1.896 -0.1932  0.4094 -2.0753
 7975TIP3    H248121   6.567   1.690   1.906 -0.2127  0.3418 -0.8892
 7976TIP3   OH248122   3.936   2.745   2.369  0.4729 -0.2243 -0.2318
 7976TIP3    H148123   4.008   2.784   2.418 -0.2098  1.1089 -0.2382
 7976TIP3    H248124   3.933   2.795   2.287  1.4611 -2.2621 -1.6134
 7977TIP3   OH248125   2.616   2.376   1.872 -0.0929 -0.7331 -0.6466
 7977TIP3    H148126   2.528   2.412   1.870 -0.6632 -1.8713  1.0693
 7977TIP3    H248127   2.607   2.288   1.835  0.3506 -0.8037 -0.5923
 7978TIP3   OH248128   5.369   4.432   0.781  0.2783 -0.4940 -0.5286
 7978TIP3    H148129   5.421   4.441   0.861 -1.6384  3.1916  0.5577
 7978TIP3    H248130   5.433   4.443   0.710  1.4817  0.4486  0.6364
 7979TIP3   OH248131   2.299   4.685   1.661  0.5019 -0.0454 -0.6534
 7979TIP3    H148132   2.253   4.616   1.614 -0.0152 -0.2886  0.1867
 7979TIP3    H248133   2.329   4.643   1.742 -2.0389  1.2883  1.1088
 7980TIP3   OH248134   0.731   1.805   2.762  0.5773 -0.2573 -0.6333
 7980TIP3    H148135   0.821   1.836   2.769  0.1300  1.5368 -2.0907
 7980TIP3    H248136   0.714   1.800   2.668 -0.5838 -1.4127 -0.3886
 7981TIP3   OH248137   6.559   2.832   3.277 -0.2944 -0.1717 -0.3656
 7981TIP3    H148138   6.471   2.859   3.304 -0.0672  0.1607  0.0534
 7981TIP3    H248139   6.570   2.871   3.190 -0.2478  0.4934 -0.0706
 7982TIP3   OH248140   4.223   4.811   2.374 -0.1302 -0.0495  0.6555
 7982TIP3    H148141   4.162   4.783   2.306  0.2854  1.0726 -0.2129
 7982TIP3    H248142   4.257   4.895   2.343  0.3310  0.3274  2.0912
 7983TIP3   OH248143   6.096   2.348   1.068 -0.3316  0.0476  0.6386
 7983TIP3    H148144   6.105   2.262   1.109  1.0824  0.5644  1.5042
 7983TIP3    H248145   6.044   2.399   1.130 -1.5818 -0.3012 -0.0985
 7984TIP3   OH248146   1.774   6.040   2.961 -0.5919 -0.1905 -0.3755
 7984TIP3    H148147   1.684   6.021   2.933 -0.5885 -1.4433  0.4174
 7984TIP3    H248148   1.789   5.982   3.035  0.5044  0.8079  0.2141
 7985TIP3   OH248149   1.913   0.826   1.476  0.2382  0.7564 -0.0303
 7985TIP3    H148150   1.941   0.818   1.568  0.7057 -2.1017 -0.3180
 7985TIP3    H248151   1.840   0.887   1.478 -0.2440  0.2013  2.3854
 7986TIP3   OH248152   5.766   3.835   3.862  0.3207 -0.2326  0.0766
 7986TIP3    H148153   5.808   3.898   3.804  0.9633  1.8800  2.6294
 7986TIP3    H248154   5.695   3.884   3.903  2.4114 -0.1243  4.0610
 7987TIP3   OH248155   5.132   1.696   0.639  0.0456 -0.0700  0.1631
 7987TIP3    H148156   5.178   1.656   0.565  0.6150 -0.6833  0.8368
 7987TIP3    H248157   5.102   1.622   0.691 -0.1330  0.3595  0.6767
 7988TIP3   OH248158   5.086   1.487   0.803  0.5141 -0.4363 -0.4382
 7988TIP3    H148159   5.174   1.452   0.796  1.0344  0.7650 -0.1820
 7988TIP3    H248160   5.036   1.421   0.851  1.0585 -1.4718 -1.2578
 7989TIP3   OH248161   5.579   1.176   4.303 -0.5273 -0.8600  0.0298
 7989TIP3    H148162   5.612   1.235   4.370  0.1613 -0.5933 -0.5321
 7989TIP3    H248163   5.646   1.178   4.234 -1.0963 -1.3262 -0.5477
 7990TIP3   OH248164   4.574   3.559   3.449 -0.8031  0.1395 -0.4646
 7990TIP3    H148165   4.564   3.470   3.414 -0.8507  0.1881 -0.5778
 7990TIP3    H248166   4.644   3.597   3.396 -0.5529  0.0579 -0.1911
 7991TIP3   OH248167   2.783   3.629   1.317 -0.7504 -0.1199 -0.3345
 7991TIP3    H148168   2.846   3.615   1.388 -1.6648  0.0808  0.5274
 7991TIP3    H248169   2.744   3.543   1.301  1.2281 -0.7430 -2.3582
 7992TIP3   OH248170   4.952   1.970   2.653  0.1874  0.1310  0.2304
 7992TIP3    H148171   4.971   1.900   2.589 -0.1566  0.2132  0.0336
 7992TIP3    H248172   4.936   2.047   2.599 -0.0058  0.2249  0.4237
 7993TIP3   OH248173   3.206   4.258   1.108  0.2475  0.0830  0.4506
 7993TIP3    H148174   3.163   4.187   1.154  0.1899  0.5887  1.1980
 7993TIP3    H248175   3.137   4.296   1.053  0.1836 -0.2024  0.3339
 7994TIP3   OH248176   4.564   3.396   2.935 -0.8021 -0.1105  0.0821
 7994TIP3    H148177   4.537   3.483   2.906  2.1714  0.9788  0.2063
 7994TIP3    H248178   4.641   3.377   2.882  0.2548 -1.4233  1.9976
 7995TIP3   OH248179   4.972   5.055   3.180  0.3194  0.2079 -0.1211
 7995TIP3    H148180   4.894   5.084   3.133 -0.1721  0.1411  0.6366
 7995TIP3    H248181   5.045   5.079   3.123 -0.2249  0.6932 -0.6235
 7996TIP3   OH248182   4.362   2.656   0.989 -0.4075  0.3947  0.2039
 7996TIP3    H148183   4.332   2.649   1.079 -1.4945 -3.2485 -0.2919
 7996TIP3    H248184   4.456   2.672   0.995 -0.0177 -2.0981  2.1040
 7997TIP3   OH248185   4.628   3.802   0.630 -0.7668 -0.2175 -0.1363
 7997TIP3    H148186   4.584   3.887   0.633  0.1708  0.4023 -2.1143
 7997TIP3    H248187   4.627   3.778   0.537  0.0877 -1.7784  0.2262
 7998TIP3   OH248188   4.427   4.550   3.704 -0.2016  0.0050 -0.0565
 7998TIP3    H148189   4.405   4.488   3.634 -2.2506 -0.0602  0.5663
 7998TIP3    H248190   4.462   4.495   3.774 -1.1371 -0.3587  0.1426
 7999TIP3   OH248191   1.167   1.336   0.936  0.2012 -0.2698  0.3703
 7999TIP3    H148192   1.240   1.374   0.984  1.3390 -0.7175 -0.9387
 7999TIP3    H248193   1.117   1.411   0.903  1.0035  0.0735 -0.0839
 8000TIP3   OH248194   5.079   2.457   3.471  0.0232  0.1165  0.2395
 8000TIP3    H148195   5.137   2.523   3.433 -1.2200  0.6144 -0.8492
 8000TIP3    H248196   5.021   2.431   3.400 -1.7812  0.3971  1.5343
 8001TIP3   OH248197   5.146   6.352   4.424  0.3798 -0.0185 -0.4823
 8001TIP3    H148198   5.115   6.415   4.359 -1.4453 -0.4007 -0.0586
 8001TIP3    H248199   5.226   6.390   4.459 -1.1759  2.6261  0.4770
 8002TIP3   OH248200   0.543   2.845   0.819 -0.0783  0.2165  0.4032
 8002TIP3    H148201   0.568   2.765   0.866 -0.9131 -0.3685 -0.1321
 8002TIP3    H248202   0.453   2.862   0.845  0.0073  0.8501  0.3180
 8003TIP3   OH248203   3.414   0.397   4.018 -0.0200  0.0118 -0.3306
 8003TIP3    H148204   3.385   0.487   4.005 -0.6401 -0.4984 -2.9696
 8003TIP3    H248205   3.357   0.344   3.963  1.6392 -1.7835 -0.4679
 8004TIP3   OH248206   5.225   2.388   0.993 -0.0437  0.2540  0.4738
 8004TIP3    H148207   5.227   2.365   1.086  0.4879 -0.6953  0.2399
 8004TIP3    H248208   5.211   2.305   0.948  0.1439  0.6437 -0.3231
 8005TIP3   OH248209   1.681   0.254   3.448 -0.2652  0.6439  0.4161
 8005TIP3    H148210   1.607   0.242   3.508 -1.7193  1.9182 -1.0037
 8005TIP3    H248211   1.725   0.332   3.480 -1.2991  1.5810 -0.3409
 8006TIP3   OH248212   3.406   5.843   1.848  0.6146 -0.2183  0.6574
 8006TIP3    H148213   3.404   5.792   1.929 -2.1148 -0.4453  0.5356
 8006TIP3    H248214   3.388   5.779   1.779  0.1054  0.4212  0.1866
 8007TIP3   OH248215   0.869   0.247   0.967  1.1852  0.4562  0.2278
 8007TIP3    H148216   0.926   0.183   1.009  0.7517 -0.1255 -0.0716
 8007TIP3    H248217   0.875   0.227   0.874 -0.0435 -0.0596  0.2403
 8008TIP3   OH248218   5.417   0.326   3.696  0.8051  0.7314  0.5980
 8008TIP3    H148219   5.357   0.364   3.631  0.5427  1.7828  1.4164
 8008TIP3    H248220   5.478   0.274   3.645 -0.3666  0.2154 -0.3327
 8009TIP3   OH248221   3.203   5.326   3.302 -0.4068  0.1718 -0.0191
 8009TIP3    H148222   3.164   5.409   3.331 -0.5081  0.8591 -1.9842
 8009TIP3    H248223   3.296   5.347   3.289 -0.1424 -0.4190  0.8182
 8010TIP3   OH248224   6.563   6.507   4.610  0.2606 -0.6874  0.3076
 8010TIP3    H148225   6.531   6.492   4.521 -0.5728  0.1446  0.4531
 8010TIP3    H248226   6.643   6.455   4.615 -0.2671 -1.6396 -0.5657
 8011TIP3   OH248227   0.590   3.018   2.274 -0.1221  0.1250 -0.4045
 8011TIP3    H148228   0.640   2.945   2.239 -2.5517 -1.8377 -0.0159
 8011TIP3    H248229   0.537   3.048   2.200  0.4562  1.2257 -0.4127
 8012TIP3   OH248230   0.011   1.851   2.648 -0.4813  0.4177 -0.3463
 8012TIP3    H148231   0.091   1.900   2.667 -0.3608  0.2948 -0.5276
 8012TIP3    H248232   0.012   1.841   2.553 -1.4751  1.7123 -0.5111
 8013TIP3   OH248233   0.562   1.475   2.584 -0.1183  0.1546 -0.7846
 8013TIP3    H148234   0.653   1.499   2.563 -0.7087  1.5545 -1.9197
 8013TIP3    H248235   0.516   1.558   2.587 -1.0685 -0.3987  1.5108
 8014TIP3   OH248236   5.930   5.852   1.133  0.3610  0.0246  0.4020
 8014TIP3    H148237   5.995   5.823   1.068  0.5082  0.3496  0.4046
 8014TIP3    H248238   5.905   5.940   1.105 -0.2897 -0.2040  0.2428
 8015TIP3   OH248239   0.797   3.266   0.524  0.0341  0.1488 -0.3112
 8015TIP3    H148240   0.741   3.344   0.525 -0.4929 -0.2121 -1.1155
 8015TIP3    H248241   0.780   3.225   0.440 -0.8204 -1.6335  0.6638
 8016TIP3   OH248242   5.510   2.829   0.603 -0.2969 -0.7823  0.3544
 8016TIP3    H148243   5.599   2.799   0.619 -1.0685 -2.5249  1.8103
 8016TIP3    H248244   5.474   2.763   0.543 -0.9606 -0.7927  0.7544
 8017TIP3   OH248245   4.417   5.922   2.131 -0.2955  0.5646 -0.0689
 8017TIP3    H148246   4.346   5.864   2.102  1.1717 -0.4376 -1.8804
 8017TIP3    H248247   4.394   6.008   2.097 -1.3167  0.5463  0.5596
 8018TIP3   OH248248   1.954   0.658   3.673 -0.2113 -0.3935 -0.0441
 8018TIP3    H148249   1.911   0.573   3.681  0.8343 -1.0361 -0.8965
 8018TIP3    H248250   1.954   0.693   3.762 -4.2448  0.6040 -0.2402
 8019TIP3   OH248251   1.002   2.244   1.446  0.7321  0.3774 -0.2507
 8019TIP3    H148252   0.969   2.333   1.434  0.0954  0.2767  0.6555
 8019TIP3    H248253   0.986   2.225   1.539  1.2905 -0.5081 -0.3248
 8020TIP3   OH248254   0.104   3.397   3.645 -0.3263 -0.0201 -0.0424
 8020TIP3    H148255   0.190   3.372   3.611 -0.3431 -1.4175  0.8567
 8020TIP3    H248256   0.082   3.329   3.708 -1.1200  1.4844  1.4011
 8021TIP3   OH248257   3.790   1.878   2.692  0.2940 -0.4891 -0.1759
 8021TIP3    H148258   3.752   1.797   2.659  2.2903 -0.8691 -1.7182
 8021TIP3    H248259   3.881   1.877   2.662  0.8383  1.5817  1.1276
 8022TIP3   OH248260   2.382   1.579   0.960 -0.1462 -0.3365  0.5820
 8022TIP3    H148261   2.443   1.645   0.994  1.0537 -0.9423 -0.3322
 8022TIP3    H248262   2.323   1.561   1.033  1.4794 -0.5681  1.8998
 8023TIP3   OH248263   6.073   1.681   4.045 -0.2219  0.2123 -0.0540
 8023TIP3    H148264   6.159   1.700   4.007 -0.9784  2.1347 -0.9805
 8023TIP3    H248265   6.087   1.605   4.101  1.7963 -0.3250 -1.1830
 8024TIP3   OH248266   0.196   4.491   3.332 -0.3756 -0.6523  0.5000
 8024TIP3    H148267   0.240   4.574   3.350 -2.5247  0.6466  0.1537
 8024TIP3    H248268   0.238   4.427   3.390  2.5456  0.2359 -0.4948
 8025TIP3   OH248269   6.230   3.167   2.330  0.3178  0.8730 -0.1173
 8025TIP3    H148270   6.211   3.254   2.364  0.2450 -0.5517  4.0565
 8025TIP3    H248271   6.145   3.131   2.305  0.1049  1.3155 -0.0373
 8026TIP3   OH248272   2.443   2.929   3.206  0.1359  0.8727  0.2276
 8026TIP3    H148273   2.440   2.842   3.167  0.0881  1.2450 -0.6238
 8026TIP3    H248274   2.448   2.989   3.131 -0.2431  1.6204  0.7827
 8027TIP3   OH248275   5.468   4.925   2.572 -0.1620 -0.1645 -0.1403
 8027TIP3    H148276   5.530   4.953   2.504 -0.7959  3.2303  0.4848
 8027TIP3    H248277   5.520   4.921   2.652 -0.2865  0.3890 -0.0284
 8028TIP3   OH248278   3.904   5.629   3.181 -0.1609  0.4500  0.4412
 8028TIP3    H148279   3.934   5.581   3.258 -0.8035 -0.9402 -0.1495
 8028TIP3    H248280   3.954   5.594   3.108 -1.7513 -0.5051 -0.2470
 8029TIP3   OH248281   3.819   0.635   1.019 -0.7495 -0.7523  1.0536
 8029TIP3    H148282   3.766   0.565   1.057 -0.9786 -1.0152  0.2892
 8029TIP3    H248283   3.755   0.694   0.978 -0.5421 -0.2303  1.4623
 8030TIP3   OH248284   3.635   5.335   0.663 -0.0703 -0.1116  0.5447
 8030TIP3    H148285   3.685   5.415   0.676 -0.3560  0.7938 -2.9891
 8030TIP3    H248286   3.547   5.365   0.639 -0.1795 -1.4123 -0.8798
 8031TIP3   OH248287   1.951   2.072   3.955  0.2457 -0.0680  0.2609
 8031TIP3    H148288   1.913   1.996   3.912 -0.7382  0.0746  0.8590
 8031TIP3    H248289   2.020   2.101   3.896 -0.8775 -0.0504 -1.0730
 8032TIP3   OH248290   0.559   5.499   1.617 -0.0537 -0.3923 -0.1724
 8032TIP3    H148291   0.590   5.409   1.617 -2.0070 -1.1489 -1.1571
 8032TIP3    H248292   0.612   5.543   1.550 -0.0876 -1.2452 -0.7807
 8033TIP3   OH248293   4.505   0.614   2.848 -0.8369 -0.3389  0.1441
 8033TIP3    H148294   4.499   0.606   2.753 -1.3278  0.4936  0.0978
 8033TIP3    H248295   4.545   0.532   2.876  1.2212  0.1986 -0.9701
 8034TIP3   OH248296   2.565   4.923   3.361 -0.2318  0.5367  0.7770
 8034TIP3    H148297   2.635   4.946   3.422 -0.2166  1.4881  0.4243
 8034TIP3    H248298   2.601   4.944   3.275 -0.9417  1.0472  0.5919
 8035TIP3   OH248299   0.916   0.487   1.940 -0.5366 -0.7490  0.2916
 8035TIP3    H148300   0.955   0.542   2.008 -1.2026  1.7867 -1.2511
 8035TIP3    H248301   0.824   0.512   1.938 -0.7957 -1.6836 -0.7211
 8036TIP3   OH248302   5.998   3.474   3.099  0.3633  0.2021  0.1582
 8036TIP3    H148303   6.011   3.425   3.180  0.4681  0.3678  0.2415
 8036TIP3    H248304   5.997   3.407   3.030 -0.6677 -0.0401  0.3921
 8037TIP3   OH248305   0.118   3.959   1.016 -0.0203  0.3722 -0.2265
 8037TIP3    H148306   0.096   4.034   1.071  0.3285  0.5746 -0.3580
 8037TIP3    H248307   0.180   3.908   1.068 -0.5280 -0.0126  0.0042
 8038TIP3   OH248308   5.200   2.031   2.786  0.2343 -0.4361 -1.0549
 8038TIP3    H148309   5.215   2.065   2.697 -1.0500 -0.7868 -1.4252
 8038TIP3    H248310   5.106   2.011   2.788 -0.4055  2.2239  1.3031
 8039TIP3   OH248311   2.689   0.663   3.144  0.1336 -0.4706 -0.3754
 8039TIP3    H148312   2.733   0.734   3.098  0.0407 -1.0822 -1.4452
 8039TIP3    H248313   2.695   0.588   3.084  1.0165 -1.6241  1.0935
 8040TIP3   OH248314   5.180   4.262   3.133 -0.6409 -0.0504  0.2180
 8040TIP3    H148315   5.243   4.202   3.174  0.4948 -0.1416 -1.5582
 8040TIP3    H248316   5.101   4.209   3.120  0.1397 -1.0304 -0.7671
 8041TIP3   OH248317   6.070   1.608   1.139 -0.2431  0.2051 -0.2296
 8041TIP3    H148318   6.154   1.652   1.128 -0.2897  0.1434 -0.9115
 8041TIP3    H248319   6.091   1.514   1.140 -0.2171  0.2171  0.4751
 8042TIP3   OH248320   4.297   1.633   1.509 -0.0293  0.3266 -0.6357
 8042TIP3    H148321   4.247   1.609   1.586  0.0266  1.3462 -0.2699
 8042TIP3    H248322   4.311   1.551   1.462 -1.5161 -0.0587 -0.4319
 8043TIP3   OH248323   0.059   5.773   1.024 -0.6350  0.6931 -0.0102
 8043TIP3    H148324   0.149   5.739   1.016 -1.3846 -1.2315 -0.8306
 8043TIP3    H248325   0.019   5.720   1.093 -1.1482  1.5586  0.3709
 8044TIP3   OH248326   6.389   4.093   0.428  0.0174  0.2737  0.3373
 8044TIP3    H148327   6.321   4.153   0.397 -0.1922 -1.4024 -2.8342
 8044TIP3    H248328   6.389   4.104   0.523 -1.9592  3.1500  0.1380
 8045TIP3   OH248329   6.060   5.639   1.238 -0.8621 -0.1253  0.1142
 8045TIP3    H148330   6.084   5.665   1.327  0.1717 -1.5722  0.3021
 8045TIP3    H248331   6.013   5.714   1.203  1.7067  1.8925  0.6811
 8046TIP3   OH248332   3.566   0.425   0.680  0.2841  0.0136 -0.8917
 8046TIP3    H148333   3.568   0.377   0.598 -0.1427 -0.7624 -0.4504
 8046TIP3    H248334   3.639   0.389   0.731 -0.9407 -1.2386  0.0285
 8047TIP3   OH248335   3.505   6.254   1.138 -0.3788 -0.1653 -0.1466
 8047TIP3    H148336   3.452   6.193   1.188 -1.8697  1.3025  0.1335
 8047TIP3    H248337   3.445   6.294   1.076  0.7247  0.4512 -0.8605
 8048TIP3   OH248338   6.411   2.419   3.547 -0.0914 -0.2626 -0.4677
 8048TIP3    H148339   6.381   2.491   3.493 -0.1702 -0.5886 -0.8651
 8048TIP3    H248340   6.489   2.386   3.502  0.9344  0.6280  0.5967
 8049TIP3   OH248341   0.242   2.509   3.681  0.7652 -0.1480 -0.1005
 8049TIP3    H148342   0.312   2.444   3.675 -0.0241 -0.9499 -1.0572
 8049TIP3    H248343   0.162   2.457   3.696  0.0870  0.5658 -1.0935
 8050TIP3   OH248344   3.696   6.598   1.048 -0.0480  0.1866  0.0021
 8050TIP3    H148345   3.619   6.579   1.102 -0.0500 -1.0287 -0.3839
 8050TIP3    H248346   3.668   6.670   0.991 -1.8435 -1.8615 -1.9044
 8051TIP3   OH248347   4.106   0.138   0.507 -0.3714  0.2400  0.2017
 8051TIP3    H148348   4.125   0.047   0.532  0.5887  0.6653  1.0810
 8051TIP3    H248349   4.014   0.151   0.531  0.5861  0.7998  4.2439
 8052TIP3   OH248350   0.812   0.124   1.760  0.0041  0.1476 -0.1014
 8052TIP3    H148351   0.733   0.176   1.749  1.2786  2.1533 -0.2505
 8052TIP3    H248352   0.849   0.118   1.671 -0.2894 -1.3376 -0.1468
 8053TIP3   OH248353   0.329   0.389   2.021 -0.2543  0.0459 -0.3825
 8053TIP3    H148354   0.325   0.401   2.116 -0.5066  1.0954 -0.5157
 8053TIP3    H248355   0.324   0.294   2.008 -0.5866 -0.0786  0.6328
 8054TIP3   OH248356   3.093   5.329   1.777  0.0614 -0.2891 -0.0643
 8054TIP3    H148357   3.061   5.319   1.688 -0.4520  0.6190  0.0037
 8054TIP3    H248358   3.138   5.247   1.796 -0.7605 -0.9189 -0.7737
 8055TIP3   OH248359   5.154   3.254   2.331  0.5310  0.2758  0.3599
 8055TIP3    H148360   5.243   3.225   2.312  0.1896  0.3414 -1.6018
 8055TIP3    H248361   5.162   3.349   2.343  0.4530  0.7452 -2.5008
 8056TIP3   OH248362   1.160   0.051   2.629  0.0727 -0.5301 -0.5375
 8056TIP3    H148363   1.208   0.103   2.694  1.2028 -0.9150 -1.0267
 8056TIP3    H248364   1.110   0.115   2.578 -1.1336 -0.2587  0.9293
 8057TIP3   OH248365   5.645   0.014   2.513  0.2521 -0.3915 -0.0789
 8057TIP3    H148366   5.611  -0.031   2.436 -0.8580 -1.0951  0.7981
 8057TIP3    H248367   5.648  -0.053   2.582  0.6721  0.3515  0.6527
 8058TIP3   OH248368   6.531   0.689   0.684  0.0348 -0.2604 -0.0107
 8058TIP3    H148369   6.461   0.724   0.739 -0.5970 -1.4608 -0.0123
 8058TIP3    H248370   6.558   0.763   0.629  1.0589  1.1363  2.2404
 8059TIP3   OH248371   4.237   2.498   2.360 -0.7826 -0.5170  0.3575
 8059TIP3    H148372   4.197   2.436   2.420  1.3957  0.2308  2.7733
 8059TIP3    H248373   4.304   2.448   2.314 -0.8516 -0.5562  0.2992
 8060TIP3   OH248374   2.295   6.428   0.987  0.5270  0.4868 -0.4986
 8060TIP3    H148375   2.295   6.456   0.895 -2.1462  1.7616 -0.2242
 8060TIP3    H248376   2.302   6.333   0.983  2.3818  0.6298 -1.8852
 8061TIP3   OH248377   6.591   4.860   0.979  0.0536  0.2784 -0.7558
 8061TIP3    H148378   6.676   4.824   1.005 -0.2977 -0.9365 -1.2118
 8061TIP3    H248379   6.612   4.937   0.927  0.8252  1.1387  0.7486
 8062TIP3   OH248380   3.071   1.301   0.647 -0.2427 -1.0858 -0.1342
 8062TIP3    H148381   3.108   1.311   0.559  0.0877  0.4153  0.1511
 8062TIP3    H248382   2.984   1.264   0.632 -0.8594  0.6851 -1.2490
 8063TIP3   OH248383   3.133   0.055   0.770 -0.1463 -0.0342  0.4681
 8063TIP3    H148384   3.103   0.105   0.846 -0.9019 -1.6450  1.2839
 8063TIP3    H248385   3.114   0.112   0.695  1.1176  1.8293  1.4641
 8064TIP3   OH248386   0.493   1.131   1.831  0.2216  0.4496 -0.2545
 8064TIP3    H148387   0.576   1.084   1.838  0.0383  0.0519 -0.6833
 8064TIP3    H248388   0.452   1.097   1.752 -0.5862  0.2776  0.2206
 8065TIP3   OH248389   1.817   4.411   3.111 -0.4398 -0.0987  0.1522
 8065TIP3    H148390   1.816   4.443   3.021 -0.9533 -1.3558 -0.3073
 8065TIP3    H248391   1.833   4.489   3.164 -0.5835  0.7300 -0.9961
 8066TIP3   OH248392   6.485   6.425   2.864 -0.5709  0.2857 -0.2760
 8066TIP3    H148393   6.565   6.477   2.860 -0.4705  0.3897  1.7157
 8066TIP3    H248394   6.428   6.476   2.922 -0.8499 -1.3120  0.9182
 8067TIP3   OH248395   0.176   0.367   2.322  0.2717  0.1777  0.1354
 8067TIP3    H148396   0.131   0.397   2.242 -0.0366 -1.2151 -0.2265
 8067TIP3    H248397   0.176   0.272   2.316  1.3902  0.0842  1.1862
 8068TIP3   OH248398   3.437   6.547   3.318 -0.4824 -0.2002 -0.4477
 8068TIP3    H148399   3.351   6.577   3.290 -0.9110  0.6452  1.6598
 8068TIP3    H248400   3.496   6.619   3.295 -0.6126 -0.0634 -0.3506
 8069TIP3   OH248401   6.034   6.155   1.389  0.0497 -0.4357 -0.0668
 8069TIP3    H148402   6.074   6.242   1.389  0.4821 -0.6311 -0.0987
 8069TIP3    H248403   5.961   6.162   1.450  0.0495 -0.0341 -0.1096
 8070TIP3   OH248404   3.106   3.725   3.443 -0.3469  0.2909  0.7803
 8070TIP3    H148405   3.137   3.642   3.478 -0.8486 -0.4381 -0.4376
 8070TIP3    H248406   3.049   3.760   3.511 -1.1247 -0.9807  0.8196
 8071TIP3   OH248407   5.930   2.582   3.276  0.4870 -0.4331 -0.0340
 8071TIP3    H148408   5.958   2.497   3.241  1.4849  0.0045 -0.3135
 8071TIP3    H248409   5.866   2.559   3.343 -0.9373 -1.3343 -1.6047
 8072TIP3   OH248410   0.558   3.884   1.109 -0.2570  0.1263  0.0939
 8072TIP3    H148411   0.559   3.978   1.091  1.9688 -0.0142 -0.8878
 8072TIP3    H248412   0.635   3.870   1.165 -0.6704 -1.0838  0.3853
 8073TIP3   OH248413   0.535   2.709   2.443 -0.3630  0.4143  0.1185
 8073TIP3    H148414   0.607   2.721   2.382 -1.1449  1.7832 -0.5654
 8073TIP3    H248415   0.547   2.619   2.476  2.1278  0.8654  0.6862
 8074TIP3   OH248416   6.365   2.299   1.303  0.4293  0.3094  0.3146
 8074TIP3    H148417   6.448   2.277   1.346  0.1594  1.4818  1.4792
 8074TIP3    H248418   6.306   2.229   1.330  0.9796 -0.4555 -0.4033
 8075TIP3   OH248419   6.392   2.556   1.587  0.1329  0.3630  0.0425
 8075TIP3    H148420   6.368   2.566   1.495 -1.7656  0.4078  0.5021
 8075TIP3    H248421   6.451   2.481   1.588  0.5918  0.6793 -1.2651
 8076TIP3   OH248422   3.567   2.026   2.513 -0.3281  0.1715 -0.3108
 8076TIP3    H148423   3.653   2.013   2.474 -0.2014  1.3605 -0.4673
 8076TIP3    H248424   3.548   1.944   2.558  0.8147 -0.1594 -0.4084
 8077TIP3   OH248425   5.560   2.637   1.360  0.0573  0.0542  0.4931
 8077TIP3    H148426   5.605   2.719   1.382 -0.4633  0.1296  1.3040
 8077TIP3    H248427   5.564   2.585   1.440  0.0245 -0.5552  0.1046
 8078TIP3   OH248428   4.933   4.314   1.147 -0.6869  0.0050  0.6111
 8078TIP3    H148429   4.903   4.223   1.145 -1.6022  0.0623  4.4171
 8078TIP3    H248430   4.861   4.361   1.189  0.8633  2.0012  1.1415
 8079TIP3   OH248431   0.336   0.265   3.761 -0.6698  0.0841 -0.6610
 8079TIP3    H148432   0.417   0.223   3.732  0.1383  0.0851  1.4105
 8079TIP3    H248433   0.345   0.356   3.733  0.2729  0.1892 -0.0485
 8080TIP3   OH248434   4.830   4.612   3.745 -0.5801  0.0625  0.2199
 8080TIP3    H148435   4.746   4.653   3.764 -0.8406 -0.1836 -0.3758
 8080TIP3    H248436   4.895   4.676   3.774 -0.9769  1.0212 -0.9366
 8081TIP3   OH248437   0.975   0.715   3.242  0.1850 -0.2663 -0.1522
 8081TIP3    H148438   0.904   0.763   3.199  1.8801  1.9523 -0.7106
 8081TIP3    H248439   0.939   0.689   3.327 -1.3234  0.6776 -0.4708
 8082TIP3   OH248440   4.829   0.502   1.053  0.7496  0.0946  0.4128
 8082TIP3    H148441   4.739   0.531   1.041  0.8546  0.5274  0.6154
 8082TIP3    H248442   4.823   0.427   1.112  0.5452  0.3359  0.7016
 8083TIP3   OH248443   5.564   4.629   3.497 -0.0483 -0.0946 -0.0035
 8083TIP3    H148444   5.659   4.643   3.487  0.2460 -0.2651  2.1959
 8083TIP3    H248445   5.556   4.538   3.523 -0.7600  0.1293  0.5776
 8084TIP3   OH248446   2.512   5.655   2.515 -0.3010 -0.1337 -0.2075
 8084TIP3    H148447   2.422   5.671   2.543  0.6261  0.4645  2.7154
 8084TIP3    H248448   2.541   5.581   2.567  1.7157  1.3836  0.9605
 8085TIP3   OH248449   5.138   3.802   3.409  0.0664  0.2272  0.4829
 8085TIP3    H148450   5.101   3.778   3.324 -1.2739  1.7052  0.5956
 8085TIP3    H248451   5.214   3.856   3.386  0.1470  0.0086  0.2237
 8086TIP3   OH248452   1.588   2.902   0.916  0.1254  0.6452 -0.3413
 8086TIP3    H148453   1.657   2.890   0.851  0.2812  2.8631 -0.6416
 8086TIP3    H248454   1.623   2.967   0.977 -0.0223 -1.3408  2.0353
 8087TIP3   OH248455   5.194   1.488   1.364 -0.3560  0.4483 -0.0440
 8087TIP3    H148456   5.246   1.499   1.284 -2.3378  0.3814 -1.4116
 8087TIP3    H248457   5.242   1.538   1.430 -0.5298  3.7238 -2.1459
 8088TIP3   OH248458   0.054   3.001   1.710 -0.2959 -0.2105 -0.5245
 8088TIP3    H148459   0.069   3.088   1.748 -0.5645 -0.5731  0.4318
 8088TIP3    H248460  -0.000   3.018   1.633 -0.8869  0.4199  0.0155
 8089TIP3   OH248461   2.026   1.926   3.070  0.4556 -0.4451  0.1392
 8089TIP3    H148462   2.107   1.939   3.021 -0.7301  1.9740 -1.3620
 8089TIP3    H248463   2.028   1.993   3.138 -0.5843  0.1056 -0.3561
 8090TIP3   OH248464   3.766   0.421   1.518  0.2623  0.3101  0.2119
 8090TIP3    H148465   3.769   0.503   1.469  0.3303  0.0837 -0.1697
 8090TIP3    H248466   3.725   0.359   1.458  0.7275 -0.0737  0.2867
 8091TIP3   OH248467   0.621   5.557   2.406  0.6401  0.0261 -0.5365
 8091TIP3    H148468   0.709   5.576   2.373  0.8649 -0.1094 -0.0330
 8091TIP3    H248469   0.625   5.579   2.499 -0.0781  0.7106 -0.6573
 8092TIP3   OH248470   4.355   3.594   3.178  0.5225  0.3421 -0.6729
 8092TIP3    H148471   4.449   3.608   3.176  0.6994 -0.6888 -0.1535
 8092TIP3    H248472   4.328   3.599   3.086  1.0976  0.5191 -0.8351
 8093TIP3   OH248473   0.393   0.297   0.882  0.9462  0.0661 -0.4351
 8093TIP3    H148474   0.349   0.379   0.904 -0.1706 -0.6912  0.2415
 8093TIP3    H248475   0.465   0.291   0.944  0.7478  0.3150 -0.1752
 8094TIP3   OH248476   0.911   4.004   2.399  0.1045  0.3666  0.1120
 8094TIP3    H148477   0.881   4.069   2.462  0.7000  0.0522  0.7399
 8094TIP3    H248478   1.000   3.982   2.427 -0.3276 -1.2443  0.3485
 8095TIP3   OH248479   3.657   2.812   2.213 -0.5653 -0.3112  0.3386
 8095TIP3    H148480   3.590   2.772   2.158 -0.2926 -0.4894  0.1368
 8095TIP3    H248481   3.670   2.749   2.284 -0.2620 -0.4976  0.1157
 8096TIP3   OH248482   6.341   5.105   1.351  0.3010 -0.0447 -0.2066
 8096TIP3    H148483   6.274   5.173   1.349  0.3850  0.5658  4.7635
 8096TIP3    H248484   6.311   5.043   1.417  2.3983 -2.4389 -1.3181
 8097TIP3   OH248485   3.295   2.150   4.125 -0.9422  0.3578 -1.0364
 8097TIP3    H148486   3.261   2.061   4.116  0.2533 -0.3531  0.8353
 8097TIP3    H248487   3.219   2.203   4.148 -1.2526 -0.7251  0.5675
 8098TIP3   OH248488   5.027   5.353   1.936 -0.4035  0.3905 -0.3988
 8098TIP3    H148489   5.017   5.263   1.968 -0.4284  0.1472 -1.0715
 8098TIP3    H248490   4.938   5.388   1.933 -0.6125 -0.1959 -1.9031
 8099TIP3   OH248491   0.386   1.565   1.261  0.1460 -0.2232 -0.4437
 8099TIP3    H148492   0.477   1.537   1.250  0.5174  1.0406 -0.8022
 8099TIP3    H248493   0.366   1.614   1.180 -0.7319 -0.1905 -0.2175
 8100TIP3   OH248494   5.281   4.849   2.307 -0.1244  0.5376 -0.1700
 8100TIP3    H148495   5.305   4.786   2.375  0.1820 -1.1611 -1.7735
 8100TIP3    H248496   5.360   4.900   2.292 -0.5471  1.7856  1.5722
 8101TIP3   OH248497   2.331   4.568   3.653 -0.6784 -0.5410  0.6322
 8101TIP3    H148498   2.390   4.615   3.712  1.0045 -2.1739  0.3452
 8101TIP3    H248499   2.338   4.615   3.570  1.1707 -1.3402  0.2807
 8102TIP3   OH248500   1.127   4.695   3.625  0.3025 -0.1776 -0.0189
 8102TIP3    H148501   1.147   4.620   3.569 -0.2626 -0.9320  0.7680
 8102TIP3    H248502   1.105   4.657   3.710 -2.2521  0.7110 -0.1852
 8103TIP3   OH248503   4.151   1.821   2.982  0.1725 -0.3852  0.3024
 8103TIP3    H148504   4.067   1.845   3.021  0.3176 -0.3263  0.5820
 8103TIP3    H248505   4.147   1.855   2.892  0.5116  1.0206  0.7953
 8104TIP3   OH248506   6.502   3.424   0.796 -0.8725  0.0225 -0.1980
 8104TIP3    H148507   6.588   3.382   0.794 -1.5274 -1.4147  0.4159
 8104TIP3    H248508   6.445   3.364   0.748 -1.8869  0.0807  0.9062
 8105TIP3   OH248509   5.843   2.283   0.799  0.7560  0.6878 -0.1343
 8105TIP3    H148510   5.765   2.326   0.833  0.6150 -0.1014  0.5614
 8105TIP3    H248511   5.916   2.335   0.832  0.5925  0.3285  0.8325
 8106TIP3   OH248512   2.649   3.243   3.550 -0.0771 -0.2461  0.1757
 8106TIP3    H148513   2.585   3.177   3.525  1.1723 -1.4640  0.0792
 8106TIP3    H248514   2.677   3.217   3.638  0.6130  0.0003  0.0316
 8107TIP3   OH248515   5.477   0.081   4.054 -0.1544  0.3660  0.1923
 8107TIP3    H148516   5.495   0.101   4.145 -1.9802  1.2548  0.4042
 8107TIP3    H248517   5.551   0.118   4.005  1.2768 -0.8702  1.3176
 8108TIP3   OH248518   5.942   4.817   3.619  0.1164 -0.3848  0.1960
 8108TIP3    H148519   5.890   4.808   3.699  0.8030 -0.7235  0.6089
 8108TIP3    H248520   5.918   4.740   3.567  0.2556 -0.5692  0.4084
 8109TIP3   OH248521   5.884   2.409   1.289 -0.4692 -0.2205 -0.1653
 8109TIP3    H148522   5.889   2.486   1.345  1.7740 -2.1528  2.5972
 8109TIP3    H248523   5.841   2.343   1.344  1.5833 -2.1306 -0.7365
 8110TIP3   OH248524   1.436   6.412   2.721  0.2518  0.1188  0.3470
 8110TIP3    H148525   1.443   6.350   2.649 -0.0855  2.3804 -1.7942
 8110TIP3    H248526   1.345   6.442   2.718  0.8203  1.9880  0.0828
 8111TIP3   OH248527   1.605   5.227   4.039  0.1505 -0.1030 -0.5251
 8111TIP3    H148528   1.589   5.150   4.094 -0.2960 -0.5450 -1.2659
 8111TIP3    H248529   1.699   5.224   4.020  0.0317 -0.8215 -1.0619
 8112TIP3   OH248530   2.792   0.705   2.190 -0.0014  0.1130  0.1572
 8112TIP3    H148531   2.853   0.631   2.195  0.1571  0.2246 -0.1204
 8112TIP3    H248532   2.788   0.739   2.279  0.7241  0.4185  0.0730
 8113TIP3   OH248533   3.207   5.074   3.026  0.2441  0.0016  0.2222
 8113TIP3    H148534   3.290   5.027   3.025  0.8851  1.0872  0.6177
 8113TIP3    H248535   3.227   5.157   3.069 -1.1504  0.0961  0.7539
 8114TIP3   OH248536   6.350   2.597   3.793  0.0916 -0.7076 -0.1639
 8114TIP3    H148537   6.330   2.595   3.700  2.3601  0.1546 -0.7352
 8114TIP3    H248538   6.379   2.508   3.814 -0.1476 -0.8288 -0.3575
 8115TIP3   OH248539   6.420   3.229   2.709  0.6452  0.4015 -0.3937
 8115TIP3    H148540   6.457   3.170   2.643 -0.1968  0.7706 -1.2091
 8115TIP3    H248541   6.389   3.305   2.659 -0.4848  0.4580  0.3631
 8116TIP3   OH248542   4.455   2.615   3.774 -0.0250 -0.0004 -0.2094
 8116TIP3    H148543   4.466   2.709   3.788  0.0435 -0.1882  1.1055
 8116TIP3    H248544   4.480   2.575   3.857 -0.1282 -1.1834 -0.7229
 8117TIP3   OH248545   1.295   0.695   1.186 -0.4555  0.3817  0.3774
 8117TIP3    H148546   1.267   0.786   1.197  1.3254  0.9827  0.2342
 8117TIP3    H248547   1.292   0.658   1.274 -0.8361  0.6775  0.4926
 8118TIP3   OH248548   0.599   3.172   3.160  0.0055 -0.0872  0.1180
 8118TIP3    H148549   0.578   3.243   3.100 -1.7603 -1.1529 -0.6064
 8118TIP3    H248550   0.538   3.102   3.137  1.0649 -1.5090  1.4132
 8119TIP3   OH248551   0.610   5.551   1.202 -0.1613  0.2182  0.1399
 8119TIP3    H148552   0.533   5.606   1.220  0.0943  0.8011 -0.4719
 8119TIP3    H248553   0.620   5.556   1.107  0.0547 -0.6518  0.1106
 8120TIP3   OH248554   6.509   2.003   2.340  0.8205 -0.1493  0.1851
 8120TIP3    H148555   6.421   2.032   2.317  1.1350  0.3925 -0.3645
 8120TIP3    H248556   6.512   2.008   2.436  0.4054  0.2686  0.1784
 8121TIP3   OH248557   5.015   0.098   1.478 -0.0001  0.0043 -0.4275
 8121TIP3    H148558   5.090   0.152   1.452 -1.9805  1.5505 -3.6004
 8121TIP3    H248559   4.960   0.157   1.530 -0.3329 -0.2150 -0.5271
 8122TIP3   OH248560   3.958   4.750   9.420  0.1914 -0.3284 -0.1972
 8122TIP3    H148561   3.990   4.686   9.485  0.6807  0.3935  0.2959
 8122TIP3    H248562   4.008   4.830   9.439  0.0884  0.0009 -1.2493
 8123TIP3   OH248563   5.472   5.780   1.819 -0.2837  0.1230 -0.3936
 8123TIP3    H148564   5.494   5.689   1.802 -1.9680 -0.4227  0.1599
 8123TIP3    H248565   5.409   5.803   1.750  1.0849  1.3030 -1.3198
 8124TIP3   OH248566   6.234   5.785   2.277 -0.1004 -0.6228  0.3330
 8124TIP3    H148567   6.157   5.826   2.236  0.3155 -0.3727 -0.2028
 8124TIP3    H248568   6.309   5.826   2.234  0.3393 -0.6976  1.0222
 8125TIP3   OH248569   6.495   0.628   3.628 -0.2969 -0.4205  0.0466
 8125TIP3    H148570   6.569   0.590   3.675 -0.1948 -0.5469 -0.2163
 8125TIP3    H248571   6.427   0.638   3.694  0.5544  1.3673  0.7049
 8126TIP3   OH248572   4.892   2.623   2.711 -0.4518 -0.1968 -0.5712
 8126TIP3    H148573   4.894   2.716   2.686 -1.1364 -0.2608 -0.9093
 8126TIP3    H248574   4.897   2.576   2.629  4.2029 -0.6346 -0.2861
 8127TIP3   OH248575   3.478   1.132   2.923 -0.7377  0.5724 -0.7651
 8127TIP3    H148576   3.561   1.142   2.878 -0.6194  1.7993 -0.3239
 8127TIP3    H248577   3.495   1.166   3.011 -1.2813 -0.6543 -0.1611
 8128TIP3   OH248578   5.051   5.341   2.888 -0.5435 -0.3853  0.0753
 8128TIP3    H148579   5.085   5.297   2.810  1.1626  1.7853 -0.4978
 8128TIP3    H248580   5.100   5.302   2.961  1.3407  0.8166 -0.4775
 8129TIP3   OH248581   1.470   4.171   2.519  0.0973 -0.0004 -0.5644
 8129TIP3    H148582   1.556   4.209   2.537  1.3091 -2.7075 -0.1657
 8129TIP3    H248583   1.488   4.083   2.487 -2.5414 -0.6898 -0.4514
 8130TIP3   OH248584   0.487   1.395   0.611  0.1135 -0.3901  0.2552
 8130TIP3    H148585   0.487   1.451   0.533 -0.8036 -1.5689 -0.6194
 8130TIP3    H248586   0.469   1.455   0.683  3.3658  1.1639 -0.0513
 8131TIP3   OH248587   4.134   3.373   2.559 -0.1877 -0.4477  0.1255
 8131TIP3    H148588   4.082   3.454   2.556 -0.2658 -0.5184 -2.2251
 8131TIP3    H248589   4.177   3.376   2.645 -0.9149  1.6237  0.4879
 8132TIP3   OH248590   5.325   3.995   1.530  0.2436 -0.4906  0.7264
 8132TIP3    H148591   5.305   3.905   1.554 -0.6070 -0.4776  0.0969
 8132TIP3    H248592   5.248   4.025   1.482  1.2402 -0.0069 -0.6244
 8133TIP3   OH248593   2.097   2.016   0.791  0.3820  0.7650  0.8111
 8133TIP3    H148594   2.090   2.063   0.875  2.5765 -1.3494  2.3088
 8133TIP3    H248595   2.060   1.930   0.809  0.7360  0.3354 -0.4554
 8134TIP3   OH248596   3.721   4.199   9.699 -0.4646  0.6179  0.0772
 8134TIP3    H148597   3.750   4.226   9.612 -2.0136 -0.3381 -0.7821
 8134TIP3    H248598   3.779   4.127   9.723 -0.1047  0.8056 -0.2276
 8135TIP3   OH248599   0.311   2.889   1.262  0.5224 -0.1090  0.6865
 8135TIP3    H148600   0.332   2.981   1.242  1.3285 -0.1897  1.1214
 8135TIP3    H248601   0.221   2.893   1.296  0.0349  0.3313 -0.5921
 8136TIP3   OH248602   5.206   5.226   2.689  0.6261 -0.4527 -0.3662
 8136TIP3    H148603   5.290   5.268   2.668  0.4789 -0.4375 -0.9357
 8136TIP3    H248604   5.145   5.262   2.625 -0.4057  1.4216  1.5511
 8137TIP3   OH248605   0.766   0.808   3.684 -0.6351 -0.4659  0.3656
 8137TIP3    H148606   0.844   0.859   3.663 -0.6607 -0.5949 -0.0472
 8137TIP3    H248607   0.735   0.846   3.766 -0.3958 -0.1142  0.2982
 8138TIP3   OH248608   5.476   5.254   0.418 -0.2957 -1.1350  0.1688
 8138TIP3    H148609   5.539   5.300   0.474 -0.9856 -0.1898  0.1871
 8138TIP3    H248610   5.521   5.247   0.334  0.2040 -1.3143  0.4441
 8139TIP3   OH248611   3.131   4.358   3.538  0.3507 -0.1832  0.4521
 8139TIP3    H148612   3.084   4.275   3.548 -2.7513  1.2682 -0.5486
 8139TIP3    H248613   3.109   4.386   3.449  1.8759  1.4195  0.5365
 8140TIP3   OH248614   5.990   4.774   3.090  0.5225  0.3655 -0.4372
 8140TIP3    H148615   5.990   4.692   3.141 -0.7696  0.8737  0.4369
 8140TIP3    H248616   6.053   4.759   3.020 -0.7303 -1.9593 -1.1872
 8141TIP3   OH248617   0.389   4.030   0.785  0.4912 -0.1857  0.1910
 8141TIP3    H148618   0.452   4.089   0.742 -0.4100 -0.0776 -1.0524
 8141TIP3    H248619   0.432   3.945   0.784  1.1002  0.1087  0.4294
 8142TIP3   OH248620   6.483   4.336   0.851 -0.0181 -0.5095  0.0417
 8142TIP3    H148621   6.555   4.300   0.903  1.3082  0.4705 -1.0459
 8142TIP3    H248622   6.447   4.406   0.905  0.1839 -0.6666  0.3798
 8143TIP3   OH248623   2.249   2.492   1.614  0.6407 -0.0295  0.2008
 8143TIP3    H148624   2.196   2.560   1.573  0.2469  0.5723  1.6351
 8143TIP3    H248625   2.339   2.513   1.588  0.6676  1.7576  1.4683
 8144TIP3   OH248626   3.908   6.411   2.230  0.3588 -0.0164 -0.1779
 8144TIP3    H148627   3.894   6.458   2.148 -1.4585  0.9020  0.5951
 8144TIP3    H248628   3.862   6.329   2.218 -0.7263  0.5155  0.2349
 8145TIP3   OH248629   3.359   3.261   1.260 -0.1066 -0.4303 -0.2022
 8145TIP3    H148630   3.387   3.331   1.319 -1.2445  1.6194 -1.9787
 8145TIP3    H248631   3.315   3.197   1.317 -0.0204  0.8351  1.3299
 8146TIP3   OH248632   5.595   0.361   1.521 -0.4321  0.0114 -0.5820
 8146TIP3    H148633   5.555   0.385   1.605  0.6359  0.3957 -0.1732
 8146TIP3    H248634   5.545   0.284   1.492 -1.3668  0.3934 -0.0210
 8147TIP3   OH248635   4.522   2.107   1.445 -0.4770 -1.1249  0.3930
 8147TIP3    H148636   4.614   2.088   1.467  0.2253  0.1151 -1.2491
 8147TIP3    H248637   4.478   2.113   1.529  1.4586  0.5951  1.3607
 8148TIP3   OH248638   1.569   6.337   3.517  0.2768  0.4317  0.4167
 8148TIP3    H148639   1.657   6.374   3.517  0.5234 -0.1180  1.5003
 8148TIP3    H248640   1.531   6.365   3.601 -0.3659  0.1543  0.2271
 8149TIP3   OH248641   4.628   4.828   3.190  0.3635  0.3273  0.4527
 8149TIP3    H148642   4.661   4.870   3.270  1.9768 -1.1638  0.6255
 8149TIP3    H248643   4.612   4.737   3.216  0.3452 -0.0399 -0.7864
 8150TIP3   OH248644   1.556   5.672   2.034  0.3145 -0.2492  0.2241
 8150TIP3    H148645   1.596   5.591   2.005  1.5193  0.0847  0.8990
 8150TIP3    H248646   1.612   5.703   2.105  0.7369  1.9253 -0.9829
 8151TIP3   OH248647   3.274   5.576   3.008  0.2062 -0.7754 -0.1772
 8151TIP3    H148648   3.270   5.649   2.947 -0.0983 -0.3790  0.3030
 8151TIP3    H248649   3.274   5.617   3.095 -0.6507 -1.3538  0.1142
 8152TIP3   OH248650   0.929   1.111   1.408 -0.7946  0.3109 -0.2777
 8152TIP3    H148651   0.946   1.126   1.315 -1.2545 -0.9874 -0.5979
 8152TIP3    H248652   0.977   1.181   1.453 -0.1735  0.6760 -1.4603
 8153TIP3   OH248653   0.906   0.585   3.506  0.3255 -0.2071  0.1036
 8153TIP3    H148654   0.855   0.555   3.581 -0.3293  0.8557  0.0970
 8153TIP3    H248655   0.989   0.616   3.543  0.0490  0.2096  0.3776
 8154TIP3   OH248656   6.373   4.156   4.576 -0.2374 -0.3997  0.1440
 8154TIP3    H148657   6.449   4.108   4.610  0.0367 -0.7292 -0.9014
 8154TIP3    H248658   6.380   4.147   4.481 -1.9727 -1.0452  0.0402
 8155TIP3   OH248659   2.656   0.576   1.953 -0.4664 -0.6364 -0.0402
 8155TIP3    H148660   2.738   0.531   1.931 -0.5842 -0.1626 -1.6219
 8155TIP3    H248661   2.684   0.652   2.004  0.1026 -0.4488 -0.6100
 8156TIP3   OH248662   4.898   5.653   1.612  0.7086 -0.2356 -0.0750
 8156TIP3    H148663   4.847   5.578   1.581 -0.1367  0.5663 -0.7065
 8156TIP3    H248664   4.987   5.636   1.582  0.3083 -0.4753 -1.1989
 8157TIP3   OH248665   4.514   6.405   0.862  0.2277 -0.4432  0.4288
 8157TIP3    H148666   4.596   6.402   0.813  0.0310  0.4838  0.0326
 8157TIP3    H248667   4.465   6.477   0.823 -0.2043 -0.1024  1.5763
 8158TIP3   OH248668   3.630   0.326   3.322  0.5231 -0.1208 -0.0708
 8158TIP3    H148669   3.705   0.267   3.324  1.2450  0.7090 -1.1233
 8158TIP3    H248670   3.566   0.287   3.382  1.1788 -1.6736 -0.3378
 8159TIP3   OH248671   2.306   3.862   2.461  0.0911  0.0627  0.2496
 8159TIP3    H148672   2.256   3.854   2.543 -0.1998 -1.2637 -0.0351
 8159TIP3    H248673   2.262   3.933   2.414  0.8469  1.5217  1.6104
 8160TIP3   OH248674   5.035   1.942   3.339 -0.2270  0.3142  0.2137
 8160TIP3    H148675   4.984   1.948   3.419 -0.2116 -1.1510  0.3558
 8160TIP3    H248676   4.988   1.878   3.285 -1.3394  2.6635 -1.8198
 8161TIP3   OH248677   6.050   3.252   3.305  0.0422 -0.2148  0.1987
 8161TIP3    H148678   6.123   3.309   3.331 -0.1311  0.9263 -1.6586
 8161TIP3    H248679   5.972   3.299   3.333 -0.0616 -1.0021  1.3401
 8162TIP3   OH248680   4.197   2.255   1.271 -0.2460  0.1408  0.3999
 8162TIP3    H148681   4.113   2.285   1.306  0.1967  1.3746  0.4687
 8162TIP3    H248682   4.195   2.281   1.179 -0.5577 -1.2354 -0.0062
 8163TIP3   OH248683   4.031   3.908   3.429 -0.3515  0.1610 -0.2555
 8163TIP3    H148684   3.955   3.946   3.472 -0.3615  1.5528 -1.4034
 8163TIP3    H248685   4.106   3.938   3.482 -0.3627  1.8392 -1.1119
 8164TIP3   OH248686   0.104   6.601   2.521  0.3146 -0.1904  0.6215
 8164TIP3    H148687   0.113   6.532   2.587 -3.1091  1.2624  2.9095
 8164TIP3    H248688   0.026   6.576   2.472  0.2440  0.9983  0.1037
 8165TIP3   OH248689   5.419   3.519   3.463 -0.7196 -0.5875  0.2651
 8165TIP3    H148690   5.457   3.533   3.376 -1.8681  1.3246  0.0043
 8165TIP3    H248691   5.494   3.511   3.521  0.1631  1.9335 -0.3931
 8166TIP3   OH248692   2.851   5.934   0.594  0.0670 -0.1084 -0.5608
 8166TIP3    H148693   2.929   5.960   0.545 -0.4868 -1.4153 -2.2222
 8166TIP3    H248694   2.822   6.015   0.637  1.9672  0.5208 -0.3893
 8167TIP3   OH248695   5.130   1.150   2.725 -0.0525  0.2174  0.5992
 8167TIP3    H148696   5.225   1.153   2.718  0.0834  1.1383  2.3146
 8167TIP3    H248697   5.099   1.210   2.657  0.5772 -0.2172 -0.0776
 8168TIP3   OH248698   5.648   0.193   3.598  0.5266 -0.3482  0.2988
 8168TIP3    H148699   5.665   0.110   3.554  1.2551  0.3265 -0.7487
 8168TIP3    H248700   5.727   0.244   3.584  0.6508  0.0272  2.1615
 8169TIP3   OH248701   1.507   1.867   2.052  0.0603 -0.0226  0.3818
 8169TIP3    H148702   1.553   1.832   1.976  1.5944  0.9483  0.8294
 8169TIP3    H248703   1.494   1.791   2.109 -1.0823 -0.7560 -0.7957
 8170TIP3   OH248704   4.580   2.564   4.394  0.0530 -0.3449  0.3316
 8170TIP3    H148705   4.517   2.556   4.466  0.3713  2.8605  1.1387
 8170TIP3    H248706   4.526   2.570   4.315 -0.7489  1.9313  0.9696
 8171TIP3   OH248707   0.553   4.406   2.644  0.1619 -0.4378  0.1419
 8171TIP3    H148708   0.586   4.338   2.702  0.5536 -1.8246 -1.5956
 8171TIP3    H248709   0.625   4.422   2.583  0.2215  1.8814  0.7426
 8172TIP3   OH248710   5.321   0.869   4.011  0.4368  0.0665  0.0045
 8172TIP3    H148711   5.339   0.889   4.103 -2.1606 -1.2184  0.8970
 8172TIP3    H248712   5.391   0.809   3.985  0.5520 -0.5125  1.5465
 8173TIP3   OH248713   0.378   1.831   1.368  0.0743  0.3137  0.1687
 8173TIP3    H148714   0.392   1.890   1.294  0.3370  0.4396  0.3204
 8173TIP3    H248715   0.389   1.743   1.332  0.9007  0.3949  0.2100
 8174TIP3   OH248716   3.829   3.718   1.774 -0.2500  0.0293  0.3960
 8174TIP3    H148717   3.759   3.774   1.807 -2.0167 -0.0983 -2.7915
 8174TIP3    H248718   3.890   3.778   1.732  0.4230 -0.0726  1.1968
 8175TIP3   OH248719   0.870   1.903   0.722  0.2348  0.3464 -0.0375
 8175TIP3    H148720   0.929   1.941   0.657  0.3115  0.5837  0.1655
 8175TIP3    H248721   0.893   1.947   0.804  0.0690  0.1284  0.1306
 8176TIP3   OH248722   1.165   5.423   1.979 -0.1646  0.1103  0.4308
 8176TIP3    H148723   1.141   5.515   1.971 -0.3632 -0.0097 -0.3939
 8176TIP3    H248724   1.254   5.425   2.015  0.2488  0.6534 -0.5883
 8177TIP3   OH248725   5.664   6.062   3.046  0.3891 -0.2881 -0.4510
 8177TIP3    H148726   5.615   6.114   3.110  2.0106  0.5525  0.1674
 8177TIP3    H248727   5.618   5.978   3.043 -0.7837  0.2927  0.4510
 8178TIP3   OH248728   1.613   1.068   2.113  0.2855 -0.2883  0.1531
 8178TIP3    H148729   1.605   0.981   2.072  0.5759 -1.6076  2.7078
 8178TIP3    H248730   1.535   1.115   2.083 -1.2913 -2.3618  0.7274
 8179TIP3   OH248731   0.041   6.418   3.731  0.2455 -0.0722  0.5123
 8179TIP3    H148732  -0.022   6.424   3.803 -1.1576 -0.5134 -0.6283
 8179TIP3    H248733  -0.006   6.369   3.663  2.2620 -1.5280  0.0746
 8180TIP3   OH248734   4.463   4.873   3.979 -0.6862  0.4772 -0.1903
 8180TIP3    H148735   4.434   4.914   3.897 -0.3246 -0.3036 -0.7282
 8180TIP3    H248736   4.389   4.884   4.039 -0.8850  1.2203 -0.5670
 8181TIP3   OH248737   5.664   3.585   2.531  0.6304 -0.6777  0.3866
 8181TIP3    H148738   5.595   3.560   2.469  1.4986 -0.9011 -0.5069
 8181TIP3    H248739   5.635   3.549   2.615 -0.2400 -0.9414 -0.0219
 8182TIP3   OH248740   2.670   3.835   1.698 -0.3813  0.3786  0.5193
 8182TIP3    H148741   2.765   3.838   1.698 -0.3414 -0.6098  0.1895
 8182TIP3    H248742   2.645   3.898   1.630  0.1242 -0.8913 -0.8976
 8183TIP3   OH248743   5.169   2.854   4.204  0.0223 -0.1869 -0.0122
 8183TIP3    H148744   5.106   2.913   4.245 -0.6176 -0.8206 -0.0730
 8183TIP3    H248745   5.249   2.906   4.196 -1.3054  1.6596 -2.7016
 8184TIP3   OH248746   6.129   4.215   0.468  0.5374 -0.8852  0.3647
 8184TIP3    H148747   6.057   4.247   0.522 -0.3039 -0.8283 -0.7533
 8184TIP3    H248748   6.116   4.120   0.465  0.3807 -0.8527 -0.0159
 8185TIP3   OH248749   3.343   6.153   2.124  0.1326  0.3382  0.1532
 8185TIP3    H148750   3.427   6.198   2.115  0.5732 -0.4352  0.2712
 8185TIP3    H248751   3.278   6.219   2.101  0.6957  1.3062  1.2060
 8186TIP3   OH248752   5.536   1.046   2.528 -0.4376 -0.0551  0.0057
 8186TIP3    H148753   5.478   1.106   2.482 -0.2477 -0.5505 -0.9272
 8186TIP3    H248754   5.505   1.045   2.618 -1.4066  0.2539 -0.3173
 8187TIP3   OH248755   3.440   4.239   2.476  0.4279 -0.0135 -0.2717
 8187TIP3    H148756   3.349   4.210   2.470  0.3199  0.3271 -0.2602
 8187TIP3    H248757   3.467   4.213   2.564  0.2452  0.1703 -0.1619
 8188TIP3   OH248758   6.612   1.135   2.214  0.3385 -0.3438  0.0400
 8188TIP3    H148759   6.539   1.186   2.247  1.5406  2.0682 -0.7702
 8188TIP3    H248760   6.580   1.096   2.132 -0.3870 -0.2991  0.2996
 8189TIP3   OH248761   0.569   2.710   4.151 -0.0430 -0.6968  0.2025
 8189TIP3    H148762   0.613   2.688   4.233  0.4953  0.2226  0.1700
 8189TIP3    H248763   0.615   2.661   4.084 -0.0944 -0.9746  0.3686
 8190TIP3   OH248764   0.279   1.949   2.293 -0.1633  0.3567 -0.7045
 8190TIP3    H148765   0.358   1.930   2.242  0.3773  0.4942  0.0634
 8190TIP3    H248766   0.210   1.958   2.228  0.3033 -0.5305 -1.3415
 8191TIP3   OH248767   3.706   0.186   3.697 -0.1193  0.2486  0.6978
 8191TIP3    H148768   3.669   0.217   3.779 -0.1305  2.0187  0.0679
 8191TIP3    H248769   3.790   0.145   3.722  0.0649  1.1158  1.5426
 8192TIP3   OH248770   5.834   2.249   2.984  0.3100 -0.2623  0.3630
 8192TIP3    H148771   5.923   2.259   3.019  0.4074  0.2574 -0.0035
 8192TIP3    H248772   5.808   2.339   2.962 -0.0421 -0.4860 -0.1549
 8193TIP3   OH248773   5.672   3.905   2.787  0.2992  0.2610 -0.6637
 8193TIP3    H148774   5.745   3.963   2.810  0.7097 -0.0993 -1.0357
 8193TIP3    H248775   5.626   3.952   2.717  1.6616 -0.6124 -2.2150
 8194TIP3   OH248776   1.154   5.979   1.987 -0.4015  0.5085 -0.1360
 8194TIP3    H148777   1.214   6.045   2.022 -2.5952  2.4351  0.2199
 8194TIP3    H248778   1.080   5.979   2.048 -1.5265 -0.5742 -1.4338
 8195TIP3   OH248779   2.628   5.008   2.632 -0.1350  0.3288  0.2033
 8195TIP3    H148780   2.570   4.970   2.565  0.4843  0.4485 -0.4132
 8195TIP3    H248781   2.568   5.043   2.698 -0.8257  1.6706 -1.0831
 8196TIP3   OH248782   5.385   1.853   3.515 -0.1907 -0.1414  0.1870
 8196TIP3    H148783   5.335   1.933   3.533  1.6397  1.4782 -1.5838
 8196TIP3    H248784   5.458   1.856   3.576  1.6232  1.2512 -1.9319
 8197TIP3   OH248785   5.988   1.064   1.738  0.1676  0.6008 -0.3550
 8197TIP3    H148786   6.067   1.112   1.711 -0.4419  2.1096  0.4446
 8197TIP3    H248787   6.020   1.002   1.804  1.0018 -0.3126 -1.5604
 8198TIP3   OH248788   5.217   3.344   0.756 -0.3844 -0.3412  0.0177
 8198TIP3    H148789   5.192   3.425   0.800  1.1927  0.7483 -1.0023
 8198TIP3    H248790   5.241   3.371   0.667  0.5347 -1.8569 -0.2304
 8199TIP3   OH248791   0.752   1.829   2.485 -0.0911  0.1316 -0.4828
 8199TIP3    H148792   0.691   1.773   2.437 -0.5899 -0.5321  0.8838
 8199TIP3    H248793   0.836   1.816   2.440 -0.4207 -0.8951 -0.8393
 8200TIP3   OH248794   5.648   3.944   1.726  0.3973 -0.1793  0.3460
 8200TIP3    H148795   5.723   3.988   1.686 -0.8307  1.7966  0.0643
 8200TIP3    H248796   5.660   3.955   1.820  0.1543  0.7019  0.2784
 8201TIP3   OH248797   1.215   2.397   2.501  0.3758  0.0533 -0.0896
 8201TIP3    H148798   1.214   2.459   2.574 -0.0722  0.3932 -0.3783
 8201TIP3    H248799   1.218   2.452   2.423 -0.4721 -0.2724 -0.3600
 8202TIP3   OH248800   6.566   4.505   0.608  0.1526  0.1331 -0.1837
 8202TIP3    H148801   6.616   4.425   0.595  0.8058  0.7594 -1.7462
 8202TIP3    H248802   6.510   4.486   0.683  0.6443 -1.6081 -0.2110
 8203TIP3   OH248803   5.256   2.401   2.990 -0.0392  0.9807  1.0238
 8203TIP3    H148804   5.313   2.325   2.980 -2.0031 -0.4170 -0.4093
 8203TIP3    H248805   5.261   2.445   2.906  0.2822  1.8733  1.5025
 8204TIP3   OH248806   1.291   4.076   2.732  0.1582 -0.1293 -0.1096
 8204TIP3    H148807   1.218   4.111   2.681  0.3281 -2.0747 -1.8435
 8204TIP3    H248808   1.369   4.106   2.685  0.4938  1.0619  1.1368
 8205TIP3   OH248809   2.089   0.701   3.433  0.1741 -0.9047  0.5383
 8205TIP3    H148810   2.116   0.792   3.421  0.4293 -0.8742  1.2698
 8205TIP3    H248811   2.045   0.700   3.518  0.5935 -1.5510  0.7569
 8206TIP3   OH248812   1.898   5.454   1.491  0.0156  0.2449  0.4323
 8206TIP3    H148813   1.898   5.500   1.575 -0.0006  1.2354 -0.0936
 8206TIP3    H248814   1.961   5.502   1.437  0.1258 -0.4596 -0.0795
 8207TIP3   OH248815   5.323   5.308   3.562 -0.0096  0.8875  0.0604
 8207TIP3    H148816   5.238   5.335   3.595 -0.1910 -0.1200  0.4488
 8207TIP3    H248817   5.386   5.339   3.628 -0.1378  1.0225  0.1194
 8208TIP3   OH248818   4.603   3.300   1.212  0.6530 -0.1947 -0.5455
 8208TIP3    H148819   4.562   3.376   1.170 -0.8588 -1.3570 -1.2854
 8208TIP3    H248820   4.627   3.242   1.139  1.7688 -0.4497  0.0038
 8209TIP3   OH248821   4.631   2.803   2.026  0.0328 -0.3178  0.8360
 8209TIP3    H148822   4.578   2.731   2.061 -0.4409 -0.4747 -0.1514
 8209TIP3    H248823   4.665   2.769   1.943 -0.3695  0.6547  0.2516
 8210TIP3   OH248824   3.624   0.658   2.400  0.6633  0.1161  0.2544
 8210TIP3    H148825   3.632   0.620   2.312  0.9233  3.5637 -1.3893
 8210TIP3    H248826   3.568   0.735   2.388  0.5868  0.6355  3.1834
 8211TIP3   OH248827   5.289   5.598   1.185 -0.1031 -0.4384 -0.3099
 8211TIP3    H148828   5.283   5.508   1.151  1.3959 -0.7693  0.2352
 8211TIP3    H248829   5.203   5.636   1.166 -0.9453 -2.1305 -0.1341
 8212TIP3   OH248830   4.664   1.288   2.272 -0.1548 -0.1896  0.4044
 8212TIP3    H148831   4.600   1.359   2.274  0.7647  1.0906 -4.0258
 8212TIP3    H248832   4.749   1.332   2.275  0.4720 -1.3772  0.5573
 8213TIP3   OH248833   2.911   0.319   2.763 -0.2759 -0.0055 -0.4938
 8213TIP3    H148834   2.922   0.251   2.696  1.0465 -3.0448  2.5132
 8213TIP3    H248835   2.997   0.360   2.769  0.1092 -0.8880  0.3755
 8214TIP3   OH248836   5.687   5.905   1.677  0.1656  0.2302  0.0751
 8214TIP3    H148837   5.639   5.946   1.605 -0.1499 -0.5472 -0.1659
 8214TIP3    H248838   5.620   5.877   1.739  0.5190  2.5181  1.6008
 8215TIP3   OH248839   1.485   2.561   3.201 -0.1415  0.2314 -0.5936
 8215TIP3    H148840   1.543   2.610   3.260  1.3478 -0.8114 -1.1333
 8215TIP3    H248841   1.535   2.555   3.119  0.2749 -3.1553 -0.2045
 8216TIP3   OH248842   6.016   3.086   1.249  0.0331  0.1891  0.2724
 8216TIP3    H148843   6.059   3.005   1.277  1.0079  1.2040  1.9013
 8216TIP3    H248844   5.981   3.067   1.162  1.4365 -1.5408  0.0401
 8217TIP3   OH248845   5.048   5.445   1.513 -0.2318 -0.5783 -0.2191
 8217TIP3    H148846   5.114   5.452   1.445  0.0573  0.3593  0.1528
 8217TIP3    H248847   5.069   5.363   1.558  2.2503  0.9014  1.5022
 8218TIP3   OH248848   2.961   4.367   0.973  0.1138 -0.0814 -0.0017
 8218TIP3    H148849   2.904   4.390   0.899  0.1648 -0.9543 -0.3173
 8218TIP3    H248850   2.914   4.401   1.050 -0.4269 -0.0477 -0.3391
 8219TIP3   OH248851   3.780   2.332   3.919  0.0457 -0.0750  0.4540
 8219TIP3    H148852   3.793   2.303   4.010  2.2811  0.2220  0.2922
 8219TIP3    H248853   3.754   2.423   3.926 -2.8537 -0.8240  0.8275
 8220TIP3   OH248854   4.343   6.124   4.157  0.0634  0.0036 -0.5141
 8220TIP3    H148855   4.433   6.096   4.143  0.4891  0.2282  1.4541
 8220TIP3    H248856   4.344   6.165   4.243 -2.0126 -0.3491 -0.2656
 8221TIP3   OH248857   2.530   1.129   2.691 -0.2164  0.2913 -0.0618
 8221TIP3    H148858   2.507   1.036   2.699 -0.1970  0.2489 -0.4579
 8221TIP3    H248859   2.479   1.172   2.760  0.2015 -0.0807  0.4842
 8222TIP3   OH248860   0.109   5.975   1.491  0.2371  0.8680  0.1958
 8222TIP3    H148861   0.122   5.883   1.468  1.4102  0.9960  0.2653
 8222TIP3    H248862   0.096   5.975   1.586 -1.2504  0.6525  0.0124
 8223TIP3   OH248863   1.979   0.650   2.248  0.0452 -0.1899  1.2246
 8223TIP3    H148864   1.897   0.614   2.215  0.6343 -0.1523 -0.3494
 8223TIP3    H248865   1.955   0.735   2.284 -0.3400  0.6826 -0.9593
 8224TIP3   OH248866   3.098   4.940   1.644 -0.2185 -0.1968  0.4571
 8224TIP3    H148867   3.005   4.961   1.650  0.3039  4.7327 -2.4727
 8224TIP3    H248868   3.138   4.985   1.719 -0.0420 -0.4346  0.5057
 8225TIP3   OH248869   1.792   2.427   2.784 -0.6421 -0.7381  0.1132
 8225TIP3    H148870   1.874   2.455   2.825 -0.3499 -0.3963 -0.6798
 8225TIP3    H248871   1.816   2.350   2.733 -0.1747  0.8840 -2.2984
 8226TIP3   OH248872   6.150   3.470   1.658  0.1861 -0.4122 -0.1386
 8226TIP3    H148873   6.098   3.390   1.650  1.9575 -1.5394 -0.9656
 8226TIP3    H248874   6.207   3.455   1.733  0.0869  0.3343  0.0888
 8227TIP3   OH248875   1.315   6.119   3.312  0.6252  0.0350  0.2602
 8227TIP3    H148876   1.367   6.040   3.303 -0.0419 -0.2513 -1.3349
 8227TIP3    H248877   1.228   6.095   3.283  0.1461  1.0861  0.7558
 8228TIP3   OH248878   5.906   3.795   1.867  0.4613  0.1174  0.6091
 8228TIP3    H148879   5.815   3.794   1.897  0.3536 -3.4894  0.6226
 8228TIP3    H248880   5.900   3.788   1.771  0.7291  0.6707  0.5510
 8229TIP3   OH248881   5.748   6.211   4.606 -0.3430  0.2893 -0.3991
 8229TIP3    H148882   5.801   6.137   4.635  1.2705  1.5061 -0.1542
 8229TIP3    H248883   5.658   6.179   4.612  0.1338 -0.8430  2.1408
 8230TIP3   OH248884   5.152   2.176   0.855 -0.3199 -0.3663  0.3324
 8230TIP3    H148885   5.154   2.081   0.845  0.1868 -0.4001  0.7173
 8230TIP3    H248886   5.059   2.199   0.851 -0.6820 -1.1567  2.7111
 8231TIP3   OH248887   5.299   3.450   0.493 -0.6984  0.0204  0.3692
 8231TIP3    H148888   5.256   3.536   0.496 -0.5017  0.1399 -0.2004
 8231TIP3    H248889   5.390   3.470   0.516 -0.4702  0.0889 -0.5629
 8232TIP3   OH248890   2.074   3.874   2.225 -0.0895 -0.2204  0.2351
 8232TIP3    H148891   1.999   3.898   2.171  0.0545  1.8929  0.8651
 8232TIP3    H248892   2.038   3.867   2.313 -0.3021 -3.5365  0.0223
 8233TIP3   OH248893   1.913   3.264   0.611  0.7107 -0.1507 -0.1609
 8233TIP3    H148894   1.976   3.252   0.541  0.1987 -0.8751 -0.5059
 8233TIP3    H248895   1.946   3.210   0.683  1.5202  1.0044  0.3652
 8234TIP3   OH248896   0.120   6.597   1.494 -0.6019 -0.6538 -0.2447
 8234TIP3    H148897   0.121   6.504   1.517  0.2300 -0.5888  0.0044
 8234TIP3    H248898   0.190   6.607   1.430 -0.1361 -0.0582  0.3359
 8235TIP3   OH248899   1.005   3.702   3.371 -0.0701 -0.8219  0.5283
 8235TIP3    H148900   1.034   3.650   3.297  0.9149 -0.2233  0.4685
 8235TIP3    H248901   1.032   3.652   3.448  0.4629 -0.6332  0.4705
 8236TIP3   OH248902   4.948   2.355   4.254  0.7696  0.5169  0.0414
 8236TIP3    H148903   4.934   2.363   4.160  0.9698 -0.1231 -0.0507
 8236TIP3    H248904   5.022   2.413   4.272  2.4509 -1.2871 -0.6647
 8237TIP3   OH248905   1.695   5.238   2.177  0.2533  0.5370  0.2391
 8237TIP3    H148906   1.764   5.244   2.243  0.4390  1.3339 -0.0198
 8237TIP3    H248907   1.676   5.144   2.171  1.6291  0.2494  0.0078
 8238TIP3   OH248908   5.500   6.609   3.184  0.4224 -0.9115 -0.6016
 8238TIP3    H148909   5.464   6.524   3.211 -1.5337 -0.6207 -2.0664
 8238TIP3    H248910   5.444   6.673   3.228 -0.5500 -0.4407 -2.4141
 8239TIP3   OH248911   0.296   6.426   1.769 -0.2374  0.1093 -0.1060
 8239TIP3    H148912   0.272   6.389   1.853  1.6956 -2.3240 -0.5250
 8239TIP3    H248913   0.236   6.385   1.706  0.3919 -0.5587 -0.2826
 8240TIP3   OH248914   0.977   5.649   3.154 -0.2711  0.3755 -0.3897
 8240TIP3    H148915   0.937   5.612   3.076 -2.3528 -1.6941  1.5400
 8240TIP3    H248916   0.904   5.686   3.204  1.0874  2.2956  0.3089
 8241TIP3   OH248917   0.201   1.343   3.002  0.9038 -0.4928  0.6361
 8241TIP3    H148918   0.231   1.423   2.957 -1.2278  0.1722  0.2698
 8241TIP3    H248919   0.196   1.277   2.933 -2.0127  0.4316 -0.1948
 8242TIP3   OH248920   1.315   1.024   1.040 -0.5813 -0.2391  0.0121
 8242TIP3    H148921   1.271   1.020   0.955 -1.7428  1.4014  0.4844
 8242TIP3    H248922   1.407   1.007   1.020 -0.7573  0.5455 -1.6501
 8243TIP3   OH248923   3.948   2.559   2.549 -0.8241  0.3950  0.5842
 8243TIP3    H148924   3.967   2.653   2.561  3.0740 -0.3486  1.7966
 8243TIP3    H248925   3.988   2.538   2.464  1.3094 -0.6987  1.7805
 8244TIP3   OH248926   0.775   5.868   1.735 -0.3544  0.6735 -0.0611
 8244TIP3    H148927   0.811   5.816   1.807  0.1299  0.2790 -0.5906
 8244TIP3    H248928   0.720   5.933   1.779 -0.0309  0.4635  0.6733
 8245TIP3   OH248929   2.188   4.853   0.922  0.1823  0.7039 -0.9465
 8245TIP3    H148930   2.129   4.780   0.899 -0.1176  0.9809 -1.0690
 8245TIP3    H248931   2.134   4.912   0.975  0.6094  0.5279 -0.3050
 8246TIP3   OH248932   5.061   1.623   2.904 -0.1780  0.0021  0.2067
 8246TIP3    H148933   5.112   1.650   2.981 -0.3647  0.8342  0.0510
 8246TIP3    H248934   5.023   1.539   2.930  0.6018 -0.2325  0.6300
 8247TIP3   OH248935   3.900   5.652   2.633  0.5430  0.4655 -0.3114
 8247TIP3    H148936   3.975   5.705   2.661  1.2803 -0.1475 -1.0887
 8247TIP3    H248937   3.827   5.686   2.685  1.7768 -0.4875  2.2232
 8248TIP3   OH248938   4.185   6.390   3.705 -0.4415 -0.5395 -0.6940
 8248TIP3    H148939   4.108   6.337   3.728 -0.5842 -0.1499 -0.2686
 8248TIP3    H248940   4.250   6.368   3.771 -0.4314 -0.3390 -0.6371
 8249TIP3   OH248941   2.385   0.593   1.946 -0.4607 -0.2185  0.0630
 8249TIP3    H148942   2.375   0.542   1.865 -0.3056 -1.1314  0.6088
 8249TIP3    H248943   2.478   0.586   1.967 -0.5032  0.0177  0.3358
 8250TIP3   OH248944   1.637   6.505   1.913 -0.7267 -0.4905 -0.1442
 8250TIP3    H148945   1.595   6.577   1.959  0.0911 -0.6155  0.8288
 8250TIP3    H248946   1.566   6.463   1.863 -1.2199  0.9390 -0.6890
 8251TIP3   OH248947   0.525   2.309   0.731 -0.7259 -0.0235 -0.1483
 8251TIP3    H148948   0.433   2.290   0.710 -1.3983  2.0199  0.6829
 8251TIP3    H248949   0.535   2.279   0.821 -1.2996  1.7608  0.5664
 8252TIP3   OH248950   5.128   4.583   2.403 -0.0325  0.0793  0.7918
 8252TIP3    H148951   5.045   4.592   2.449 -0.0032  1.2346  0.6516
 8252TIP3    H248952   5.193   4.618   2.465  0.2095  0.1735  0.4848
 8253TIP3   OH248953   3.957   0.984   1.773 -0.2567 -0.1970  0.2018
 8253TIP3    H148954   3.956   1.047   1.701 -1.7956 -0.1133  0.2490
 8253TIP3    H248955   3.895   0.916   1.746  1.5192 -1.8459  0.0629
 8254TIP3   OH248956   0.532   6.446   1.247 -0.2068  0.5477 -0.1645
 8254TIP3    H148957   0.476   6.425   1.322 -2.5092  0.2935 -1.8315
 8254TIP3    H248958   0.618   6.465   1.285 -1.2032  0.1620  2.4793
 8255TIP3   OH248959   3.631   2.041   0.757 -0.4267 -0.2178 -0.1296
 8255TIP3    H148960   3.540   2.023   0.781 -0.1682 -0.3237  0.8205
 8255TIP3    H248961   3.679   1.964   0.788  0.3089  0.8448  1.4936
 8256TIP3   OH248962   4.413   0.407   3.798  0.7304 -0.1892  0.3201
 8256TIP3    H148963   4.470   0.430   3.725  1.1643 -1.2512  0.3101
 8256TIP3    H248964   4.473   0.379   3.867  0.2371 -1.3310  0.3020
 8257TIP3   OH248965   1.278   5.068   0.605 -0.2344  0.3776 -0.6811
 8257TIP3    H148966   1.243   5.060   0.694  1.7269 -0.1393  0.1088
 8257TIP3    H248967   1.297   4.978   0.579 -0.7459  0.5346 -1.6174
 8258TIP3   OH248968   2.965   3.969   2.626 -0.2182 -0.2767  0.1691
 8258TIP3    H148969   2.933   3.905   2.690 -0.4770  1.5541  1.9555
 8258TIP3    H248970   2.921   3.945   2.545 -0.9407 -1.8678  0.9848
 8259TIP3   OH248971   1.377   3.565   2.261 -0.2571  0.8523  0.2433
 8259TIP3    H148972   1.375   3.593   2.169  0.5684 -0.7040 -0.2906
 8259TIP3    H248973   1.468   3.575   2.288 -0.6130  1.8827  1.1065
 8260TIP3   OH248974   5.607   4.167   0.746 -0.0856 -0.0002 -0.5051
 8260TIP3    H148975   5.525   4.124   0.724  0.3050 -0.1453 -1.7279
 8260TIP3    H248976   5.613   4.241   0.687  1.7726 -1.3549 -2.1641
 8261TIP3   OH248977   6.471   4.048   3.138  0.5882  0.0717 -0.4381
 8261TIP3    H148978   6.521   3.967   3.122 -1.0046 -1.5179  2.0414
 8261TIP3    H248979   6.535   4.118   3.124  3.1660 -1.7756  1.1797
 8262TIP3   OH248980   1.252   2.255   0.436  0.3422  0.6531  0.4273
 8262TIP3    H148981   1.294   2.298   0.510 -0.0478  2.6374 -0.4302
 8262TIP3    H248982   1.163   2.292   0.434 -0.3532 -0.9374  0.2089
 8263TIP3   OH248983   0.645   1.977   0.470 -0.3419  0.1179 -0.4869
 8263TIP3    H148984   0.682   1.973   0.558  0.5761 -0.7523 -0.8956
 8263TIP3    H248985   0.717   2.004   0.414 -1.3121  2.2569 -0.7881
 8264TIP3   OH248986   6.375   3.861   0.738 -0.3256 -0.7045 -0.4395
 8264TIP3    H148987   6.469   3.847   0.741 -0.2312 -0.6116 -1.9899
 8264TIP3    H248988   6.364   3.945   0.694 -1.1250  0.0018  1.0139
 8265TIP3   OH248989   2.121   1.262   2.866 -0.5019  0.4248 -0.1998
 8265TIP3    H148990   2.149   1.346   2.903  0.5025 -0.0445  0.1474
 8265TIP3    H248991   2.066   1.223   2.935 -0.5036  0.5520 -0.1286
 8266TIP3   OH248992   1.774   2.198   1.651  0.3408  0.0553 -0.4651
 8266TIP3    H148993   1.826   2.132   1.698 -1.7901 -1.5231 -0.2024
 8266TIP3    H248994   1.784   2.176   1.559  0.1246 -0.2420 -0.4161
 8267TIP3   OH248995   3.289   5.331   1.044  0.5953 -0.4218  0.1466
 8267TIP3    H148996   3.251   5.255   0.999  1.5471  0.1957 -1.8443
 8267TIP3    H248997   3.308   5.393   0.973  1.5947  0.8942  1.5102
 8268TIP3   OH248998   5.562   2.898   2.858  0.3636  0.3786 -0.1748
 8268TIP3    H148999   5.636   2.943   2.898 -0.6553 -1.1509  3.8366
 8268TIP3    H249000   5.532   2.959   2.790  1.9290  3.5243  1.7066
 8269TIP3   OH249001   2.343   5.365   1.378 -0.0338  0.4414 -0.1489
 8269TIP3    H149002   2.424   5.399   1.340  0.4812 -1.8214 -1.2646
 8269TIP3    H249003   2.359   5.364   1.472  1.2752  0.0318 -0.3481
 8270TIP3   OH249004   0.513   2.705   2.720  0.5586  0.3961  0.0979
 8270TIP3    H149005   0.420   2.684   2.726  0.1199  2.5138  1.7300
 8270TIP3    H249006   0.524   2.743   2.633 -0.2100  0.5999  0.0834
 8271TIP3   OH249007   0.934   3.379   3.735  0.4291 -0.0159 -0.5022
 8271TIP3    H149008   0.981   3.349   3.813  2.0731  0.0767 -1.4118
 8271TIP3    H249009   0.870   3.309   3.717 -1.1704  0.7152  1.8254
 8272TIP3   OH249010   1.038   6.601   0.813  0.4171 -0.3313 -0.6144
 8272TIP3    H149011   0.952   6.581   0.850  0.8738  1.0300  1.3835
 8272TIP3    H249012   1.029   6.691   0.781  0.8407 -0.5063 -1.2227
 8273TIP3   OH249013   0.482   3.781   1.441 -0.2530 -0.3759  0.3364
 8273TIP3    H149014   0.514   3.696   1.470 -0.1218 -0.4196  0.0611
 8273TIP3    H249015   0.550   3.843   1.467 -0.3463 -0.3531  0.5324
 8274TIP3   OH249016   6.317   5.604   2.731 -0.1380  0.2770  0.1815
 8274TIP3    H149017   6.263   5.669   2.687 -0.5107 -0.3261 -0.2751
 8274TIP3    H249018   6.407   5.628   2.708 -0.2467  0.9087  0.4150
 8275TIP3   OH249019   0.872   3.631   1.973 -0.0530  0.0334 -0.4827
 8275TIP3    H149020   0.818   3.700   2.012  0.4159 -0.1202  0.4816
 8275TIP3    H249021   0.896   3.575   2.047 -1.6226 -2.0409 -1.4450
 8276TIP3   OH249022   4.229   1.221   3.348  0.3248 -0.1739 -0.2533
 8276TIP3    H149023   4.156   1.160   3.336  0.9399 -1.2790  1.3137
 8276TIP3    H249024   4.301   1.183   3.298  0.8611 -1.0767  1.1360
 8277TIP3   OH249025   1.987   3.751   2.469 -0.0614 -0.1434 -0.8243
 8277TIP3    H149026   1.931   3.689   2.517  1.3717 -1.5025 -0.7990
 8277TIP3    H249027   2.071   3.705   2.462  1.0236  1.7834 -0.9329
 8278TIP3   OH249028   2.832   2.451   0.934 -0.1572 -0.2921  0.4790
 8278TIP3    H149029   2.899   2.401   0.888  1.9837  2.9215 -0.2057
 8278TIP3    H249030   2.878   2.490   1.009 -1.8001  0.3579  1.1968
 8279TIP3   OH249031   4.795   0.172   0.561  0.4450  0.1128 -0.7181
 8279TIP3    H149032   4.794   0.231   0.637  0.1335 -0.5177 -0.2203
 8279TIP3    H249033   4.871   0.200   0.510  1.8674 -0.7191  0.8471
 8280TIP3   OH249034   3.287   2.081   1.058 -0.9058 -0.3414 -1.1326
 8280TIP3    H149035   3.253   2.130   1.132  0.0556  0.0615 -0.9390
 8280TIP3    H249036   3.314   1.997   1.095 -0.1096 -0.0140 -0.9394
 8281TIP3   OH249037   6.452   1.065   1.968  0.3815 -0.3789  0.4132
 8281TIP3    H149038   6.511   1.116   1.912  1.9661 -0.8589  1.5835
 8281TIP3    H249039   6.448   0.979   1.927 -2.1479  0.4780 -1.4593
 8282TIP3   OH249040   4.557   1.875   1.087 -0.3446  0.7381  0.4398
 8282TIP3    H149041   4.598   1.887   1.173 -1.4092 -2.4849  1.5501
 8282TIP3    H249042   4.503   1.953   1.075  2.4231  2.8890  1.0404
 8283TIP3   OH249043   5.339   4.822   1.275 -0.2408  0.4110 -0.1422
 8283TIP3    H149044   5.400   4.780   1.335 -1.4464 -0.1928  0.7080
 8283TIP3    H249045   5.338   4.766   1.198  1.3092  1.1851 -0.7636
 8284TIP3   OH249046   6.144   5.048   0.404 -0.1911  0.0085 -0.0408
 8284TIP3    H149047   6.112   4.964   0.372 -0.3657  0.7663 -2.0172
 8284TIP3    H249048   6.070   5.086   0.451  0.1679 -1.2757  1.6503
 8285TIP3   OH249049   3.813   3.608   0.533 -0.0133 -0.3628  1.0447
 8285TIP3    H149050   3.891   3.554   0.517 -0.5417 -1.0087  0.6280
 8285TIP3    H249051   3.804   3.661   0.453 -0.9185 -1.4425  0.4053
 8286TIP3   OH249052   5.383   4.309   3.833 -0.1456  0.1177  0.5471
 8286TIP3    H149053   5.455   4.325   3.772 -2.1318 -0.7418 -2.2067
 8286TIP3    H249054   5.396   4.220   3.863 -0.7585 -0.5557 -1.0753
 8287TIP3   OH249055   4.695   0.981   3.966 -0.7725  0.4283 -0.1569
 8287TIP3    H149056   4.697   1.075   3.986  0.1853  0.6602 -1.2707
 8287TIP3    H249057   4.603   0.964   3.944 -0.5389  1.6746 -2.4347
 8288TIP3   OH249058   6.408   3.198   1.060 -0.0152 -0.4673 -0.4731
 8288TIP3    H149059   6.388   3.259   0.989  0.0155  1.4230  1.0631
 8288TIP3    H249060   6.359   3.119   1.038  0.2517 -0.0631 -2.7443
 8289TIP3   OH249061   5.706   0.315   2.283 -0.8025  0.2201 -0.0234
 8289TIP3    H149062   5.665   0.261   2.215  0.1145 -0.1331 -0.3153
 8289TIP3    H249063   5.661   0.291   2.364  0.1889 -1.6767  0.0086
 8290TIP3   OH249064   5.739   5.281   2.151 -0.2169  0.1707  0.2796
 8290TIP3    H149065   5.824   5.324   2.149  1.9774 -3.6682  0.7473
 8290TIP3    H249066   5.752   5.207   2.210 -3.7889 -0.8691 -0.0216
 8291TIP3   OH249067   3.344   0.434   3.177  0.1760  0.0811 -0.1784
 8291TIP3    H149068   3.305   0.521   3.185 -0.4493 -0.1195 -0.9278
 8291TIP3    H249069   3.351   0.402   3.267  2.1070  1.6213  0.2928
 8292TIP3   OH249070   0.743   5.738   0.697  0.6075  0.1726 -0.1280
 8292TIP3    H149071   0.709   5.786   0.622 -0.3258 -0.1850  0.0540
 8292TIP3    H249072   0.837   5.754   0.695  0.8579 -1.1982 -2.3701
 8293TIP3   OH249073   0.158   6.337   4.630 -0.0806  0.5725  0.4855
 8293TIP3    H149074   0.212   6.367   4.703 -0.4187  0.8806  0.6117
 8293TIP3    H249075   0.221   6.310   4.563  0.2584 -0.9725  1.3758
 8294TIP3   OH249076   3.482   4.931   2.263  0.3138  0.3287  0.5941
 8294TIP3    H149077   3.421   4.998   2.294 -0.1470  0.2146 -0.0588
 8294TIP3    H249078   3.519   4.894   2.344 -1.1074 -0.1776  1.0452
 8295TIP3   OH249079   0.752   2.416   0.618 -0.0196 -0.1283  0.3325
 8295TIP3    H149080   0.706   2.335   0.639  0.3830 -0.1095  1.3533
 8295TIP3    H249081   0.684   2.484   0.622  0.0946 -0.0645  2.0708
 8296TIP3   OH249082   4.078   0.396   4.237 -0.0028  0.2160  0.0802
 8296TIP3    H149083   4.171   0.401   4.215 -0.1361  1.3390 -0.3055
 8296TIP3    H249084   4.034   0.437   4.163 -1.0251 -2.5483 -0.9734
 8297TIP3   OH249085   0.861   5.592   2.899 -0.6696  0.1517  0.1132
 8297TIP3    H149086   0.795   5.524   2.891 -0.8053  0.3982 -1.0880
 8297TIP3    H249087   0.944   5.548   2.882 -0.4551 -0.2171  1.9029
 8298TIP3   OH249088   3.645   6.206   2.517 -0.5317 -0.0557 -0.7433
 8298TIP3    H149089   3.560   6.182   2.555 -1.0058 -0.7876 -2.1898
 8298TIP3    H249090   3.667   6.290   2.558 -2.1795  0.3727 -0.6721
 8299TIP3   OH249091   0.740   5.728   3.220  0.1452  0.2851 -0.0242
 8299TIP3    H149092   0.711   5.802   3.166 -1.6660 -0.1554  0.3139
 8299TIP3    H249093   0.743   5.763   3.309 -0.2102  0.0940  0.0631
 8300TIP3   OH249094   4.700   4.346   1.269 -0.4063  0.0234  0.3078
 8300TIP3    H149095   4.721   4.336   1.362 -0.6401  0.1175  0.3706
 8300TIP3    H249096   4.612   4.310   1.260  0.1332 -1.2166 -0.1318
 8301TIP3   OH249097   1.192   2.205   3.366  0.4996  0.0423 -0.1578
 8301TIP3    H149098   1.145   2.239   3.291  1.2685  0.2531 -0.5548
 8301TIP3    H249099   1.135   2.225   3.441 -0.6551 -0.9074 -0.7458
 8302TIP3   OH249100   4.986   3.985   1.712 -0.3017  0.0321  0.1612
 8302TIP3    H149101   4.906   3.978   1.763  0.0392 -1.2081  0.5731
 8302TIP3    H249102   4.958   4.016   1.626 -0.8844  2.1864  1.0726
 8303TIP3   OH249103   1.719   2.189   1.093  0.1957  0.0989 -0.1014
 8303TIP3    H149104   1.658   2.115   1.087  0.3975 -0.0325 -0.6518
 8303TIP3    H249105   1.679   2.248   1.156 -0.9677  0.4379 -1.1224
 8304TIP3   OH249106   5.054   5.748   1.125 -0.2546  0.2865 -0.4035
 8304TIP3    H149107   4.979   5.713   1.172 -0.4009 -0.6270 -1.2954
 8304TIP3    H249108   5.019   5.778   1.041  0.8672 -3.7709 -2.5606
 8305TIP3   OH249109   2.959   0.743   3.821  0.3354  0.3700 -0.3910
 8305TIP3    H149110   2.866   0.721   3.814 -0.2527  1.2179  3.0837
 8305TIP3    H249111   2.959   0.836   3.846  2.0100 -0.0114  1.1751
 8306TIP3   OH249112   4.311   1.511   2.820 -0.0368 -0.3170 -0.2931
 8306TIP3    H149113   4.383   1.468   2.865 -1.0958 -0.9109  0.9137
 8306TIP3    H249114   4.314   1.602   2.849 -0.2793 -0.5352  0.4389
 8307TIP3   OH249115   1.913   1.396   3.115  0.5147 -0.4315 -0.6577
 8307TIP3    H149116   1.965   1.410   3.194  1.5033  0.7670 -1.4888
 8307TIP3    H249117   1.973   1.412   3.043 -1.2700  2.5305 -1.6727
 8308TIP3   OH249118   2.683   5.415   2.065 -0.3434 -0.6348 -0.0569
 8308TIP3    H149119   2.736   5.407   1.985  0.2518 -0.7085  0.3398
 8308TIP3    H249120   2.746   5.435   2.134 -1.0494  1.4088  0.0750
 8309TIP3   OH249121   1.798   2.222   2.547  0.1161 -0.0039 -0.1864
 8309TIP3    H149122   1.803   2.260   2.459  1.4235 -0.0654 -0.1608
 8309TIP3    H249123   1.831   2.133   2.536  2.7330  0.7658  0.7769
 8310TIP3   OH249124   2.065   3.580   0.934 -0.4455 -0.1764  0.0994
 8310TIP3    H149125   2.130   3.593   1.002 -1.5975 -0.8641  1.3872
 8310TIP3    H249126   2.104   3.514   0.876  0.5197  0.3740  0.1023
 8311TIP3   OH249127   1.204   4.422   1.397 -0.3849  0.3138  0.2744
 8311TIP3    H149128   1.273   4.443   1.460 -1.1610  1.4431  0.7941
 8311TIP3    H249129   1.203   4.497   1.337 -0.1071 -0.4384 -0.6931
 8312TIP3   OH249130   0.178   1.546   2.582 -0.0605  0.1970  0.6781
 8312TIP3    H149131   0.264   1.568   2.618  0.0373  0.9829  0.0076
 8312TIP3    H249132   0.155   1.622   2.528  0.1967 -1.2759 -1.6145
 8313TIP3   OH249133   1.859   0.034   0.913 -0.1061 -0.2784  0.2183
 8313TIP3    H149134   1.778   0.070   0.877 -0.2632 -0.9488 -0.1229
 8313TIP3    H249135   1.840   0.020   1.006 -0.9172 -1.8161 -0.1355
 8314TIP3   OH249136   5.952   3.777   2.669  0.1105  0.8739 -0.1555
 8314TIP3    H149137   5.885   3.833   2.708  0.0783  1.4054 -0.9521
 8314TIP3    H249138   6.003   3.746   2.744  1.2805  3.4606  0.2314
 8315TIP3   OH249139   3.097   5.356   0.781  0.2376 -0.3885 -0.1936
 8315TIP3    H149140   3.022   5.374   0.725  1.5532  0.9198 -1.6386
 8315TIP3    H249141   3.122   5.442   0.816  0.5179 -0.9316  0.9749
 8316TIP3   OH249142   4.254   2.177   1.679  0.0737 -0.1149 -0.0730
 8316TIP3    H149143   4.175   2.226   1.656  0.8584 -0.0995 -3.3595
 8316TIP3    H249144   4.240   2.090   1.640  1.0532 -0.6040  0.6276
 8317TIP3   OH249145   4.384   2.074   1.011 -0.3876 -0.0357  0.0656
 8317TIP3    H149146   4.348   2.049   0.926 -2.1429 -0.3521  0.8604
 8317TIP3    H249147   4.323   2.139   1.045  0.6872  0.6321  0.7938
 8318TIP3   OH249148   3.931   0.391   4.501 -0.2778  0.3790  0.6959
 8318TIP3    H149149   3.967   0.432   4.422 -1.0859 -1.9860 -1.0069
 8318TIP3    H249150   3.988   0.315   4.516 -2.4774 -1.5900 -0.1717
 8319TIP3   OH249151   1.339   1.514   1.926 -0.5062  0.8223 -0.1491
 8319TIP3    H149152   1.430   1.515   1.955 -0.9127 -1.8226  1.6480
 8319TIP3    H249153   1.289   1.544   2.002 -1.2246  0.5829 -0.5137
 8320TIP3   OH249154   0.314   6.007   5.066  0.0027  0.4079  0.3384
 8320TIP3    H149155   0.228   6.005   5.107 -0.4178  3.0775 -0.2508
 8320TIP3    H249156   0.304   6.066   4.991  1.7657 -1.1243 -1.2090
 8321TIP3   OH249157   5.452   2.266   1.527  0.1114  0.1357 -0.4188
 8321TIP3    H149158   5.482   2.350   1.493  0.9676 -0.2223 -0.5685
 8321TIP3    H249159   5.485   2.264   1.617  1.8382 -0.8728 -1.0269
 8322TIP3   OH249160   6.372   4.139   0.694 -0.2654  0.2360 -0.5235
 8322TIP3    H149161   6.410   4.206   0.750 -0.2874 -0.1698 -0.0126
 8322TIP3    H249162   6.278   4.148   0.706 -0.3985  1.7348 -2.3652
 8323TIP3   OH249163   5.197   3.706   1.196 -0.1220 -0.1239 -0.7426
 8323TIP3    H149164   5.270   3.695   1.257  0.0182  2.1695 -0.4148
 8323TIP3    H249165   5.130   3.646   1.228  0.6238 -0.2808  0.5976
 8324TIP3   OH249166   6.066   0.711   0.589 -0.0713  0.6023 -0.0944
 8324TIP3    H149167   6.000   0.642   0.577 -0.5697  0.9860  0.3712
 8324TIP3    H249168   6.127   0.675   0.653  0.0349  0.3423 -0.3380
 8325TIP3   OH249169   2.918   0.260   1.358  0.2796 -0.6961 -0.2947
 8325TIP3    H149170   2.974   0.321   1.311  0.8941 -1.3234 -0.3784
 8325TIP3    H249171   2.973   0.225   1.428 -0.5447  0.0528  0.7833
 8326TIP3   OH249172   0.525   1.610   1.521 -0.4514  0.0759  0.5066
 8326TIP3    H149173   0.455   1.552   1.491 -1.1891  1.1400  0.1475
 8326TIP3    H249174   0.506   1.625   1.613  0.9499 -1.9416  1.1990
 8327TIP3   OH249175   4.079   1.340   3.054 -0.0895 -0.3601  0.2728
 8327TIP3    H149176   4.075   1.272   2.987 -0.1285 -0.7929  0.7060
 8327TIP3    H249177   4.171   1.368   3.053 -0.2402  0.1214 -0.4292
 8328TIP3   OH249178   3.299   2.035   3.111  0.0341  0.0300 -0.5353
 8328TIP3    H149179   3.381   2.077   3.135 -1.5725  4.4228 -1.6728
 8328TIP3    H249180   3.302   2.029   3.015 -0.5123 -0.9275 -0.5095
 8329TIP3   OH249181   2.286   5.855   1.631 -0.3624  0.3216  0.5214
 8329TIP3    H149182   2.198   5.821   1.616 -0.1346  0.5158 -1.6641
 8329TIP3    H249183   2.304   5.910   1.554  1.8084 -0.0333  0.7009
 8330TIP3   OH249184   0.958   4.486   2.068 -0.1942 -0.1619  0.0686
 8330TIP3    H149185   1.021   4.553   2.043  0.8097 -0.4948  1.5489
 8330TIP3    H249186   0.879   4.506   2.017  1.8387 -1.2321 -3.8765
 8331TIP3   OH249187   5.772   0.267   2.709  0.2848  0.6524  0.6382
 8331TIP3    H149188   5.700   0.244   2.650  0.9747  1.0713 -0.3999
 8331TIP3    H249189   5.777   0.362   2.705  0.4517  0.6723  1.2528
 8332TIP3   OH249190   2.250   2.651   2.062 -0.4682  0.1063 -0.3096
 8332TIP3    H149191   2.214   2.735   2.090  1.6814  1.0407 -0.2017
 8332TIP3    H249192   2.262   2.601   2.142  0.3537  0.5807 -0.1306
 8333TIP3   OH249193   5.259   5.652   2.288 -0.3894 -0.3258 -0.2511
 8333TIP3    H149194   5.233   5.672   2.198  0.0772 -0.6342 -0.4608
 8333TIP3    H249195   5.209   5.573   2.311 -2.1672  0.9474  0.5474
 8334TIP3   OH249196   0.468   4.824   3.402  0.0295 -0.0238  0.0251
 8334TIP3    H149197   0.389   4.772   3.418  0.1756 -0.3637 -0.3566
 8334TIP3    H249198   0.434   4.906   3.365 -0.0750 -0.7577 -1.6141
 8335TIP3   OH249199   3.128   5.568   3.421  0.2722  0.2944 -0.3241
 8335TIP3    H149200   3.049   5.617   3.399  0.4829  1.2534  0.9424
 8335TIP3    H249201   3.199   5.616   3.378  0.2663 -0.0583 -0.7319
 8336TIP3   OH249202   1.504   6.393  10.656  0.0460  1.0663  0.3412
 8336TIP3    H149203   1.528   6.301  10.645  1.0935  1.3589  0.0395
 8336TIP3    H249204   1.409   6.392  10.662  0.1095 -0.1856  1.7783
 8337TIP3   OH249205   1.290   4.668   0.782 -0.4014  0.1138 -0.3455
 8337TIP3    H149206   1.364   4.712   0.740  0.3493  0.1200  0.9199
 8337TIP3    H249207   1.286   4.582   0.741  0.1010  0.2358 -0.6532
 8338TIP3   OH249208   2.313   5.835   4.016 -0.0010  0.1644 -0.3721
 8338TIP3    H149209   2.394   5.784   4.021 -0.1286  0.0863  2.6129
 8338TIP3    H249210   2.342   5.922   3.988  1.0921  0.0821  0.4305
 8339TIP3   OH249211   3.110   3.512   2.208  0.0505 -0.3508  0.4630
 8339TIP3    H149212   3.062   3.594   2.207  0.5294 -0.0711 -0.5468
 8339TIP3    H249213   3.198   3.535   2.179 -0.0472 -1.3532 -0.6818
 8340TIP3   OH249214   4.721   5.741   3.429  0.3542  0.0326  0.0571
 8340TIP3    H149215   4.657   5.676   3.401  0.3785 -0.3017  0.7620
 8340TIP3    H249216   4.725   5.732   3.524  0.6154  0.8252  0.1333
 8341TIP3   OH249217   5.054   4.592   1.776 -0.8733  0.1127  0.0532
 8341TIP3    H149218   5.016   4.554   1.696  0.9046 -0.7196 -0.4478
 8341TIP3    H249219   5.130   4.641   1.745 -1.3292  1.4978  1.0548
 8342TIP3   OH249220   2.322   1.875   2.430 -0.1291 -0.3312  0.0685
 8342TIP3    H149221   2.255   1.814   2.398  0.8582 -0.5689 -1.6807
 8342TIP3    H249222   2.386   1.879   2.359  1.5651  0.1314  1.5529
 8343TIP3   OH249223   3.331   2.725   1.335  0.4574  0.2672 -0.0894
 8343TIP3    H149224   3.415   2.712   1.380  1.6906 -0.1779 -2.3214
 8343TIP3    H249225   3.278   2.650   1.360 -0.2707  1.7006  3.1972
 8344TIP3   OH249226   1.372   0.848   2.440 -0.4428  0.6205 -0.4948
 8344TIP3    H149227   1.458   0.887   2.453  0.1397 -0.0688 -2.0289
 8344TIP3    H249228   1.312   0.908   2.483  0.8737  0.5897  1.5108
 8345TIP3   OH249229   6.051   6.575   4.521  0.3233  0.0631  0.3168
 8345TIP3    H149230   6.138   6.611   4.541 -0.2734  3.6974 -2.5049
 8345TIP3    H249231   6.058   6.545   4.430 -0.6117 -2.7360  1.0732
 8346TIP3   OH249232   2.007   0.438   2.688  0.2927 -0.2028  0.2728
 8346TIP3    H149233   2.026   0.513   2.745 -0.2663 -0.1650  0.4133
 8346TIP3    H249234   1.973   0.477   2.608 -0.0106 -0.3035  0.3505
 8347TIP3   OH249235   1.752   6.463   4.311 -0.0377 -0.3998  0.8329
 8347TIP3    H149236   1.681   6.526   4.317  0.2133  0.2009 -1.3814
 8347TIP3    H249237   1.718   6.393   4.254 -0.2321 -2.2385  3.0504
 8348TIP3   OH249238   0.569   4.377  10.336  0.0259  0.2492  0.1774
 8348TIP3    H149239   0.583   4.375  10.242 -1.2026 -1.1008 -0.0318
 8348TIP3    H249240   0.656   4.367  10.374  0.2887 -5.2613 -0.9422
 8349TIP3   OH249241   1.065   5.661   1.559 -0.1173  0.1846 -0.3996
 8349TIP3    H149242   1.085   5.745   1.601 -0.4202  0.9365 -1.6758
 8349TIP3    H249243   0.977   5.674   1.521 -0.3433 -0.8601 -0.2645
 8350TIP3   OH249244   4.473   4.892   3.500  0.3971 -0.4358 -0.7051
 8350TIP3    H149245   4.431   4.920   3.582  1.5351 -1.2200  0.1803
 8350TIP3    H249246   4.407   4.839   3.456 -0.1102 -0.3013 -0.1147
 8351TIP3   OH249247   1.416   2.221   0.911 -0.1251 -0.4121 -0.2166
 8351TIP3    H149248   1.348   2.209   0.976  0.1740 -0.6657  0.0512
 8351TIP3    H249249   1.486   2.266   0.957 -1.3687  2.8888 -1.2877
 8352TIP3   OH249250   2.431   3.015   2.881 -0.1753 -0.5683  0.0464
 8352TIP3    H149251   2.414   3.108   2.900 -2.2720 -0.7200 -0.7886
 8352TIP3    H249252   2.504   3.017   2.819 -0.3511  0.5496 -0.1552
 8353TIP3   OH249253   2.545   1.420   3.281  0.0278 -0.4883 -0.3554
 8353TIP3    H149254   2.554   1.464   3.196  0.3188 -0.4829 -0.3195
 8353TIP3    H249255   2.456   1.443   3.309  0.3290  0.4536 -0.1258
 8354TIP3   OH249256   1.556   6.354   2.385  0.2501 -0.2593  0.3076
 8354TIP3    H149257   1.626   6.342   2.322  1.2271  1.0789  1.0921
 8354TIP3    H249258   1.561   6.277   2.442  2.2556  0.6102  1.4100
 8355TIP3   OH249259   4.034   3.294   1.920  0.0020 -0.6265 -0.1262
 8355TIP3    H149260   4.062   3.302   2.011 -1.7308 -2.3364  0.6431
 8355TIP3    H249261   4.008   3.382   1.894  3.1406  0.4415  0.0410
 8356TIP3   OH249262   3.351   5.148   1.312  0.1036  0.1475 -0.0945
 8356TIP3    H149263   3.264   5.137   1.274 -1.3250 -0.4907  3.0090
 8356TIP3    H249264   3.379   5.060   1.336  0.5120  0.5865  1.1049
 8357TIP3   OH249265   0.338   4.735   1.273  0.2590 -0.3437  0.4849
 8357TIP3    H149266   0.362   4.643   1.263  1.5321 -0.1663  1.6271
 8357TIP3    H249267   0.286   4.738   1.354  1.6662  0.1489  1.4107
 8358TIP3   OH249268   1.065   6.129   3.686  0.0524  0.3596 -0.0124
 8358TIP3    H149269   1.063   6.159   3.595  1.4035  0.4237 -0.0402
 8358TIP3    H249270   1.098   6.205   3.735 -0.2630  0.1880  0.4700
 8359TIP3   OH249271   0.749   5.199   2.505 -0.2636  0.0617 -0.1340
 8359TIP3    H149272   0.753   5.199   2.409 -1.0895 -1.9822 -0.2230
 8359TIP3    H249273   0.839   5.216   2.532 -0.0494  0.8385 -1.2669
 8360TIP3   OH249274   3.366   3.775   1.799  0.3747  0.0810 -0.4947
 8360TIP3    H149275   3.310   3.852   1.789  0.1906 -0.0314 -0.3366
 8360TIP3    H249276   3.370   3.736   1.711 -0.9291 -0.6909 -0.2389
 8361TIP3   OH249277   3.394   5.844   2.374 -0.4972  0.7214 -0.1019
 8361TIP3    H149278   3.338   5.831   2.451 -2.4233  2.1199 -1.1892
 8361TIP3    H249279   3.481   5.814   2.403 -1.1274  1.2297  2.6314
 8362TIP3   OH249280   1.145   4.656   3.258  0.0135  0.4546  0.2324
 8362TIP3    H149281   1.218   4.603   3.227 -0.1885  0.1801  0.2240
 8362TIP3    H249282   1.069   4.622   3.212 -0.1041  0.8161  0.1509
 8363TIP3   OH249283   4.337   2.877   3.852  0.2055 -0.7805 -0.5381
 8363TIP3    H149284   4.359   2.968   3.869 -0.8030 -0.5295 -0.4933
 8363TIP3    H249285   4.298   2.846   3.934 -2.6323 -0.2071 -1.5393
 8364TIP3   OH249286   4.832   5.910   0.502 -0.0258 -0.0234 -0.3612
 8364TIP3    H149287   4.903   5.964   0.467  0.4409 -0.1029  0.4383
 8364TIP3    H249288   4.761   5.972   0.521 -0.4472 -0.0304 -1.8068
 8365TIP3   OH249289   1.502   5.664   3.144  0.0375  0.0692 -0.1602
 8365TIP3    H149290   1.523   5.582   3.190  0.7521 -0.5468 -1.5422
 8365TIP3    H249291   1.429   5.700   3.194  1.5728  0.0971  2.2300
 8366TIP3   OH249292   5.175   2.819   0.637  0.1183  0.2593  0.6352
 8366TIP3    H149293   5.158   2.835   0.544 -0.4683  0.5705  0.7968
 8366TIP3    H249294   5.250   2.759   0.637 -0.9609 -1.1422 -0.0882
 8367TIP3   OH249295   2.089   1.147   1.904 -0.1628 -0.4340 -0.2068
 8367TIP3    H149296   2.094   1.054   1.929 -0.7695 -0.0936  1.3248
 8367TIP3    H249297   2.124   1.193   1.980 -0.6470  0.6317 -0.6169
 8368TIP3   OH249298   0.023   6.242   1.804  0.4569 -0.3545  0.2085
 8368TIP3    H149299  -0.027   6.253   1.723  0.4998 -0.1335  0.2131
 8368TIP3    H249300  -0.005   6.315   1.860 -0.6525 -1.2990  0.9499
 8369TIP3   OH249301   3.232   1.205   2.856 -0.2201  0.2497 -0.2422
 8369TIP3    H149302   3.237   1.197   2.761 -2.0028 -1.0705 -0.2836
 8369TIP3    H249303   3.313   1.165   2.888 -0.2879 -0.6639 -1.1713
 8370TIP3   OH249304   0.071   3.228   3.854  0.0789 -0.0244  0.7022
 8370TIP3    H149305   0.038   3.156   3.909 -1.5671  0.6557  0.6481
 8370TIP3    H249306   0.039   3.307   3.897  0.0059  0.5781 -0.4452
 8371TIP3   OH249307   0.688   6.459   3.250 -0.0365 -0.2214  0.0985
 8371TIP3    H149308   0.726   6.378   3.215 -0.1512 -0.3198  0.1978
 8371TIP3    H249309   0.594   6.440   3.255 -0.2351  0.3644 -1.0746
 8372TIP3   OH249310   0.087   3.718   2.166 -0.3945  0.0461 -0.7222
 8372TIP3    H149311   0.022   3.784   2.142  0.1717  1.7505  1.9092
 8372TIP3    H249312   0.166   3.744   2.119 -0.5297  0.5063 -0.6987
 8373TIP3   OH249313   6.453   0.233   2.373 -0.1037 -0.2535 -0.1097
 8373TIP3    H149314   6.499   0.186   2.304 -0.2991 -0.2083 -0.2703
 8373TIP3    H249315   6.377   0.271   2.330 -0.5170 -0.6737  0.2436
 8374TIP3   OH249316   6.065   0.010   0.800  0.1056  0.3257 -0.2488
 8374TIP3    H149317   6.071   0.078   0.733  0.8032  1.1155  0.5837
 8374TIP3    H249318   5.995   0.039   0.859 -0.7082 -0.5113 -0.7768
 8375TIP3   OH249319   3.879   4.359   1.733  0.4457 -0.0487  0.0558
 8375TIP3    H149320   3.934   4.281   1.744 -1.1885 -1.0006  2.6309
 8375TIP3    H249321   3.865   4.366   1.639  1.9765 -1.9038 -0.3731
 8376TIP3   OH249322   0.027   4.599   1.185  0.6978  0.1727 -0.2222
 8376TIP3    H149323   0.058   4.668   1.244  1.3443 -0.0676 -0.2808
 8376TIP3    H249324  -0.007   4.647   1.109  1.8380  0.4204 -0.6010
 8377TIP3   OH249325   3.984   0.475   1.155  0.0117 -0.2306  0.2105
 8377TIP3    H149326   4.070   0.515   1.165 -0.5038  0.5818  1.6582
 8377TIP3    H249327   3.931   0.542   1.111 -0.2991 -0.1189  0.7509
 8378TIP3   OH249328   1.571   4.057   2.141 -0.1693  0.2418  0.0707
 8378TIP3    H149329   1.527   4.038   2.058  1.4422  0.0594 -0.7656
 8378TIP3    H249330   1.589   3.970   2.178  0.0852  0.3060  0.0926
 8379TIP3   OH249331   5.614   3.944   3.208 -0.4054 -0.4126  0.0301
 8379TIP3    H149332   5.685   4.008   3.212 -0.6299 -0.1308 -0.3734
 8379TIP3    H249333   5.581   3.951   3.118 -1.3095 -0.1402  0.3757
 8380TIP3   OH249334   1.395   1.074   1.949  0.5681 -0.1997  0.0328
 8380TIP3    H149335   1.448   1.056   1.871 -0.4596  0.6251 -0.9063
 8380TIP3    H249336   1.315   1.022   1.936  0.7613 -0.7547  0.9924
 8381TIP3   OH249337   5.868   1.496   1.505  0.0825  0.1250  0.0443
 8381TIP3    H149338   5.960   1.481   1.480  0.0689 -1.2496  0.6981
 8381TIP3    H249339   5.826   1.411   1.489 -0.6380  0.1614  1.6213
 8382TIP3   OH249340   2.122   3.584   3.653 -0.3628  0.2063  0.0541
 8382TIP3    H149341   2.029   3.576   3.631 -0.0257  0.0498 -1.4877
 8382TIP3    H249342   2.148   3.497   3.683 -0.6773  0.2132  0.3511
 8383TIP3   OH249343   3.074   6.262   1.660  0.4636 -0.1350 -0.1990
 8383TIP3    H149344   3.093   6.336   1.718 -0.2470 -1.1769  1.4199
 8383TIP3    H249345   3.132   6.192   1.690 -0.4042 -0.9047 -0.2867
 8384TIP3   OH249346   4.780   0.670   2.580 -0.0779  0.3627  0.0474
 8384TIP3    H149347   4.795   0.761   2.602 -2.5709  0.8530  0.0137
 8384TIP3    H249348   4.685   0.657   2.591 -0.0391 -1.8093 -1.3872
 8385TIP3   OH249349   5.707   0.563   2.833  0.0258  0.0950 -0.0119
 8385TIP3    H149350   5.647   0.489   2.842  1.8802 -1.6324 -1.0663
 8385TIP3    H249351   5.731   0.585   2.923 -2.4617  1.1749  0.4793
 8386TIP3   OH249352   0.253   1.589   1.790 -0.0802 -0.3466  0.2787
 8386TIP3    H149353   0.298   1.507   1.809 -0.4413 -0.6179 -0.0114
 8386TIP3    H249354   0.166   1.562   1.759 -1.0786  0.1759  2.3815
 8387TIP3   OH249355   3.274   2.485   2.749 -0.4378  0.5468 -0.5829
 8387TIP3    H149356   3.194   2.507   2.700 -0.5152  0.1088 -0.6572
 8387TIP3    H249357   3.344   2.531   2.702 -0.4010 -0.4867 -1.5874
 8388TIP3   OH249358   4.978   3.902   0.454 -0.4815 -0.2484  0.1714
 8388TIP3    H149359   5.033   3.976   0.428 -0.3761  0.0088  1.0824
 8388TIP3    H249360   4.910   3.898   0.387 -0.0960  0.2378 -0.2630
 8389TIP3   OH249361   2.382   0.529   3.047 -0.2852 -0.6199  0.2266
 8389TIP3    H149362   2.336   0.480   3.115  1.3388 -0.4776  1.5113
 8389TIP3    H249363   2.362   0.621   3.066  0.3914 -0.5640  0.7205
 8390TIP3   OH249364   1.637   1.496   0.708  0.1451  0.3422 -0.0136
 8390TIP3    H149365   1.647   1.579   0.662 -2.1099 -0.1098 -1.5072
 8390TIP3    H249366   1.709   1.442   0.677  1.1752  1.4633  0.3800
 8391TIP3   OH249367   1.872   2.477   1.794  0.0604  0.6808  0.1116
 8391TIP3    H149368   1.803   2.539   1.772 -0.0127  0.5654  0.0151
 8391TIP3    H249369   1.864   2.407   1.729  1.4626  1.5628 -1.0810
 8392TIP3   OH249370   0.092   0.068   1.765  0.0400 -0.0449  0.4127
 8392TIP3    H149371   0.182   0.065   1.798  0.5031  0.4920 -0.7196
 8392TIP3    H249372   0.101   0.054   1.671 -1.1010 -0.3197  0.3354
 8393TIP3   OH249373   6.360   0.096   4.355  0.2896  0.1095  0.5348
 8393TIP3    H149374   6.353   0.068   4.446 -0.5762 -3.6982 -0.5248
 8393TIP3    H249375   6.410   0.026   4.313 -0.7645  0.9035 -2.2305
 8394TIP3   OH249376   1.332   4.246   1.798 -0.5560 -0.5639  0.6776
 8394TIP3    H149377   1.302   4.190   1.727  1.0682  1.2312 -1.5577
 8394TIP3    H249378   1.254   4.257   1.854 -1.4678 -3.2559  0.1033
 8395TIP3   OH249379   5.871   2.059   2.615  0.1246  0.0319  0.4318
 8395TIP3    H149380   5.815   2.063   2.693  0.3703  2.0577  0.5599
 8395TIP3    H249381   5.958   2.082   2.647  0.0616  1.7733 -0.5441
 8396TIP3   OH249382   0.810   1.148   0.647  0.1191 -0.3265 -0.3018
 8396TIP3    H149383   0.892   1.102   0.630  1.0250  1.3181 -0.5246
 8396TIP3    H249384   0.824   1.236   0.614 -0.8140  0.7536  1.9656
 8397TIP3   OH249385   3.670   2.703   2.745 -0.4017 -0.6858 -0.0003
 8397TIP3    H149386   3.641   2.659   2.825  1.6294 -0.6984  0.7985
 8397TIP3    H249387   3.681   2.795   2.770 -1.2435 -0.3780 -0.7085
 8398TIP3   OH249388   1.882   2.843   0.814  0.0434 -0.9016 -0.4172
 8398TIP3    H149389   1.876   2.751   0.791  1.1458 -1.3032  0.7651
 8398TIP3    H249390   1.891   2.844   0.910  2.7091  0.2312 -0.5723
 8399TIP3   OH249391   3.418   3.417   1.471 -0.1360 -0.0969  0.1196
 8399TIP3    H149392   3.489   3.444   1.528 -1.1311 -1.6712  2.2503
 8399TIP3    H249393   3.346   3.396   1.531 -1.6629 -0.6537 -1.8072
 8400TIP3   OH249394   4.943   2.332   3.704 -0.2461 -0.2391 -0.4929
 8400TIP3    H149395   4.849   2.326   3.688 -0.7520  1.7493  1.2574
 8400TIP3    H249396   4.979   2.372   3.626 -0.7843 -1.2533 -1.2873
 8401TIP3   OH249397   5.158   3.408   3.436  0.0010 -0.4683 -0.4917
 8401TIP3    H149398   5.179   3.334   3.379 -1.1250 -0.5449 -0.8301
 8401TIP3    H249399   5.243   3.447   3.457  0.4832 -0.8469 -1.6712
 8402TIP3   OH249400   5.261   6.078   3.782 -0.3699  0.4118  0.2926
 8402TIP3    H149401   5.201   6.051   3.712 -1.7321  1.0053  1.1845
 8402TIP3    H249402   5.290   6.166   3.756 -0.5166  0.4483  0.2522
 8403TIP3   OH249403   3.839   3.687   1.148  0.4093  0.0877  0.4418
 8403TIP3    H149404   3.877   3.767   1.113 -0.6511 -0.1705 -1.4484
 8403TIP3    H249405   3.906   3.651   1.205  1.1392  1.9859  0.8431
 8404TIP3   OH249406   1.390   3.333   2.054  0.0980 -0.0377 -0.3308
 8404TIP3    H149407   1.359   3.318   2.143  0.6050  2.4468  0.3324
 8404TIP3    H249408   1.334   3.403   2.020  1.0305  0.2541 -1.3234
 8405TIP3   OH249409   5.474   1.259   0.706 -0.1687  0.2741  0.4733
 8405TIP3    H149410   5.409   1.194   0.677 -0.0118 -0.5767  1.9632
 8405TIP3    H249411   5.558   1.221   0.682 -0.1532  0.9936 -0.6953
 8406TIP3   OH249412   0.430   0.421   2.734 -0.3926  0.1293  0.1411
 8406TIP3    H149413   0.520   0.401   2.709 -0.0798  1.8559 -0.2271
 8406TIP3    H249414   0.385   0.435   2.650 -0.8638 -0.1651  0.3424
 8407TIP3   OH249415   1.185   3.162   1.940 -1.0260  0.4358 -0.0494
 8407TIP3    H149416   1.278   3.162   1.960 -0.6024 -0.8852 -1.8329
 8407TIP3    H249417   1.152   3.241   1.983  0.9802  1.1821  0.2329
 8408TIP3   OH249418   1.591   3.629   0.855  0.1791  0.4569  0.2884
 8408TIP3    H149419   1.648   3.569   0.807  0.3690  0.5381  0.4109
 8408TIP3    H249420   1.634   3.639   0.940  0.1597  0.7881  0.2589
 8409TIP3   OH249421   0.731   3.225   3.558  0.0567  0.1709  0.0798
 8409TIP3    H149422   0.759   3.146   3.605  0.1609  0.1014 -0.0970
 8409TIP3    H249423   0.639   3.207   3.534 -0.0881  0.3294  0.5126
 8410TIP3   OH249424   5.446   1.653   2.976  0.0675 -0.0075 -0.4571
 8410TIP3    H149425   5.504   1.653   3.051 -0.1383  1.3062 -0.2703
 8410TIP3    H249426   5.359   1.634   3.012 -0.0166  0.5360 -0.3537
 8411TIP3   OH249427   2.948   3.319   0.926 -0.2901  0.2690 -0.2481
 8411TIP3    H149428   3.037   3.289   0.940 -0.0137  0.7065 -1.0399
 8411TIP3    H249429   2.957   3.407   0.888 -1.0211 -0.3527 -1.9528
 8412TIP3   OH249430   2.791   3.224   1.907 -0.3962  0.2278  0.0843
 8412TIP3    H149431   2.702   3.230   1.941 -1.0864  4.1607 -1.8825
 8412TIP3    H249432   2.847   3.238   1.984 -1.6734  2.0801  0.7275
 8413TIP3   OH249433   1.155   5.842   2.641  0.9699  0.3097  0.1102
 8413TIP3    H149434   1.162   5.938   2.645  0.1191  0.8303 -4.6714
 8413TIP3    H249435   1.076   5.821   2.690  0.1238  2.3410 -0.2896
 8414TIP3   OH249436   3.005   0.649   0.939  0.4331  0.2679 -0.1568
 8414TIP3    H149437   3.079   0.593   0.961 -0.3838  0.0170  2.2885
 8414TIP3    H249438   3.020   0.675   0.848  2.9504 -0.6040 -0.0612
 8415TIP3   OH249439   0.056   4.999   0.765 -0.1243 -0.1738  0.3131
 8415TIP3    H149440   0.122   5.053   0.720 -0.2694  0.4337  0.8252
 8415TIP3    H249441   0.076   4.910   0.737  1.0920 -0.0305  0.6700
 8416TIP3   OH249442   5.075   0.192   2.509  0.0694 -0.2955 -0.0714
 8416TIP3    H149443   5.008   0.139   2.467 -0.6941  0.2025  0.4956
 8416TIP3    H249444   5.064   0.176   2.602  0.2698  0.3288  0.0650
 8417TIP3   OH249445   0.115   4.275   1.140  0.3015 -0.1454 -0.1515
 8417TIP3    H149446   0.090   4.368   1.140  0.7730 -0.0124 -0.0041
 8417TIP3    H249447   0.047   4.231   1.191 -0.1645  0.0541 -0.6048
 8418TIP3   OH249448   2.945   3.077   2.586  0.7672  0.0863  0.5780
 8418TIP3    H149449   2.908   3.041   2.505  0.6016  1.6894 -0.0795
 8418TIP3    H249450   3.027   3.119   2.560  0.3456  1.2723  1.0969
 8419TIP3   OH249451   4.543   6.334   1.130  0.2943 -0.8265  0.3020
 8419TIP3    H149452   4.534   6.353   1.037 -0.4091 -0.9262  0.3423
 8419TIP3    H249453   4.571   6.416   1.170  0.0389 -0.6298  0.0780
 8420TIP3   OH249454   4.015   5.471   1.031 -0.2541  0.5648 -0.3645
 8420TIP3    H149455   4.069   5.430   1.099  0.3627  1.8719 -0.0147
 8420TIP3    H249456   3.976   5.546   1.075  1.6626  2.5863 -1.8653
 8421TIP3   OH249457   5.470   4.345   4.733 -0.1744  0.1461 -0.1958
 8421TIP3    H149458   5.493   4.409   4.666  0.1735 -1.0753 -1.2954
 8421TIP3    H249459   5.406   4.389   4.789  2.6308  2.7322  1.3018
 8422TIP3   OH249460   2.275   1.316   4.064 -0.0733  0.1645 -0.1896
 8422TIP3    H149461   2.366   1.297   4.040 -0.5456 -0.6028 -1.4425
 8422TIP3    H249462   2.275   1.313   4.160  1.0380 -0.7368 -0.1886
 8423TIP3   OH249463   2.961   4.421   0.667 -0.6396  0.2716 -0.6692
 8423TIP3    H149464   3.047   4.397   0.700 -0.9058 -0.7036 -0.6596
 8423TIP3    H249465   2.951   4.371   0.586 -1.6336 -0.4756 -0.1053
 8424TIP3   OH249466   5.889   4.909   2.780 -0.0531  0.3238  0.2836
 8424TIP3    H149467   5.884   4.905   2.685  0.2880 -1.2725  0.3154
 8424TIP3    H249468   5.802   4.883   2.809 -0.0257  0.3889  0.4258
 8425TIP3   OH249469   0.825   1.414   0.546 -0.0464  0.2377 -0.5733
 8425TIP3    H149470   0.732   1.426   0.526 -0.4934 -1.1363  0.5493
 8425TIP3    H249471   0.854   1.500   0.576 -0.8632  0.7655 -1.2446
 8426TIP3   OH249472   1.710   4.038   1.732 -0.0796  0.1317  0.4443
 8426TIP3    H149473   1.777   4.010   1.795  0.4183 -0.1414 -0.2026
 8426TIP3    H249474   1.629   4.002   1.767  0.0334  0.8016  1.4556
 8427TIP3   OH249475   2.224   5.282   3.635 -0.1980  0.9382  0.1737
 8427TIP3    H149476   2.182   5.242   3.711 -0.8304 -0.1609 -0.7311
 8427TIP3    H249477   2.154   5.331   3.592  0.0548  1.1859  0.0424
 8428TIP3   OH249478   1.484   6.110   0.740 -0.2764  0.0656 -0.0735
 8428TIP3    H149479   1.570   6.153   0.731  0.7122 -1.5272  1.1202
 8428TIP3    H249480   1.421   6.177   0.715  1.0612  2.8001  3.0540
 8429TIP3   OH249481   4.441   2.327   2.202 -0.3972  0.1551 -0.0186
 8429TIP3    H149482   4.438   2.246   2.151 -0.5990  0.1819 -0.0484
 8429TIP3    H249483   4.470   2.299   2.289  2.4260  0.4024 -0.7547
 8430TIP3   OH249484   1.625   5.818   1.017 -0.2069 -0.6258 -0.2394
 8430TIP3    H149485   1.656   5.778   1.099 -0.2339 -0.2634 -0.0489
 8430TIP3    H249486   1.622   5.912   1.036 -1.1226 -0.6254 -0.3572
 8431TIP3   OH249487   5.886   4.082   2.884 -0.0738 -0.4119  0.2691
 8431TIP3    H149488   5.970   4.040   2.904  0.1392 -0.1635 -0.0824
 8431TIP3    H249489   5.860   4.124   2.966  0.5768  0.2382  0.1557
 8432TIP3   OH249490   5.904   4.783   2.193  0.1564 -0.3837 -0.7940
 8432TIP3    H149491   5.850   4.704   2.206 -0.8821  0.5180  0.6925
 8432TIP3    H249492   5.992   4.749   2.180 -0.5251 -1.8615 -2.0890
 8433TIP3   OH249493   3.469   2.609   2.228 -0.2934 -0.5435  0.2495
 8433TIP3    H149494   3.500   2.527   2.190 -0.6889  0.0205 -1.4209
 8433TIP3    H249495   3.480   2.598   2.322  0.5478 -2.1340  0.0070
 8434TIP3   OH249496   0.637   2.444   2.523 -0.1724 -0.2812  0.0028
 8434TIP3    H149497   0.625   2.377   2.590  0.6226 -1.0966 -0.6463
 8434TIP3    H249498   0.701   2.505   2.561  0.5686 -0.9478 -0.1397
 8435TIP3   OH249499   0.883   2.880   2.514  0.1975  0.7008 -0.6078
 8435TIP3    H149500   0.862   2.912   2.601 -0.6262 -1.7813  0.2039
 8435TIP3    H249501   0.841   2.941   2.454 -2.0028  0.7089  0.8294
 8436TIP3   OH249502   5.443   2.149   2.157 -0.8802  0.4931  0.0230
 8436TIP3    H149503   5.389   2.092   2.212  0.2666  0.5408  1.2214
 8436TIP3    H249504   5.526   2.102   2.147 -0.5166  1.1971 -0.3608
 8437TIP3   OH249505   3.062   6.296   4.098 -0.1018 -0.6643 -0.3195
 8437TIP3    H149506   3.097   6.322   4.183 -0.6554 -2.2013  0.4175
 8437TIP3    H249507   2.977   6.341   4.093  0.3041  0.1119 -0.4634
 8438TIP3   OH249508   1.167   3.778   4.044  0.2765  0.2963  0.3522
 8438TIP3    H149509   1.238   3.786   4.107  0.4078 -0.6008  0.3222
 8438TIP3    H249510   1.148   3.685   4.039  0.6779  0.2602 -1.3677
 8439TIP3   OH249511   0.548   6.306   1.712  0.6851 -0.0520  0.1700
 8439TIP3    H149512   0.484   6.349   1.770  0.1883 -0.8231  0.2020
 8439TIP3    H249513   0.632   6.347   1.736  0.0310  2.0780 -0.9217
 8440TIP3   OH249514   1.038   3.043   2.284  0.2593 -0.5363 -0.6162
 8440TIP3    H149515   1.023   3.118   2.227  0.3685 -0.2037 -0.2079
 8440TIP3    H249516   1.004   3.069   2.369  1.0214 -0.6390 -0.2653
 8441TIP3   OH249517   3.300   5.831   2.946 -0.4598  0.0984 -0.1635
 8441TIP3    H149518   3.286   5.920   2.914 -0.2277 -0.1891 -1.0760
 8441TIP3    H249519   3.392   5.831   2.975  0.9713 -0.9569 -4.0726
 8442TIP3   OH249520   3.834   5.421   2.948  0.1059 -0.5369 -0.4267
 8442TIP3    H149521   3.787   5.497   2.913  0.3751 -0.4346 -0.5665
 8442TIP3    H249522   3.861   5.371   2.870  0.3388 -0.5278 -0.3537
 8443TIP3   OH249523   2.486   0.136   0.591 -0.4277 -0.5255 -0.0296
 8443TIP3    H149524   2.424   0.117   0.661 -0.0562  1.8286  1.0087
 8443TIP3    H249525   2.565   0.088   0.615  0.5926  2.2450  2.6827
 8444TIP3   OH249526   2.132   5.380   2.888  0.8319  0.2107 -0.1292
 8444TIP3    H149527   2.225   5.387   2.910  0.7453  1.0542  0.0020
 8444TIP3    H249528   2.128   5.401   2.795  0.7355  0.4822 -0.0636
 8445TIP3   OH249529   6.013   1.118   0.746 -0.5422 -0.5116  0.1574
 8445TIP3    H149530   6.090   1.122   0.802 -0.1912  0.1844 -0.3583
 8445TIP3    H249531   5.966   1.199   0.765  0.8387  0.9788 -2.2916
 8446TIP3   OH249532   0.819   4.725   2.721 -0.0394 -0.4627 -0.3249
 8446TIP3    H149533   0.729   4.757   2.727 -0.2271 -1.2696  2.3313
 8446TIP3    H249534   0.869   4.782   2.778  0.3720 -2.2667  1.2252
 8447TIP3   OH249535   2.062   0.748   1.228 -0.4866  0.1629 -0.0159
 8447TIP3    H149536   2.049   0.790   1.312 -1.5675 -1.5984  0.7527
 8447TIP3    H249537   2.084   0.819   1.168 -3.6900  2.0434  0.8649
 8448TIP3   OH249538   0.260   2.374   1.287  0.1937 -0.3341  0.6220
 8448TIP3    H149539   0.188   2.401   1.344  0.2848  0.6335  0.2809
 8448TIP3    H249540   0.330   2.436   1.305 -0.2605  0.9316 -1.5707
 8449TIP3   OH249541   3.215   5.811   2.631  0.1114  0.2008  0.4064
 8449TIP3    H149542   3.210   5.887   2.688 -0.8550  1.1675 -0.8858
 8449TIP3    H249543   3.159   5.833   2.556 -0.0715 -1.7170 -0.0934
 8450TIP3   OH249544   2.299   5.899   2.603  0.2921  0.2006 -0.4097
 8450TIP3    H149545   2.214   5.926   2.569 -0.3351 -0.1415  0.8013
 8450TIP3    H249546   2.354   5.977   2.597 -0.7918  1.1016  0.8671
 8451TIP3   OH249547   1.453   0.733   2.174  0.3352 -0.1715  0.2036
 8451TIP3    H149548   1.391   0.681   2.123 -0.6061  1.8595 -0.8422
 8451TIP3    H249549   1.399   0.798   2.218  1.6821  1.8218 -0.9350
 8452TIP3   OH249550   6.203   4.915   2.716 -0.5716  0.2887 -0.1539
 8452TIP3    H149551   6.241   4.990   2.762  0.2541 -0.0361 -0.2850
 8452TIP3    H249552   6.119   4.947   2.683 -1.3697  0.4198  1.8938
 8453TIP3   OH249553   4.521   4.642   1.770 -0.5582 -0.3454 -0.2970
 8453TIP3    H149554   4.568   4.566   1.804 -0.8633  0.1234  1.2640
 8453TIP3    H249555   4.450   4.657   1.832 -0.7106  0.9946 -0.7479
 8454TIP3   OH249556   2.794   6.309   2.664 -0.1856 -0.8374  0.1910
 8454TIP3    H149557   2.762   6.275   2.747 -1.0458 -1.1456 -0.2489
 8454TIP3    H249558   2.884   6.278   2.657 -0.2926 -1.2778  0.7468
 8455TIP3   OH249559   2.739   1.477   3.873 -0.5858 -0.4745  0.0766
 8455TIP3    H149560   2.666   1.500   3.931 -0.4094  0.9896 -0.2447
 8455TIP3    H249561   2.798   1.551   3.878 -0.4055 -0.4485 -1.7199
 8456TIP3   OH249562   2.409   2.159   1.537  0.0634  0.1748  0.6776
 8456TIP3    H149563   2.495   2.184   1.502  1.0443 -1.7943  1.5387
 8456TIP3    H249564   2.409   2.064   1.535 -2.8377  0.1160 -0.8978
 8457TIP3   OH249565   5.639   4.171   2.555  0.1809  0.3540 -0.2361
 8457TIP3    H149566   5.606   4.240   2.613 -2.0315  0.6713 -1.7500
 8457TIP3    H249567   5.613   4.200   2.468 -0.1698 -2.0364 -0.9785
 8458TIP3   OH249568   4.032   0.293   1.463 -0.3587  0.9881 -0.0316
 8458TIP3    H149569   3.968   0.266   1.398 -0.2908  1.3196 -0.2393
 8458TIP3    H249570   3.979   0.328   1.535 -0.4037  1.6013 -0.3584
 8459TIP3   OH249571   0.057   1.083   0.819 -0.3876 -0.5640 -0.0845
 8459TIP3    H149572   0.148   1.055   0.807 -0.3756 -0.4789 -0.1915
 8459TIP3    H249573   0.052   1.109   0.911  0.1733  1.1877 -0.5247
 8460TIP3   OH249574   2.371   5.857   0.849 -0.6811  0.2664 -0.7884
 8460TIP3    H149575   2.423   5.777   0.858  0.1259  0.8732  0.0327
 8460TIP3    H249576   2.363   5.891   0.938  0.9897  2.3554 -1.3626
 8461TIP3   OH249577   3.530   1.287   1.124 -0.2341 -0.2343 -0.6016
 8461TIP3    H149578   3.564   1.298   1.213  1.3164 -2.6254 -0.8163
 8461TIP3    H249579   3.435   1.284   1.135 -0.0459 -2.3791  1.3164
 8462TIP3   OH249580   5.402   5.945   2.007 -0.6308 -0.7665  0.0088
 8462TIP3    H149581   5.486   5.945   2.051 -1.1210 -0.0491  0.9743
 8462TIP3    H249582   5.410   5.876   1.940  1.6652  1.0665 -1.8075
 8463TIP3   OH249583   1.266   0.584   2.003  0.6190  0.0239  0.1790
 8463TIP3    H149584   1.291   0.603   1.913  1.4708 -0.4714  0.2979
 8463TIP3    H249585   1.178   0.622   2.013  0.5444  0.1287 -0.8336
 8464TIP3   OH249586   3.993   1.067   3.333  0.5954 -0.7093 -0.0216
 8464TIP3    H149587   3.924   1.006   3.357  1.3210 -1.3298  0.5332
 8464TIP3    H249588   3.948   1.136   3.284 -0.2836 -1.5288 -0.4045
 8465TIP3   OH249589   4.121   2.911   1.105 -0.5837  0.0653 -0.1466
 8465TIP3    H149590   4.061   2.883   1.035 -0.2008  0.5565 -0.6804
 8465TIP3    H249591   4.072   2.895   1.186 -2.1531  2.0722 -0.6177
 8466TIP3   OH249592   2.123   3.183   3.107  0.1421 -0.9883 -0.5129
 8466TIP3    H149593   2.131   3.213   3.197 -0.0718  0.5222 -0.9631
 8466TIP3    H249594   2.028   3.178   3.092  0.1758 -1.4272 -0.6112
 8467TIP3   OH249595   2.618   3.054   2.266 -0.0392  0.7697 -0.2346
 8467TIP3    H149596   2.599   3.011   2.183 -0.0085  0.9036 -0.3115
 8467TIP3    H249597   2.702   3.098   2.252 -0.3736  1.3897 -0.3696
 8468TIP3   OH249598   3.668   6.528   1.741  0.1308 -0.0389  0.1167
 8468TIP3    H149599   3.612   6.595   1.780  0.6660  0.9033 -0.7073
 8468TIP3    H249600   3.717   6.573   1.672  0.6292 -1.2361 -0.3499
 8469TIP3   OH249601   5.800   4.489   1.881  0.0586 -0.1171  0.2643
 8469TIP3    H149602   5.829   4.413   1.932  1.8037  0.7835  0.6715
 8469TIP3    H249603   5.712   4.508   1.916  0.5193 -0.5712  1.7665
 8470TIP3   OH249604   1.634   3.220   0.900  0.1997 -0.1589 -0.1662
 8470TIP3    H149605   1.598   3.176   0.978 -0.1499  0.9048  0.2966
 8470TIP3    H249606   1.721   3.247   0.927  1.4122 -2.6137 -1.2426
 8471TIP3   OH249607   0.240   2.595   2.696 -0.3664  0.1580 -0.2887
 8471TIP3    H149608   0.155   2.638   2.699 -0.4321  0.0124 -0.1028
 8471TIP3    H249609   0.223   2.504   2.719  0.2447  0.7150  2.7543
 8472TIP3   OH249610   5.662   3.938   1.993  0.0693  0.7213 -0.1249
 8472TIP3    H149611   5.605   3.865   2.017  0.4802  0.2473 -0.5415
 8472TIP3    H249612   5.606   4.015   1.995  0.4889  1.1620  4.5037
 8473TIP3   OH249613   6.012   3.639   0.906 -0.0710  0.2554 -0.1790
 8473TIP3    H149614   6.097   3.644   0.863 -0.1830  0.5283 -0.3680
 8473TIP3    H249615   6.032   3.612   0.996  0.2634  0.9241 -0.0500
 8474TIP3   OH249616   2.500   1.373   0.820  0.0640 -0.4090  0.4021
 8474TIP3    H149617   2.440   1.304   0.850  0.7651 -1.0323  0.4085
 8474TIP3    H249618   2.468   1.452   0.862 -1.5491 -0.4674 -0.6344
 8475TIP3   OH249619   4.618   6.600   2.835  0.2524  0.1054 -0.0315
 8475TIP3    H149620   4.537   6.620   2.881 -0.5550 -1.1087 -0.8649
 8475TIP3    H249621   4.660   6.533   2.889 -0.1046 -0.4339 -0.4066
 8476TIP3   OH249622   0.445   6.559   3.934  0.1569  0.3548 -0.3155
 8476TIP3    H149623   0.531   6.592   3.908  0.4440  1.2986  1.6608
 8476TIP3    H249624   0.396   6.553   3.852  1.5236  1.5166 -1.2608
 8477TIP3   OH249625   0.908   1.462   1.932 -0.5279 -0.3957 -0.4082
 8477TIP3    H149626   0.972   1.504   1.989 -0.4572 -2.3903  1.1020
 8477TIP3    H249627   0.853   1.534   1.901  0.3532  0.9516  0.9807
 8478TIP3   OH249628   0.442   4.373   2.361 -0.0179 -0.4365  0.9571
 8478TIP3    H149629   0.443   4.393   2.454 -0.2838 -2.1693  1.3625
 8478TIP3    H249630   0.490   4.291   2.354  0.7247  0.0900 -0.5547
 8479TIP3   OH249631   0.885   4.464   3.368  0.3005 -0.0017  0.1253
 8479TIP3    H149632   0.878   4.369   3.357 -0.9021  0.1072 -0.1879
 8479TIP3    H249633   0.802   4.498   3.335  0.4789  1.1159  0.7808
 8480TIP3   OH249634   4.673   5.912   2.735 -0.1901 -0.0705 -0.1656
 8480TIP3    H149635   4.746   5.919   2.672  1.5184 -0.2217  1.6930
 8480TIP3    H249636   4.612   5.980   2.707  1.1235  0.7429 -1.2249
 8481TIP3   OH249637   4.590   4.052   2.676 -0.0219  0.3110 -0.6992
 8481TIP3    H149638   4.647   4.040   2.752 -0.3161  3.0100  0.0496
 8481TIP3    H249639   4.590   3.967   2.632  1.4140 -0.8848  1.4417
 8482TIP3   OH249640   0.356   2.705   4.376  0.4265  0.0076 -0.0817
 8482TIP3    H149641   0.342   2.799   4.379  1.1133  0.0905  1.2404
 8482TIP3    H249642   0.403   2.690   4.293 -1.0442  0.6002 -1.0508
 8483TIP3   OH249643   4.543   6.377   1.874 -0.4683  0.5913 -0.1543
 8483TIP3    H149644   4.502   6.303   1.830 -1.0495  1.5634 -1.3177
 8483TIP3    H249645   4.568   6.344   1.960 -1.4547 -0.7172 -0.3491
 8484TIP3   OH249646   0.382   2.014   0.527 -0.6317 -0.0422 -0.3626
 8484TIP3    H149647   0.342   1.933   0.497 -1.9567  0.2344  0.5648
 8484TIP3    H249648   0.472   2.009   0.496 -1.2507 -0.8770 -2.1948
 8485TIP3   OH249649   1.775   6.564   1.159 -0.2138  0.5979  0.0451
 8485TIP3    H149650   1.693   6.607   1.182 -0.3239  0.5603 -0.2819
 8485TIP3    H249651   1.817   6.547   1.244 -1.9643 -2.2255  0.4823
 8486TIP3   OH249652   1.080   5.433   2.852 -0.3066  0.1251  0.1077
 8486TIP3    H149653   1.145   5.501   2.837 -1.0351  0.6250 -0.9104
 8486TIP3    H249654   1.103   5.396   2.937  1.2104  0.3838 -0.1652
 8487TIP3   OH249655   3.720   1.762   1.133 -0.0409  0.4039  0.0008
 8487TIP3    H149656   3.658   1.763   1.207 -0.4129  0.1073 -0.3052
 8487TIP3    H249657   3.722   1.670   1.105 -0.5156  0.6504 -0.8721
 8488TIP3   OH249658   3.911   2.152   2.676 -0.0769  0.1873  0.0569
 8488TIP3    H149659   3.866   2.073   2.708  0.7741 -1.0297 -1.5608
 8488TIP3    H249660   3.842   2.217   2.666 -0.9684 -0.6593  0.5339
 8489TIP3   OH249661   2.750   4.906   2.852 -0.2339  0.1936  0.3176
 8489TIP3    H149662   2.838   4.943   2.840 -0.9202  2.1712  0.8405
 8489TIP3    H249663   2.709   4.914   2.766  0.4197 -1.7979 -0.2271
 8490TIP3   OH249664   3.697   4.947   1.908 -0.5765  0.6129  0.2509
 8490TIP3    H149665   3.787   4.972   1.888 -0.5107  0.5606  0.4716
 8490TIP3    H249666   3.688   4.964   2.002  0.1777 -2.1816  0.9448
 8491TIP3   OH249667   0.743   6.072   2.708  0.5604 -0.2972  0.3934
 8491TIP3    H149668   0.814   6.041   2.652 -0.7758 -0.2555 -1.4007
 8491TIP3    H249669   0.763   6.165   2.721  0.2488  0.0186 -1.1197
 8492TIP3   OH249670   3.391   2.995   0.863  0.2712  0.1181 -0.0526
 8492TIP3    H149671   3.476   2.953   0.857  0.8901  1.2613  0.3430
 8492TIP3    H249672   3.409   3.089   0.852 -0.7139  0.5460  1.5792
 8493TIP3   OH249673   4.224   5.880   4.052  0.3271 -0.1134  0.3108
 8493TIP3    H149674   4.144   5.925   4.078  0.1619 -0.8012  1.0293
 8493TIP3    H249675   4.293   5.947   4.056 -0.4316  0.8900 -1.8102
 8494TIP3   OH249676   5.617   4.921   1.438  0.3747 -0.2815 -0.3231
 8494TIP3    H149677   5.596   4.852   1.375 -1.7397  0.4489 -0.5156
 8494TIP3    H249678   5.677   4.881   1.500  0.7398 -1.6888 -1.5486
 8495TIP3   OH249679   4.176   0.906   3.436  0.2399 -0.1873  0.3275
 8495TIP3    H149680   4.135   0.828   3.399 -1.1920  0.7664 -0.1795
 8495TIP3    H249681   4.104   0.968   3.447  1.1228  0.6165  1.9496
 8496TIP3   OH249682   5.782   0.922   2.412 -0.4081  0.6434  0.2688
 8496TIP3    H149683   5.840   0.923   2.487 -0.5608  1.1296  0.3812
 8496TIP3    H249684   5.721   0.850   2.429 -0.0106  0.3082  0.2766
 8497TIP3   OH249685   6.406   0.209   3.328 -0.0581 -0.4135 -0.5774
 8497TIP3    H149686   6.467   0.190   3.399 -1.4296 -0.1213  0.7192
 8497TIP3    H249687   6.406   0.305   3.321  0.4883 -0.4609 -1.3728
 8498TIP3   OH249688   3.446   6.575   2.446  0.3849 -0.3762 -0.6578
 8498TIP3    H149689   3.455   6.494   2.395 -0.8829  0.2899 -2.0116
 8498TIP3    H249690   3.535   6.610   2.450  0.6899 -1.0134 -1.4722
 8499TIP3   OH249691   3.292   4.655   1.000 -0.1573  0.3074  0.3863
 8499TIP3    H149692   3.201   4.662   1.029  0.0937 -0.6289  1.4293
 8499TIP3    H249693   3.332   4.591   1.058  1.1710  0.6671 -0.0844
 8500TIP3   OH249694   2.103   1.429   1.102 -0.3062  0.0028 -0.7740
 8500TIP3    H149695   2.014   1.459   1.084 -0.5155 -1.0334 -1.5554
 8500TIP3    H249696   2.125   1.468   1.186 -1.2692  0.7613 -0.8534
 8501TIP3   OH249697   6.573   2.730   2.673  0.3125  0.0984  0.3002
 8501TIP3    H149698   6.551   2.714   2.581 -3.1380 -1.1441  1.1773
 8501TIP3    H249699   6.518   2.804   2.699  0.8712  0.1203  1.5028
 8502TIP3   OH249700   4.995   4.049   2.868 -0.4453 -0.1061  0.0819
 8502TIP3    H149701   4.919   4.017   2.820 -0.9490  1.4596 -0.2342
 8502TIP3    H249702   5.027   4.123   2.816 -0.2281  0.8340  1.4787
 8503TIP3   OH249703   0.690   5.958   2.131  0.2013  0.2765 -0.5623
 8503TIP3    H149704   0.761   5.895   2.119  1.5057  1.6150 -0.2562
 8503TIP3    H249705   0.683   6.003   2.046 -0.9537 -0.4923 -0.8874
 8504TIP3   OH249706   2.977   2.687   2.079  0.2788  0.1562 -0.0885
 8504TIP3    H149707   2.935   2.628   2.141  0.5593 -0.8625 -0.8475
 8504TIP3    H249708   3.069   2.660   2.078  0.4289  0.6584 -0.3893
 8505TIP3   OH249709   6.384   0.844   1.089 -0.2092 -0.0352  0.1801
 8505TIP3    H149710   6.391   0.931   1.129 -0.0294 -0.6391  1.5147
 8505TIP3    H249711   6.318   0.799   1.141 -0.0279 -0.8341 -0.2592
 8506TIP3   OH249712   3.324   2.800   2.123  0.3325  1.0708 -0.3541
 8506TIP3    H149713   3.358   2.732   2.182 -0.5148  1.5586  0.7265
 8506TIP3    H249714   3.363   2.779   2.038  0.0792 -0.7881 -0.0636
 8507TIP3   OH249715   2.318   3.994   2.845  0.5759 -0.4368 -0.0631
 8507TIP3    H149716   2.339   4.082   2.874 -1.1164  0.6808 -2.0013
 8507TIP3    H249717   2.228   3.980   2.873  0.6164 -1.3000 -0.3364
 8508TIP3   OH249718   4.642   2.067   3.148 -0.0659  0.0821 -0.0491
 8508TIP3    H149719   4.729   2.102   3.132 -0.9235  2.5072  0.1530
 8508TIP3    H249720   4.636   2.059   3.244 -0.0922  0.0068 -0.0570
 8509TIP3   OH249721   0.236   0.220   2.875 -0.5716 -0.1157 -0.0923
 8509TIP3    H149722   0.192   0.285   2.821  2.0623  0.6367 -1.5111
 8509TIP3    H249723   0.220   0.248   2.965 -1.2957  1.2245 -0.6215
 8510TIP3   OH249724   0.785   3.395   2.344  0.1443 -0.2488 -0.2436
 8510TIP3    H149725   0.850   3.452   2.303  1.1184 -0.9562  0.2703
 8510TIP3    H249726   0.837   3.325   2.384 -0.7896  0.1009  1.6920
 8511TIP3   OH249727   4.883   6.507   3.831  0.5284  0.4790  0.4400
 8511TIP3    H149728   4.899   6.600   3.842 -1.0633  0.6544  1.6850
 8511TIP3    H249729   4.829   6.501   3.752  0.1857  0.6717  0.6583
 8512TIP3   OH249730   3.181   6.405   1.285  1.0233  0.6281  0.3748
 8512TIP3    H149731   3.165   6.361   1.202  0.2594  1.5346  0.0157
 8512TIP3    H249732   3.220   6.338   1.341  1.8200  0.0854 -0.8030
 8513TIP3   OH249733   0.218   0.524   2.546  0.5100  0.0224 -0.5596
 8513TIP3    H149734   0.154   0.520   2.617  1.7827 -1.6688  0.5801
 8513TIP3    H249735   0.185   0.462   2.481  0.7835 -0.5806 -0.1337
 8514TIP3   OH249736   0.025   5.140   1.638 -0.1495 -0.0807 -0.3956
 8514TIP3    H149737  -0.050   5.197   1.624 -1.7942 -2.0682 -0.0845
 8514TIP3    H249738  -0.012   5.057   1.669  2.1845 -1.0821 -0.0110
 8515TIP3   OH249739   6.196   4.128   1.703 -0.8286 -0.5915  0.2324
 8515TIP3    H149740   6.202   4.032   1.698 -0.4627 -0.5518 -0.0548
 8515TIP3    H249741   6.279   4.159   1.667 -1.7592 -0.1115 -1.6077
 8516TIP3   OH249742   3.256   1.512   3.477 -0.0063 -0.2176  0.0136
 8516TIP3    H149743   3.308   1.535   3.553 -1.9680 -0.5910  1.5579
 8516TIP3    H249744   3.264   1.587   3.418  0.2967  0.7835  1.2984
 8517TIP3   OH249745   5.901   0.943   0.585 -0.4180  0.5465  0.0694
 8517TIP3    H149746   5.967   0.882   0.550  0.3919  0.5736  1.4760
 8517TIP3    H249747   5.948   0.993   0.651 -0.9944  2.9111 -1.2014
 8518TIP3   OH249748   1.816   1.708   1.177  0.5271 -0.4147  0.9100
 8518TIP3    H149749   1.871   1.666   1.244 -0.7891 -3.5615  0.2230
 8518TIP3    H249750   1.726   1.693   1.206 -0.0591 -1.0880 -1.0473
 8519TIP3   OH249751   3.189   2.494   1.421 -0.3445 -0.5627  0.1740
 8519TIP3    H149752   3.117   2.471   1.480 -0.6079 -0.3984 -0.0802
 8519TIP3    H249753   3.268   2.482   1.474 -0.4797 -1.8761  0.1142
 8520TIP3   OH249754   2.387   0.772   3.217 -0.0984  0.3215 -0.4221
 8520TIP3    H149755   2.481   0.760   3.203  0.0815 -1.5627  1.6938
 8520TIP3    H249756   2.378   0.782   3.312 -2.1806 -2.3385 -0.1912
 8521TIP3   OH249757   4.342   6.180   2.037 -0.2098  0.0538 -0.2028
 8521TIP3    H149758   4.313   6.227   1.959 -2.3768  1.4451  1.3117
 8521TIP3    H249759   4.424   6.223   2.062  0.4065 -0.2849 -1.5743
 8522TIP3   OH249760   6.356   2.959   3.426  0.1989  0.0432  0.3224
 8522TIP3    H149761   6.336   2.952   3.519 -1.4524  0.5095  0.0348
 8522TIP3    H249762   6.271   2.964   3.383  0.9059 -0.6818 -1.2700
 8523TIP3   OH249763   1.698   1.004   1.475 -0.2107  0.2732 -0.1283
 8523TIP3    H149764   1.750   1.026   1.398 -1.0342 -0.0930 -0.8040
 8523TIP3    H249765   1.629   1.070   1.478 -0.0210  0.4515  0.4611
 8524TIP3   OH249766   5.613   4.696   0.581  0.1846  0.3566  0.1338
 8524TIP3    H149767   5.538   4.752   0.600  1.2905  1.9649 -0.0415
 8524TIP3    H249768   5.682   4.726   0.641  1.8340  1.4829 -2.1603
 8525TIP3   OH249769   2.008   4.950   1.096  0.5986  0.0426  0.1323
 8525TIP3    H149770   1.961   5.033   1.098 -2.9241 -1.7627 -0.0163
 8525TIP3    H249771   2.021   4.927   1.188 -2.1010 -1.0269  0.3208
 8526TIP3   OH249772   0.018   0.419   0.810 -0.9452 -0.0258  0.2673
 8526TIP3    H149773  -0.038   0.495   0.819 -0.5111  0.3582 -0.2335
 8526TIP3    H249774   0.091   0.436   0.871 -0.7316  0.0706 -0.0133
 8527TIP3   OH249775   3.183   2.446   4.185  0.4415 -0.2159  0.0983
 8527TIP3    H149776   3.180   2.488   4.099 -0.1550  0.1113  0.2747
 8527TIP3    H249777   3.277   2.439   4.204  0.5676  0.3114 -0.2903
 8528TIP3   OH249778   5.282   4.165   2.764  0.0524 -0.3716 -0.5407
 8528TIP3    H149779   5.246   4.173   2.676 -1.6585  1.0534  0.2385
 8528TIP3    H249780   5.263   4.249   2.806  0.1988 -1.2519  1.4054
 8529TIP3   OH249781   6.532   2.064   0.947  0.5731 -0.7386 -0.1879
 8529TIP3    H149782   6.624   2.092   0.942  0.0843  0.9173 -0.2714
 8529TIP3    H249783   6.485   2.140   0.979 -0.9148 -1.2776 -1.0011
 8530TIP3   OH249784   2.522   0.601   1.179  0.1708  1.0028 -0.2380
 8530TIP3    H149785   2.546   0.573   1.090 -1.3391 -0.0459 -0.3405
 8530TIP3    H249786   2.443   0.654   1.167  0.2067  1.2145  0.4397
 8531TIP3   OH249787   5.438   5.977   1.216  0.4386 -0.1344 -0.0386
 8531TIP3    H149788   5.357   6.022   1.191  1.0015  0.6634 -0.4786
 8531TIP3    H249789   5.462   5.928   1.137  1.1223  0.7491 -0.3922
 8532TIP3   OH249790   6.041   6.301   2.635  0.3141  0.1033  0.6425
 8532TIP3    H149791   6.016   6.209   2.629  0.4035  0.1832 -2.6821
 8532TIP3    H249792   6.134   6.299   2.656  0.0124 -0.4816  2.0381
 8533TIP3   OH249793   2.198   5.937   1.119 -0.5049  0.5583 -0.0838
 8533TIP3    H149794   2.169   5.863   1.066 -1.7795  0.2244  1.0381
 8533TIP3    H249795   2.130   6.004   1.104  1.1938  1.9934 -1.9802
 8534TIP3   OH249796   5.516   4.182   1.977  0.1336 -0.4203 -0.3454
 8534TIP3    H149797   5.525   4.194   1.883 -1.5007  0.2867 -0.4349
 8534TIP3    H249798   5.472   4.261   2.008  3.5626  0.9759  1.5748
 8535TIP3   OH249799   0.927   2.778   2.823 -0.2044 -0.0633  0.2156
 8535TIP3    H149800   0.971   2.794   2.906  1.1038  1.8059 -0.7661
 8535TIP3    H249801   0.941   2.684   2.807 -1.2068 -0.6502  2.4410
 8536TIP3   OH249802   4.455   4.982   2.371 -0.3052  0.1087 -0.2470
 8536TIP3    H149803   4.498   4.953   2.291  1.1107  1.0506  0.1391
 8536TIP3    H249804   4.433   5.074   2.355  1.4361  0.7863  0.9773
 8537TIP3   OH249805   0.722   0.841   1.178  0.6749  0.6993 -0.5643
 8537TIP3    H149806   0.809   0.839   1.137  1.1170  2.0903  0.2411
 8537TIP3    H249807   0.739   0.835   1.272 -0.1877 -0.1646 -0.4447
 8538TIP3   OH249808   4.754   5.285   1.271 -0.2550  0.3753 -0.0513
 8538TIP3    H149809   4.836   5.235   1.272 -1.7652 -2.2127  0.2215
 8538TIP3    H249810   4.739   5.304   1.179  0.3099  0.3451 -0.1574
 8539TIP3   OH249811   5.404   1.981   2.977  0.3758 -0.5035  0.4425
 8539TIP3    H149812   5.349   2.004   2.902  0.2943  1.7041  1.1159
 8539TIP3    H249813   5.343   1.943   3.041 -0.1844  0.7506  0.6839
 8540TIP3   OH249814   5.746   5.444   2.676 -0.2734 -0.2133  0.8043
 8540TIP3    H149815   5.827   5.451   2.625 -0.7067 -0.6103  0.0378
 8540TIP3    H249816   5.685   5.503   2.633 -0.4707 -0.1069  1.2260
 8541TIP3   OH249817   4.702   3.350   1.504 -0.8568 -0.3082  0.2065
 8541TIP3    H149818   4.738   3.262   1.504 -1.7424 -0.6889  0.3407
 8541TIP3    H249819   4.676   3.366   1.413  1.0004  0.5586 -0.2017
 8542TIP3   OH249820   1.852   4.195   2.858 -0.3459  0.2267 -0.1679
 8542TIP3    H149821   1.931   4.201   2.913 -1.3202  0.3933  1.2660
 8542TIP3    H249822   1.837   4.285   2.828  0.1560  0.1456 -0.6842
 8543TIP3   OH249823   1.589   4.341   2.097  0.0304  0.3115 -0.3404
 8543TIP3    H149824   1.566   4.253   2.127 -1.8503  0.2311 -1.8026
 8543TIP3    H249825   1.683   4.349   2.115  0.3234 -2.1083 -0.4333
 8544TIP3   OH249826   0.396   0.405   1.433  0.8786 -0.1832  0.4728
 8544TIP3    H149827   0.375   0.415   1.526  1.5369 -0.2705  0.6328
 8544TIP3    H249828   0.320   0.442   1.387 -0.4983 -2.2216  1.0179
 8545TIP3   OH249829   3.175   4.886   0.771  0.4390  0.6047  0.3608
 8545TIP3    H149830   3.083   4.863   0.782  0.5459  0.1895  0.3740
 8545TIP3    H249831   3.216   4.809   0.734  0.5636  1.1838 -0.7358
 8546TIP3   OH249832   0.216   0.284   1.148  0.1543 -0.1183 -0.3865
 8546TIP3    H149833   0.272   0.254   1.077  1.5840 -0.7089  0.9244
 8546TIP3    H249834   0.191   0.205   1.195 -0.3679  0.3024  0.0648
 8547TIP3   OH249835   0.801   3.534   2.582  0.0439 -0.1904 -0.5649
 8547TIP3    H149836   0.767   3.478   2.512  1.9697 -1.9502 -0.1880
 8547TIP3    H249837   0.788   3.483   2.662 -1.4425  1.4822  0.3219
 8548TIP3   OH249838   5.094   1.148   0.767  0.1667 -0.0843  0.3987
 8548TIP3    H149839   5.167   1.190   0.812 -0.7671 -0.3501  2.2338
 8548TIP3    H249840   5.032   1.125   0.836 -0.2700 -2.7055 -0.7150
 8549TIP3   OH249841   5.790   0.429   1.176  0.2042  0.6987 -0.4291
 8549TIP3    H149842   5.778   0.524   1.182 -0.0029  0.7093 -0.9434
 8549TIP3    H249843   5.813   0.413   1.085 -1.4879  0.0853 -0.7847
 8550TIP3   OH249844   6.262   6.326   9.958 -0.0911 -0.5257  0.1088
 8550TIP3    H149845   6.177   6.344   9.998  0.3415  1.5743  0.2317
 8550TIP3    H249846   6.325   6.336  10.030  0.4622  0.5769 -0.5041
 8551TIP3   OH249847   0.307   5.961   1.133  0.0275 -0.1185 -0.4831
 8551TIP3    H149848   0.292   5.868   1.148 -0.0490 -0.0399 -0.0680
 8551TIP3    H249849   0.220   5.997   1.117  0.2240 -0.4350 -2.5223
 8552TIP3   OH249850   0.494   6.251   2.208 -0.6038 -0.2715  0.2348
 8552TIP3    H149851   0.572   6.292   2.170 -0.6474 -1.0548 -0.7355
 8552TIP3    H249852   0.513   6.157   2.207 -1.0276 -0.3869  1.2308
 8553TIP3   OH249853   1.948   5.266   3.476  0.5002  0.0969  0.1063
 8553TIP3    H149854   1.969   5.233   3.389  3.2967  0.1751  0.6572
 8553TIP3    H249855   1.938   5.187   3.530  0.5940  0.0537  0.0618
 8554TIP3   OH249856   2.134   4.500   1.534 -0.1168 -0.4857  0.2966
 8554TIP3    H149857   2.103   4.426   1.481 -0.5987 -0.0414 -0.0552
 8554TIP3    H249858   2.060   4.559   1.538  0.0113 -0.3703  1.2390
 8555TIP3   OH249859   3.182   4.469   1.444  0.2974 -0.0530 -0.3680
 8555TIP3    H149860   3.169   4.533   1.514 -0.3711  0.3605 -0.8640
 8555TIP3    H249861   3.118   4.401   1.461  1.1391 -0.7147  0.2731
 8556TIP3   OH249862   6.539   4.506   2.560  0.2037  0.2051  0.1424
 8556TIP3    H149863   6.536   4.426   2.613  0.9216 -0.1293 -0.2984
 8556TIP3    H249864   6.470   4.561   2.595  2.2439  1.0805  3.1785
 8557TIP3   OH249865   3.590   0.968   3.846  0.2703  0.5741 -1.1644
 8557TIP3    H149866   3.584   1.049   3.797 -0.9243  3.4014  3.1016
 8557TIP3    H249867   3.668   0.979   3.900  0.0801 -1.1255 -0.4874
 8558TIP3   OH249868   4.121   4.008   1.328  0.3098 -0.2435 -0.3040
 8558TIP3    H149869   4.187   3.942   1.348  0.9770  0.3467 -0.5251
 8558TIP3    H249870   4.074   3.972   1.252  0.6841 -0.4570 -0.4409
 8559TIP3   OH249871   1.214   3.510   3.269  0.0167 -0.4465 -0.5268
 8559TIP3    H149872   1.273   3.447   3.227  0.2183 -0.7267  0.1554
 8559TIP3    H249873   1.270   3.584   3.292 -0.4459  0.5396 -2.4142
 8560TIP3   OH249874   2.143   2.744   0.825 -0.0956 -0.4011 -0.0014
 8560TIP3    H149875   2.111   2.654   0.822  0.5218 -0.6700  1.0694
 8560TIP3    H249876   2.075   2.793   0.871 -0.4277 -0.3083 -0.5771
 8561TIP3   OH249877   6.339   0.201   2.906  0.3884 -0.6511 -0.0128
 8561TIP3    H149878   6.302   0.113   2.918 -0.7485 -0.1768  0.0886
 8561TIP3    H249879   6.286   0.240   2.837 -1.9298  1.4331  2.7406
 8562TIP3   OH249880   3.766   2.806   9.412 -0.2684  0.3224 -0.0741
 8562TIP3    H149881   3.699   2.809   9.343  0.1365  0.8014 -0.4566
 8562TIP3    H249882   3.812   2.723   9.396 -0.7449  0.0052  0.1722
 8563TIP3   OH249883   3.040   3.732   3.752  0.2946 -0.4572  0.5712
 8563TIP3    H149884   3.025   3.642   3.724  2.5292 -0.1935 -1.8423
 8563TIP3    H249885   2.953   3.764   3.777 -0.6759 -2.9910  0.7194
 8564TIP3   OH249886   5.079   6.065   1.237  0.5840 -0.1720  0.0821
 8564TIP3    H149887   5.045   6.143   1.281  2.9036  0.7538  0.3482
 8564TIP3    H249888   5.070   5.995   1.302 -1.0034 -0.0499  0.0371
 8565TIP3   OH249889   1.129   5.220   2.417  0.4957 -0.1795  0.0046
 8565TIP3    H149890   1.184   5.199   2.341  1.7846 -1.0133  1.1273
 8565TIP3    H249891   1.104   5.135   2.453 -1.5064  0.1843 -0.4093
 8566TIP3   OH249892   1.931   1.844   1.506  0.3371 -0.2074  0.0100
 8566TIP3    H149893   1.992   1.771   1.518  1.5020  0.1043 -3.0978
 8566TIP3    H249894   1.848   1.803   1.482  0.4709 -0.5244  0.0919
 8567TIP3   OH249895   5.024   6.300   3.948  0.1212 -0.1439 -0.4090
 8567TIP3    H149896   4.979   6.224   3.983  0.2067  0.2658  0.6498
 8567TIP3    H249897   4.959   6.345   3.894 -0.7424  0.3849  1.0204
 8568TIP3   OH249898   0.150   5.661   1.445  0.0915 -0.5518 -0.1286
 8568TIP3    H149899   0.124   5.586   1.500 -0.2519  0.6530  1.4164
 8568TIP3    H249900   0.082   5.664   1.377 -0.3190 -1.1916  0.2343
 8569TIP3   OH249901   0.386   4.692   1.693  0.0781  0.4703 -0.2666
 8569TIP3    H149902   0.474   4.654   1.694  0.9652  2.4187 -0.0909
 8569TIP3    H249903   0.400   4.787   1.691 -2.0159  0.8682  0.5187
 8570TIP3   OH249904   6.469   2.642   1.831  0.1576  0.1500 -0.0389
 8570TIP3    H149905   6.440   2.553   1.849  0.5778 -0.5337 -2.4229
 8570TIP3    H249906   6.457   2.653   1.737  2.8110  1.6171 -0.3135
 8571TIP3   OH249907   1.801   5.451   2.816  0.3885  0.2529 -0.0543
 8571TIP3    H149908   1.735   5.519   2.825 -0.0440 -0.3465  1.6320
 8571TIP3    H249909   1.773   5.400   2.741  0.1706  1.3105 -0.7172
 8572TIP3   OH249910   5.654   5.788   3.505  0.0440  0.3136  0.2386
 8572TIP3    H149911   5.653   5.883   3.497  3.1211  0.3252 -1.3816
 8572TIP3    H249912   5.662   5.772   3.599  0.6441  1.7085  0.4440
 8573TIP3   OH249913   1.726   0.430   1.583 -0.1242  0.5335  0.4526
 8573TIP3    H149914   1.801   0.459   1.530 -1.6338  1.6329 -1.2146
 8573TIP3    H249915   1.669   0.385   1.520 -0.7991 -0.4462  1.7214
 8574TIP3   OH249916   1.331   3.026   2.290 -0.1881  0.6552 -0.5385
 8574TIP3    H149917   1.354   3.118   2.306 -0.3993  0.5108  0.6942
 8574TIP3    H249918   1.236   3.027   2.275 -0.4385  0.4874  0.9117
 8575TIP3   OH249919   3.276   1.459   1.136 -0.3421 -0.4586  0.1146
 8575TIP3    H149920   3.318   1.529   1.086 -1.4883 -0.1166 -0.3871
 8575TIP3    H249921   3.193   1.443   1.091 -1.0987 -0.6062  1.5156
 8576TIP3   OH249922   0.202   6.033   3.162  0.1043  0.1733  0.0652
 8576TIP3    H149923   0.288   6.070   3.143 -0.6253  2.1955  0.4557
 8576TIP3    H249924   0.141   6.083   3.106 -0.8005 -1.4490 -0.4653
 8577TIP3   OH249925   1.945   6.031   0.833  0.2659 -0.3643 -0.1602
 8577TIP3    H149926   1.857   6.069   0.831 -0.5335 -2.1003  0.3795
 8577TIP3    H249927   1.968   6.029   0.926  0.3719 -1.0353 -0.1979
 8578TIP3   OH249928   6.419   4.582   0.985 -0.3302 -0.0665 -0.4426
 8578TIP3    H149929   6.400   4.675   0.978 -0.3845 -0.0335  0.1154
 8578TIP3    H249930   6.372   4.554   1.064 -1.2050 -0.7908 -1.1893
 8579TIP3   OH249931   1.484   2.833   2.388 -0.2577 -0.4117  0.5416
 8579TIP3    H149932   1.440   2.917   2.379  0.3908 -0.1279 -0.0961
 8579TIP3    H249933   1.566   2.844   2.340 -0.1052 -1.3629  0.5663
 8580TIP3   OH249934   2.291   4.073   1.086  0.6476  0.2736 -0.5666
 8580TIP3    H149935   2.377   4.034   1.094  0.0169 -1.7391 -2.5875
 8580TIP3    H249936   2.308   4.165   1.063  2.2244  0.0244 -0.4693
 8581TIP3   OH249937   4.359   5.498   1.357  0.1597  0.2868 -0.1652
 8581TIP3    H149938   4.307   5.444   1.297 -0.9047  1.3360 -0.2009
 8581TIP3    H249939   4.356   5.450   1.440 -1.3429  0.6032 -0.0147
 8582TIP3   OH249940   0.135   5.987   1.767 -0.0060  0.0273 -0.2183
 8582TIP3    H149941   0.105   6.071   1.800 -0.7095 -0.5148  0.5587
 8582TIP3    H249942   0.196   5.955   1.833 -1.6721 -1.2141  0.8064
 8583TIP3   OH249943   5.621   4.460   1.343  0.6312  0.2962 -0.0408
 8583TIP3    H149944   5.580   4.393   1.288  0.5460  1.0671 -0.9365
 8583TIP3    H249945   5.713   4.457   1.319  0.7281  0.1007  0.3488
 8584TIP3   OH249946   3.091   1.657   2.432 -0.6082 -0.7343  0.5456
 8584TIP3    H149947   3.022   1.697   2.485 -0.2728 -1.0230  1.2126
 8584TIP3    H249948   3.044   1.607   2.365 -1.0354 -0.1940  0.4297
 8585TIP3   OH249949   3.769   0.126   3.412 -0.2948  0.3935 -0.4700
 8585TIP3    H149950   3.827   0.053   3.392 -1.4766 -0.1914 -1.9880
 8585TIP3    H249951   3.749   0.116   3.505 -0.8531 -1.5608 -0.7604
 8586TIP3   OH249952   1.056   5.802   0.770  0.1064  0.6443 -0.6376
 8586TIP3    H149953   1.008   5.842   0.843  1.0196 -2.3789  1.8297
 8586TIP3    H249954   1.146   5.831   0.783  0.6762 -1.5116  0.8627
 8587TIP3   OH249955   1.408   0.036   3.448  0.0811 -0.3970 -0.1058
 8587TIP3    H149956   1.442  -0.008   3.526 -0.1969 -1.6434 -0.6526
 8587TIP3    H249957   1.403   0.128   3.472  0.1388 -0.7409  1.2959
 8588TIP3   OH249958   1.416   4.755   3.023 -0.9390  0.8430 -0.3436
 8588TIP3    H149959   1.497   4.738   3.071 -0.6610 -2.4105 -1.6941
 8588TIP3    H249960   1.441   4.813   2.952 -0.1719  1.1269  0.1490
 8589TIP3   OH249961   1.307   5.611   1.715  0.6557 -0.2307  0.2095
 8589TIP3    H149962   1.344   5.525   1.738  0.1522 -0.1173  1.4638
 8589TIP3    H249963   1.267   5.597   1.629  0.0603 -1.4188  0.6583
 8590TIP3   OH249964   2.569   0.799   0.891 -0.5219 -0.4031  0.0377
 8590TIP3    H149965   2.535   0.888   0.881 -0.7107 -0.4278  0.4499
 8590TIP3    H249966   2.499   0.742   0.859 -0.4859 -0.4115 -0.0258
 8591TIP3   OH249967   3.624   0.461   1.086 -0.0299 -0.0369 -0.4566
 8591TIP3    H149968   3.614   0.387   1.027  1.6181 -0.6907  0.0275
 8591TIP3    H249969   3.612   0.425   1.173 -1.7774  0.7996 -0.2997
 8592TIP3   OH249970   6.062   1.886   0.934 -0.1045 -0.4207  0.5428
 8592TIP3    H149971   6.157   1.877   0.926  0.2362  2.6499 -0.3460
 8592TIP3    H249972   6.039   1.954   0.870 -2.9010 -1.0360  0.7798
 8593TIP3   OH249973   0.516   2.226   2.645  0.8717 -0.1365  0.1449
 8593TIP3    H149974   0.479   2.168   2.711  0.9224 -0.7236 -0.3347
 8593TIP3    H249975   0.515   2.175   2.565 -0.2890  0.9688 -0.5863
 8594TIP3   OH249976   2.927   0.761   0.471  0.2201 -0.1343 -0.1806
 8594TIP3    H149977   2.945   0.846   0.431 -0.5073 -0.3787 -1.0879
 8594TIP3    H249978   2.837   0.769   0.504  0.2283 -0.4660 -0.0748
 8595TIP3   OH249979   0.232   2.326   2.727  0.4778  0.0847 -0.0073
 8595TIP3    H149980   0.244   2.233   2.706 -1.9488 -0.4850  0.7606
 8595TIP3    H249981   0.150   2.328   2.776  1.2680  2.4686  1.3404
 8596TIP3   OH249982   2.284   3.795   3.132 -0.1224 -0.0211 -0.0941
 8596TIP3    H149983   2.253   3.818   3.220  1.1342  1.1013  0.0738
 8596TIP3    H249984   2.244   3.860   3.075 -0.6648 -0.5491 -0.3377
 8597TIP3   OH249985   3.858   0.902   2.989 -0.2149  0.1831 -0.1513
 8597TIP3    H149986   3.843   0.886   3.082  2.0473  0.7174  0.3878
 8597TIP3    H249987   3.824   0.990   2.974  0.7117  0.6904  0.5795
 8598TIP3   OH249988   2.774   1.292   2.004 -0.5068  0.3519 -0.5487
 8598TIP3    H149989   2.795   1.232   2.076 -0.5894  0.0680 -0.7597
 8598TIP3    H249990   2.859   1.311   1.964 -0.5034  0.2163 -0.6063
 8599TIP3   OH249991   1.397   4.981   0.887  0.3679  0.1674 -0.0586
 8599TIP3    H149992   1.418   5.065   0.929 -0.4031  0.8986 -1.1050
 8599TIP3    H249993   1.475   4.961   0.834 -0.1015  1.0921 -1.1373
 8600TIP3   OH249994   5.773   0.489   1.771 -0.4640 -0.4961 -0.2771
 8600TIP3    H149995   5.831   0.560   1.743 -0.8791 -0.0098  0.0645
 8600TIP3    H249996   5.685   0.526   1.765 -0.5819 -0.3444  1.6425
 8601TIP3   OH249997   0.794   6.614   2.652 -0.1692  0.1773 -0.1263
 8601TIP3    H149998   0.848   6.651   2.582 -1.9117  0.8790 -1.1375
 8601TIP3    H249999   0.824   6.659   2.732 -0.6292  2.0686 -0.9738
 8602TIP3   OH250000   1.504   1.235   1.374 -0.2242  0.3772 -0.0124
 8602TIP3    H150001   1.528   1.235   1.281  0.0114 -0.8250  0.0213
 8602TIP3    H250002   1.522   1.324   1.404  0.1841  0.6442 -0.9993
 8603TIP3   OH250003   0.249   1.207   2.117  0.8525  0.0497  0.2251
 8603TIP3    H150004   0.162   1.181   2.147  1.5238 -1.4991  1.0037
 8603TIP3    H250005   0.268   1.287   2.165 -0.5730  1.0695 -0.8300
 8604TIP3   OH250006   1.246   3.570   0.937 -0.2531  0.0027 -0.1267
 8604TIP3    H150007   1.327   3.611   0.965 -0.3327 -1.0816  1.8658
 8604TIP3    H250008   1.264   3.537   0.849  1.6047 -0.5765  0.4407
 8605TIP3   OH250009   6.015   5.089   2.938  0.2998 -0.4878 -0.0280
 8605TIP3    H150010   5.971   5.007   2.918 -0.8868  0.1039  0.0774
 8605TIP3    H250011   6.025   5.133   2.854  1.8698 -1.1577 -0.2336
 8606TIP3   OH250012   1.064   3.806   0.900  0.0106  0.2270  0.0700
 8606TIP3    H150013   1.116   3.845   0.830  0.9296  1.6994  1.4966
 8606TIP3    H250014   1.119   3.736   0.935  0.1498  0.4054  0.2112
 8607TIP3   OH250015   1.824   6.336   3.854 -0.5179  0.2376 -0.1100
 8607TIP3    H150016   1.907   6.288   3.850  0.7168  2.3742 -1.1831
 8607TIP3    H250017   1.757   6.267   3.850  1.1588 -1.5081  0.3139
 8608TIP3   OH250018   1.571   1.624   2.172  0.1063 -0.6189  0.5518
 8608TIP3    H150019   1.577   1.531   2.149  0.0633 -0.4316 -0.2612
 8608TIP3    H250020   1.591   1.627   2.265  3.0075 -1.1134  0.0428
 8609TIP3   OH250021   5.059   4.017   2.172 -0.0979  0.0207  0.4409
 8609TIP3    H150022   4.978   4.068   2.181 -0.4364  0.0504 -1.9758
 8609TIP3    H250023   5.103   4.056   2.097  0.8956 -1.6167  0.1355
 8610TIP3   OH250024   4.305   0.435   3.443 -0.0543  0.7201 -0.1107
 8610TIP3    H150025   4.310   0.384   3.362  0.0668  1.7500 -0.7857
 8610TIP3    H250026   4.212   0.439   3.464 -0.3849  2.4688 -1.5982
 8611TIP3   OH250027   3.797   4.529   2.857  0.2904 -0.2287  0.0892
 8611TIP3    H150028   3.765   4.517   2.767  0.2952  1.4525 -0.1573
 8611TIP3    H250029   3.741   4.597   2.894  3.2488  2.6522 -0.2595
 8612TIP3   OH250030   4.218   0.049   3.274  0.3675 -0.5006 -0.7685
 8612TIP3    H150031   4.212   0.015   3.363  0.3706 -0.2781 -0.6823
 8612TIP3    H250032   4.172  -0.015   3.220 -1.0136  0.1452 -0.4003
 8613TIP3   OH250033   0.402   3.218   1.726  0.0032  0.0958  0.3695
 8613TIP3    H150034   0.316   3.198   1.763 -0.2876  1.6222  0.5673
 8613TIP3    H250035   0.388   3.214   1.631 -0.0657 -0.4914  0.3983
 8614TIP3   OH250036   5.842   4.598   3.494  0.2652 -0.0668  0.3670
 8614TIP3    H150037   5.798   4.518   3.524 -1.8577  0.7608 -0.3635
 8614TIP3    H250038   5.880   4.574   3.410 -0.1540 -0.3613  0.2596
 8615TIP3   OH250039   6.224   3.407   3.436 -0.0722  0.4379 -0.4404
 8615TIP3    H150040   6.266   3.491   3.418  1.8330 -0.0844  1.1944
 8615TIP3    H250041   6.213   3.405   3.531 -0.0421 -1.1681 -0.4388
 8616TIP3   OH250042   4.017   0.675   1.502  0.3676  0.2900  0.6258
 8616TIP3    H150043   4.041   0.582   1.499 -1.4644 -0.2338  1.5158
 8616TIP3    H250044   4.016   0.697   1.595 -0.0206  0.9902  0.4602
 8617TIP3   OH250045   5.456   1.367   3.173 -0.1725  0.1910  0.2201
 8617TIP3    H150046   5.540   1.343   3.133  0.2664 -2.9402  2.6007
 8617TIP3    H250047   5.390   1.325   3.116  0.0194  0.5315 -0.2623
 8618TIP3   OH250048   1.856   2.749   2.947  0.2771  0.2199  0.6328
 8618TIP3    H150049   1.928   2.693   2.919 -1.3643 -0.5414 -2.4930
 8618TIP3    H250050   1.848   2.814   2.877 -2.3420 -0.0291  0.6153
 8619TIP3   OH250051   4.414   0.381   1.021  0.0404 -0.1222 -0.0457
 8619TIP3    H150052   4.372   0.296   1.021  0.5390 -0.3929  0.8663
 8619TIP3    H250053   4.349   0.440   1.059 -0.6720  0.1168 -1.6081
 8620TIP3   OH250054   3.885   5.225   0.792  0.0585 -0.8751  0.6527
 8620TIP3    H150055   3.934   5.306   0.806 -1.0810  0.2284 -1.2086
 8620TIP3    H250056   3.796   5.246   0.821 -0.3261 -1.3159 -0.1838
 8621TIP3   OH250057   0.646   1.707   0.382 -0.3450 -0.4729 -0.2579
 8621TIP3    H150058   0.739   1.686   0.383 -0.4370 -0.9895  1.9193
 8621TIP3    H250059   0.642   1.802   0.396 -0.1577 -0.6817  1.3207
 8622TIP3   OH250060   1.171   2.501   1.211  0.2705  0.1054 -0.2114
 8622TIP3    H150061   1.185   2.549   1.130  0.0508  1.8682  0.7528
 8622TIP3    H250062   1.144   2.568   1.275  1.0065 -1.1257  1.4647
 8623TIP3   OH250063   5.744   1.426   3.153  0.1009  0.1849  0.8462
 8623TIP3    H150064   5.771   1.348   3.202  1.2205  0.1688  0.2484
 8623TIP3    H250065   5.799   1.425   3.074  1.1439  2.2978  1.4716
 8624TIP3   OH250066   3.546   3.716   2.823 -0.2049 -0.1811 -0.4664
 8624TIP3    H150067   3.539   3.768   2.902 -0.6972 -0.3019 -0.4288
 8624TIP3    H250068   3.469   3.739   2.771 -1.1015 -1.7673  0.0895
 8625TIP3   OH250069   1.233   0.143   1.040  0.0435 -0.1475  0.2542
 8625TIP3    H150070   1.214   0.230   1.074  0.1108 -1.0016  2.6117
 8625TIP3    H250071   1.222   0.084   1.115 -0.2950 -2.2323 -1.3290
 8626TIP3   OH250072   0.185   3.480   2.948  0.1777 -0.8161 -0.1825
 8626TIP3    H150073   0.200   3.493   3.042  0.2036 -2.6593  0.1073
 8626TIP3    H250074   0.141   3.560   2.920  2.7288  1.0764  0.7485
 8627TIP3   OH250075   4.991   5.087   2.056 -0.3373 -0.1648 -0.3584
 8627TIP3    H150076   4.955   5.130   2.134 -1.5186 -0.7194 -0.5832
 8627TIP3    H250077   5.028   5.005   2.089  2.7239  1.3066  0.2198
 8628TIP3   OH250078   2.214   2.923   2.084 -0.4895 -0.2517 -0.1426
 8628TIP3    H150079   2.213   3.014   2.115 -0.5301  0.3431 -1.7944
 8628TIP3    H250080   2.157   2.923   2.007 -0.6987 -1.7483 -0.0116
 8629TIP3   OH250081   3.796   6.180   3.678  0.2474  0.1277 -0.5089
 8629TIP3    H150082   3.782   6.267   3.640 -0.7103 -0.8997 -2.6866
 8629TIP3    H250083   3.708   6.149   3.699  0.5769 -0.3617  0.1786
 8630TIP3   OH250084   4.308   6.324   3.959 -0.1885 -0.1064 -0.4449
 8630TIP3    H150085   4.323   6.234   3.988  0.9820 -0.3313 -1.6253
 8630TIP3    H250086   4.253   6.362   4.027  0.9664 -1.0967  1.1262
 8631TIP3   OH250087   6.346   1.824   1.875  0.1133  0.1036 -0.5221
 8631TIP3    H150088   6.271   1.781   1.834  0.8646 -2.1813  0.3679
 8631TIP3    H250089   6.325   1.827   1.968 -0.1594  2.3027 -0.5856
 8632TIP3   OH250090   5.913   1.729   2.202 -0.4323 -0.1026  0.0255
 8632TIP3    H150091   5.895   1.637   2.223 -1.5121  0.1264  0.1264
 8632TIP3    H250092   5.952   1.726   2.115  2.3427 -0.8956  1.1766
 8633TIP3   OH250093   2.202   0.554   1.349 -0.1363  0.0537  0.6721
 8633TIP3    H150094   2.135   0.609   1.307 -0.6722 -0.5092  0.7706
 8633TIP3    H250095   2.220   0.597   1.432  0.5446  0.8880  0.1149
 8634TIP3   OH250096   0.702   5.833   3.973 -0.3758 -0.2952  0.8443
 8634TIP3    H150097   0.764   5.850   3.903 -0.4298  0.4034  0.9604
 8634TIP3    H250098   0.749   5.778   4.035 -0.2481 -0.7097  0.3842
 8635TIP3   OH250099   5.967   1.086   1.133  0.2952  0.1635 -0.5857
 8635TIP3    H150100   6.045   1.058   1.085  1.2068 -0.3589  1.1220
 8635TIP3    H250101   5.993   1.083   1.225 -2.1639 -1.3976  0.1596
 8636TIP3   OH250102   4.933   4.142   3.280 -0.0928 -0.2830 -0.0169
 8636TIP3    H150103   4.857   4.153   3.223  0.9352  1.1590 -1.1639
 8636TIP3    H250104   4.988   4.078   3.235 -0.0585 -0.4351  0.2363
 8637TIP3   OH250105   1.457   5.575   2.404  0.3504 -0.2721 -0.0526
 8637TIP3    H150106   1.384   5.636   2.399  0.0300 -0.7086 -0.8658
 8637TIP3    H250107   1.533   5.626   2.375  0.3204  0.0825  0.4690
 8638TIP3   OH250108   3.359   5.938   0.783 -0.7970 -0.1614 -0.1190
 8638TIP3    H150109   3.301   5.967   0.853 -1.1594 -0.8795 -0.1142
 8638TIP3    H250110   3.326   5.851   0.758 -0.4404 -0.0830 -0.9109
 8639TIP3   OH250111   1.936   2.522   3.156  0.7570  0.4682  0.0242
 8639TIP3    H150112   1.892   2.587   3.101  3.4708  3.6096  1.1476
 8639TIP3    H250113   2.027   2.522   3.125  1.2578 -1.4875  1.2836
 8640TIP3   OH250114   6.024   5.748   2.053 -0.6503 -0.1596 -0.3536
 8640TIP3    H150115   5.994   5.701   1.975 -1.0462  1.6409 -1.3178
 8640TIP3    H250116   6.058   5.831   2.020 -1.3567  0.8927  1.4434
 8641TIP3   OH250117   5.469   1.509   0.608  0.1532  0.1032 -0.2118
 8641TIP3    H150118   5.460   1.418   0.635  1.6276 -0.5468 -1.7367
 8641TIP3    H250119   5.539   1.544   0.664 -1.6923  0.9315  1.7099
 8642TIP3   OH250120   0.497   5.570   3.529 -0.1308 -0.5152  0.3002
 8642TIP3    H150121   0.440   5.630   3.578  0.8771  1.8817 -1.2864
 8642TIP3    H250122   0.439   5.525   3.468 -0.8498 -0.9076  1.2522
 8643TIP3   OH250123   0.858   2.645   1.364  0.8309  0.4617 -0.2545
 8643TIP3    H150124   0.881   2.697   1.287  2.7340 -0.4332 -0.3597
 8643TIP3    H250125   0.770   2.675   1.388  0.4950  1.3041 -2.2973
 8644TIP3   OH250126   2.623   6.087   1.635 -0.7198 -0.3374  0.1921
 8644TIP3    H150127   2.564   6.145   1.588 -0.3781 -0.7216 -0.7290
 8644TIP3    H250128   2.566   6.038   1.694 -1.2659 -0.4251 -0.3968
 8645TIP3   OH250129   1.744   0.532   3.109  0.2600  0.1700  0.2291
 8645TIP3    H150130   1.660   0.489   3.095  0.5289 -0.2526 -0.0893
 8645TIP3    H250131   1.809   0.463   3.101  0.6833  0.5972 -0.0848
 8646TIP3   OH250132   6.528   5.902   0.443 -0.3114  0.2456  0.7114
 8646TIP3    H150133   6.494   5.991   0.438 -1.5070 -0.2464 -2.4836
 8646TIP3    H250134   6.621   5.912   0.462 -0.4272  2.1730  0.4392
 8647TIP3   OH250135   4.476   5.041   3.170  0.0519 -0.4287 -0.2525
 8647TIP3    H150136   4.540   4.970   3.182  1.6957  1.1639  0.8479
 8647TIP3    H250137   4.461   5.044   3.075  1.2255 -1.1761 -0.4801
 8648TIP3   OH250138   4.591   1.527   1.430 -0.2553  0.2958  0.0969
 8648TIP3    H150139   4.670   1.536   1.376  0.8105 -0.2648  1.4913
 8648TIP3    H250140   4.574   1.616   1.462  0.2137  0.3065  0.3261
 8649TIP3   OH250141   6.328   0.389   3.840 -0.1368 -0.2102  0.4406
 8649TIP3    H150142   6.336   0.484   3.841  1.1203 -0.2561  2.6365
 8649TIP3    H250143   6.321   0.365   3.747 -2.7688  2.1254 -0.0849
 8650TIP3   OH250144   6.386   4.632   1.534  1.0189 -0.0861 -0.2113
 8650TIP3    H150145   6.336   4.667   1.460  0.7115  0.1464  0.1018
 8650TIP3    H250146   6.432   4.557   1.498 -0.7081 -1.2265 -0.1850
 8651TIP3   OH250147   0.390   1.430   2.788 -0.1903  0.2956 -0.1388
 8651TIP3    H150148   0.447   1.422   2.712 -0.7398 -0.4883 -0.4846
 8651TIP3    H250149   0.434   1.492   2.845  1.9102 -1.5854  0.4133
 8652TIP3   OH250150   4.504   3.202   2.209  0.1141  0.3551 -0.5807
 8652TIP3    H150151   4.479   3.111   2.225  0.7916  0.2853  0.1453
 8652TIP3    H250152   4.441   3.254   2.259 -0.7377  0.3339 -1.5886
 8653TIP3   OH250153   2.696   1.917   2.366  0.5934 -0.5571 -0.3512
 8653TIP3    H150154   2.639   1.993   2.379  0.7767 -0.2834 -1.0744
 8653TIP3    H250155   2.704   1.909   2.270  0.7625 -1.3467 -0.2802
 8654TIP3   OH250156   2.746   2.796   1.497  0.4391  0.0247  0.2375
 8654TIP3    H150157   2.835   2.779   1.467  0.1450  0.0291 -0.6568
 8654TIP3    H250158   2.734   2.737   1.572  0.8066 -0.7932 -0.3321
 8655TIP3   OH250159   3.213   1.748   0.767 -0.1651 -0.1660 -0.6653
 8655TIP3    H150160   3.140   1.767   0.708  0.8156 -0.4403 -2.0074
 8655TIP3    H250161   3.210   1.653   0.779  0.1577 -0.2150 -0.9716
 8656TIP3   OH250162   0.693   4.518   1.946 -0.4963  0.2684 -0.1245
 8656TIP3    H150163   0.676   4.582   1.877 -1.6308 -2.1856 -2.2490
 8656TIP3    H250164   0.657   4.436   1.913  0.2609 -1.3722  2.7764
 8657TIP3   OH250165   5.812   5.946   0.387  0.4729  0.4846  0.7371
 8657TIP3    H150166   5.821   5.876   0.452  0.2135  1.8118  2.2758
 8657TIP3    H250167   5.900   5.959   0.353  0.3403 -1.3036 -0.3952
 8658TIP3   OH250168   5.179   2.943   3.042 -0.4499 -0.5004 -0.4350
 8658TIP3    H150169   5.248   2.893   2.999 -0.1705  0.1227 -0.7248
 8658TIP3    H250170   5.126   2.978   2.971 -0.9222 -0.7748 -0.2213
 8659TIP3   OH250171   5.300   2.131   2.542 -0.0496 -0.5098 -0.1795
 8659TIP3    H150172   5.353   2.084   2.478  1.6568  0.1161  0.7238
 8659TIP3    H250173   5.345   2.215   2.554  0.2618 -0.9718  2.5232
 8660TIP3   OH250174   3.951   2.929   1.324 -0.1237  0.2168 -0.4358
 8660TIP3    H150175   3.889   2.915   1.396  1.1265  0.1420  0.6769
 8660TIP3    H250176   3.909   2.994   1.268 -1.2264  0.1210  0.2483
 8661TIP3   OH250177   6.404   4.878   1.988  0.6521  0.0970 -0.1794
 8661TIP3    H150178   6.357   4.821   1.926 -0.3371  1.4573 -0.7297
 8661TIP3    H250179   6.371   4.851   2.074 -3.4407  2.7646 -0.6213
 8662TIP3   OH250180   0.465   6.043   2.759 -0.1311 -0.1619 -0.4643
 8662TIP3    H150181   0.470   6.093   2.840 -0.4382 -1.0104  0.0888
 8662TIP3    H250182   0.554   6.012   2.744 -0.4072 -1.4964  0.5222
 8663TIP3   OH250183   2.482   1.069   0.805 -0.7419 -0.5703  0.4143
 8663TIP3    H150184   2.498   1.103   0.717  0.1511 -0.9247  0.4380
 8663TIP3    H250185   2.390   1.041   0.803 -0.0027 -3.2464 -1.3304
 8664TIP3   OH250186   4.992   0.230   0.984 -0.4435  0.5583 -0.0531
 8664TIP3    H150187   5.017   0.318   1.013  1.4522  0.6763 -1.7740
 8664TIP3    H250188   4.980   0.180   1.065  3.5863  1.0994  1.0964
 8665TIP3   OH250189   1.248   4.132   1.305  0.6591 -0.0551 -0.0600
 8665TIP3    H150190   1.281   4.221   1.292  0.4803  0.1760  0.9658
 8665TIP3    H250191   1.155   4.143   1.323  0.3934 -0.5533 -1.0283
 8666TIP3   OH250192   4.322   5.605   2.375  0.5822 -0.0493 -0.0688
 8666TIP3    H150193   4.379   5.548   2.428 -0.1385  0.5369  1.4059
 8666TIP3    H250194   4.334   5.692   2.413  1.2918  0.7295 -1.9752
 8667TIP3   OH250195   5.485   6.067   1.538  0.3028  0.0160  0.1155
 8667TIP3    H150196   5.453   6.060   1.448 -0.2864 -0.3161  0.3448
 8667TIP3    H250197   5.406   6.071   1.591  0.5792  2.8920  0.4591
 8668TIP3   OH250198   2.824   2.558   2.281  0.0454 -0.2627  0.3902
 8668TIP3    H150199   2.755   2.543   2.346  0.0894 -1.4447  0.1831
 8668TIP3    H250200   2.894   2.498   2.307 -0.3007 -1.4217 -1.2938
 8669TIP3   OH250201   6.203   4.459   1.689 -0.6863 -0.2510 -0.4251
 8669TIP3    H150202   6.222   4.531   1.750  0.8186  0.6450 -1.8621
 8669TIP3    H250203   6.189   4.383   1.745  0.0526  0.6657  1.0645
 8670TIP3   OH250204   3.842   2.591   1.294 -0.2846  0.2809 -0.0695
 8670TIP3    H150205   3.861   2.630   1.209  0.1284  0.9333  0.3139
 8670TIP3    H250206   3.898   2.638   1.356 -0.7849  0.0125  0.6090
 8671TIP3   OH250207   5.400   3.544   1.295 -0.5410  0.7421  0.0228
 8671TIP3    H150208   5.366   3.457   1.316 -2.2468  1.4049  0.1300
 8671TIP3    H250209   5.446   3.533   1.212 -0.7939 -0.2432  0.0076
 8672TIP3   OH250210   6.244   0.286   4.155 -0.1386  0.4747 -0.3897
 8672TIP3    H150211   6.289   0.214   4.200 -0.5729  1.0924  1.0931
 8672TIP3    H250212   6.209   0.246   4.075  1.5325 -0.4136 -0.7142
 8673TIP3   OH250213   0.962   3.403   3.185 -0.2584 -0.3771  0.1646
 8673TIP3    H150214   0.953   3.328   3.126 -2.1833  0.4309 -0.6265
 8673TIP3    H250215   1.055   3.401   3.211  0.4418 -1.3111 -2.1423
 8674TIP3   OH250216   0.112   2.319   3.118 -0.2513 -0.0925  0.3746
 8674TIP3    H150217   0.202   2.353   3.118 -0.2961  0.0274  0.4415
 8674TIP3    H250218   0.058   2.395   3.139 -0.3737 -0.1531  0.2793
 8675TIP3   OH250219   2.293   6.119   2.036  0.0906  0.9890 -0.1521
 8675TIP3    H150220   2.334   6.200   2.068  1.8402  0.5543 -1.2247
 8675TIP3    H250221   2.208   6.148   2.002  0.3783  2.2631  0.1426
 8676TIP3   OH250222   3.967   0.686   1.951 -0.3458  0.4292 -0.2202
 8676TIP3    H150223   3.923   0.770   1.955 -1.4952 -0.1071 -1.0727
 8676TIP3    H250224   4.058   0.707   1.929 -0.2631  1.5104  0.9953
 8677TIP3   OH250225   5.683   6.537   1.674 -0.3025  0.4538  0.0119
 8677TIP3    H150226   5.625   6.465   1.650  1.2443 -0.7918 -0.1918
 8677TIP3    H250227   5.771   6.505   1.653  0.5960  1.6833  1.6442
 8678TIP3   OH250228   5.615   4.748   1.239 -0.2609  0.8953 -0.3679
 8678TIP3    H150229   5.700   4.765   1.198  0.7449  1.7450  1.8832
 8678TIP3    H250230   5.597   4.656   1.220  1.1482  0.7004 -0.9037
 8679TIP3   OH250231   4.041   4.388   1.043  0.3490 -0.0107  0.0488
 8679TIP3    H150232   3.987   4.340   1.107  0.5184  0.5482  0.6233
 8679TIP3    H250233   3.998   4.473   1.035  1.8452  0.9437  1.5215
 8680TIP3   OH250234   4.295   0.993   0.429 -0.2601  0.4835 -0.3858
 8680TIP3    H150235   4.383   0.988   0.465  0.7680  1.4836 -2.5339
 8680TIP3    H250236   4.305   1.045   0.349 -2.5982 -0.3478 -1.3127
 8681TIP3   OH250237   2.827   1.704   1.467 -0.0301 -0.0976 -0.2832
 8681TIP3    H150238   2.910   1.748   1.483  0.7081 -2.0446  1.6872
 8681TIP3    H250239   2.846   1.642   1.396  0.0114 -0.0793 -0.2881
 8682TIP3   OH250240   4.579   2.268   0.803  0.5299  0.1655  0.3679
 8682TIP3    H150241   4.532   2.232   0.727  1.3688 -0.7248  0.2548
 8682TIP3    H250242   4.534   2.350   0.822  1.6243  1.5620 -2.4787
 8683TIP3   OH250243   1.818   4.745   1.790 -0.6997  0.2035  0.0528
 8683TIP3    H150244   1.851   4.706   1.871 -0.6819  1.6906  0.7869
 8683TIP3    H250245   1.892   4.794   1.754  0.1569 -2.5565 -2.3446
 8684TIP3   OH250246   3.978   4.303   1.435 -0.0518 -0.5874 -0.2252
 8684TIP3    H150247   3.993   4.226   1.489  0.5335  0.1935  0.7510
 8684TIP3    H250248   3.953   4.268   1.349  0.0170 -1.8481  0.2570
 8685TIP3   OH250249   0.245   2.728   3.507 -0.0065 -0.2343 -0.2123
 8685TIP3    H150250   0.263   2.681   3.426  2.5565  0.2132  0.0201
 8685TIP3    H250251   0.222   2.660   3.570  0.3765 -0.8334 -0.7132
 8686TIP3   OH250252   6.232   1.468   2.428  0.4904 -0.3709 -0.2065
 8686TIP3    H150253   6.285   1.540   2.462 -1.0460  0.4579  0.5335
 8686TIP3    H250254   6.220   1.489   2.335 -1.7754  1.5902  0.4402
 8687TIP3   OH250255   1.638   4.099   0.382  0.2960  0.8333  0.3512
 8687TIP3    H150256   1.729   4.121   0.400  0.8630 -2.0900  1.5312
 8687TIP3    H250257   1.642   4.018   0.332 -1.6595  0.1185  1.2369
 8688TIP3   OH250258   0.390   2.922   1.817  0.6074  0.3427  0.2964
 8688TIP3    H150259   0.417   2.917   1.725 -1.0345 -0.1179 -0.1808
 8688TIP3    H250260   0.313   2.867   1.823 -0.0632  1.3709  1.6814
 8689TIP3   OH250261   6.442   0.106   4.026  0.3288 -0.4735  0.6039
 8689TIP3    H150262   6.426   0.092   3.932  0.9759 -1.3383  0.6030
 8689TIP3    H250263   6.506   0.038   4.049  1.3088  0.6653  1.3422
 8690TIP3   OH250264   1.737   0.776   3.562 -0.0897 -0.0528 -0.1223
 8690TIP3    H150265   1.824   0.748   3.592 -0.6280 -2.5061 -0.6706
 8690TIP3    H250266   1.676   0.739   3.626 -0.7982  1.9030  0.4341
 8691TIP3   OH250267   0.187   5.901   2.228  0.1552 -0.9867 -0.4254
 8691TIP3    H150268   0.277   5.869   2.239  0.8128  1.2055  1.2235
 8691TIP3    H250269   0.188   5.946   2.144  0.1971 -2.0656 -1.0299
 8692TIP3   OH250270   3.640   2.597   0.780 -0.4966  0.3758 -0.0277
 8692TIP3    H150271   3.648   2.505   0.802 -0.7384 -0.3131 -2.5470
 8692TIP3    H250272   3.555   2.623   0.815 -1.3624 -0.9311 -1.1002
 8693TIP3   OH250273   2.421   3.867   3.383  0.0892  0.1708  0.1885
 8693TIP3    H150274   2.461   3.781   3.372  0.5868  0.4876 -0.5944
 8693TIP3    H250275   2.422   3.905   3.295  1.9731  1.8739  0.8692
 8694TIP3   OH250276   2.506   6.348   2.622  0.4839 -0.0574 -0.3750
 8694TIP3    H150277   2.595   6.341   2.655  0.5621 -1.4519 -0.8227
 8694TIP3    H250278   2.457   6.282   2.671 -0.5131  1.2552  0.4698
 8695TIP3   OH250279   2.554   5.412   0.972 -0.3110 -0.0031  0.2434
 8695TIP3    H150280   2.511   5.369   0.898  0.5568 -0.8521  0.2198
 8695TIP3    H250281   2.595   5.341   1.021  0.5366  0.7128  0.5997
 8696TIP3   OH250282   1.073   2.774   1.822  0.3261 -0.6698  0.3451
 8696TIP3    H150283   1.014   2.699   1.813 -0.8842  0.3240 -0.4103
 8696TIP3    H250284   1.037   2.824   1.896  0.7160 -0.5027  0.4216
 8697TIP3   OH250285   3.993   1.405   2.523 -0.2963 -0.2203  0.0771
 8697TIP3    H150286   4.069   1.376   2.573 -0.7810  0.3062  1.1592
 8697TIP3    H250287   3.969   1.329   2.469 -0.2130 -1.0809  1.2153
 8698TIP3   OH250288   4.950   0.239   4.358 -0.4616 -0.4229 -0.1864
 8698TIP3    H150289   4.918   0.329   4.359 -1.1976 -0.6816  0.1210
 8698TIP3    H250290   5.015   0.236   4.428 -0.2215 -0.0535 -0.3937
 8699TIP3   OH250291   5.991   0.358   1.640 -0.3739 -0.6436 -0.3278
 8699TIP3    H150292   5.950   0.301   1.575 -1.4053  0.4717 -0.6796
 8699TIP3    H250293   5.923   0.371   1.706  0.4164 -1.1599  0.6059
 8700TIP3   OH250294   2.664   1.291   2.509  0.0192  0.1490 -0.0127
 8700TIP3    H150295   2.596   1.286   2.442 -0.9172  1.7565  0.7529
 8700TIP3    H250296   2.636   1.230   2.577  0.3192 -0.5480 -0.5006
 8701TIP3   OH250297   0.799   0.245   2.016  0.0345 -0.2410  0.6694
 8701TIP3    H150298   0.787   0.182   1.946 -0.2314 -1.1838  1.5424
 8701TIP3    H250299   0.872   0.300   1.987 -1.2634  0.5989 -1.1776
 8702TIP3   OH250300   3.733   3.868   2.541 -0.0696 -0.0140  0.2030
 8702TIP3    H150301   3.728   3.915   2.624  0.8056  0.5823 -0.0741
 8702TIP3    H250302   3.746   3.936   2.475  1.0012 -0.6123 -0.2232
 8703TIP3   OH250303   6.277   1.763   2.591  0.0354  0.1011 -0.6810
 8703TIP3    H150304   6.216   1.772   2.517 -2.0917  0.5605  1.0018
 8703TIP3    H250305   6.312   1.852   2.603 -1.6924  0.6872  0.4461
 8704TIP3   OH250306   1.666   5.330   1.371 -0.4149  0.1776  0.7997
 8704TIP3    H150307   1.758   5.333   1.398 -0.4934  0.6089  1.0225
 8704TIP3    H250308   1.659   5.249   1.320  0.1922  0.3642  0.4052
 8705TIP3   OH250309   5.817   1.657   1.036 -0.0330 -0.0423 -0.0763
 8705TIP3    H150310   5.883   1.625   1.098  0.1712  2.8651  1.3714
 8705TIP3    H250311   5.868   1.693   0.964 -0.1367 -0.1206 -0.1879
 8706TIP3   OH250312   5.980   2.137   3.530 -0.0415 -0.1596 -0.0911
 8706TIP3    H150313   5.916   2.153   3.461  1.1793 -0.2852 -1.3051
 8706TIP3    H250314   6.005   2.224   3.561  0.6216 -0.0108 -0.9974
 8707TIP3   OH250315   1.088   2.134   2.523  0.6075 -0.9478 -0.0336
 8707TIP3    H150316   1.032   2.154   2.448  0.7481  0.1209  0.1369
 8707TIP3    H250317   1.144   2.210   2.533 -0.3061 -0.4669  1.9758
 8708TIP3   OH250318   0.025   4.771   3.478 -0.5575 -1.0817  0.2294
 8708TIP3    H150319  -0.055   4.720   3.468 -0.3324 -1.5508  0.7840
 8708TIP3    H250320   0.000   4.860   3.450 -1.5075 -1.0180  1.2048
 8709TIP3   OH250321   4.262   6.617   1.766  0.5234 -0.1630  0.1737
 8709TIP3    H150322   4.349   6.607   1.804  0.1407 -0.1665  1.0715
 8709TIP3    H250323   4.276   6.672   1.689  1.3064 -0.1246  0.3332
 8710TIP3   OH250324   5.533   1.176   3.409 -0.3810  0.1882  0.6165
 8710TIP3    H150325   5.462   1.161   3.472 -0.9591 -0.5166 -0.1800
 8710TIP3    H250326   5.491   1.220   3.335 -0.2626 -1.3485 -0.3979
 8711TIP3   OH250327   0.425   4.547   3.504  0.8604  0.5104  0.0270
 8711TIP3    H150328   0.460   4.475   3.557 -2.6464 -1.8138 -0.4757
 8711TIP3    H250329   0.377   4.601   3.567 -0.3253 -0.2416 -0.2023
 8712TIP3   OH250330   6.035   1.589   0.835  0.2965  0.2463 -0.2400
 8712TIP3    H150331   6.111   1.600   0.777  2.0003 -1.0583  1.6245
 8712TIP3    H250332   6.064   1.624   0.919 -1.2662 -0.1351  0.4829
 8713TIP3   OH250333   4.613   5.637   1.401  0.0258  0.1775  0.1853
 8713TIP3    H150334   4.523   5.605   1.394 -0.1253  0.4699  0.7385
 8713TIP3    H250335   4.624   5.655   1.494  0.2600  1.2973 -0.0505
 8714TIP3   OH250336   5.729   4.718   2.586  0.4097 -0.1469  0.2664
 8714TIP3    H150337   5.764   4.689   2.670  1.7766 -1.9964 -0.8683
 8714TIP3    H250338   5.712   4.637   2.538  0.1187  0.8741 -1.4265
 8715TIP3   OH250339   0.207   4.324   3.648 -0.5686 -0.3496  0.1394
 8715TIP3    H150340   0.294   4.359   3.667  0.0808 -0.3368 -2.4014
 8715TIP3    H250341   0.151   4.401   3.643 -0.3839 -0.2068  0.2538
 8716TIP3   OH250342   1.883   6.319   2.440 -0.4232 -0.6158 -0.4087
 8716TIP3    H150343   1.944   6.325   2.514  0.8568 -0.5736 -1.4220
 8716TIP3    H250344   1.868   6.410   2.415 -1.6421 -0.5750  0.3844
 8717TIP3   OH250345   0.683   2.255   1.952 -0.3931  0.7883  0.2163
 8717TIP3    H150346   0.636   2.288   2.029  0.8068  0.7586  1.0014
 8717TIP3    H250347   0.772   2.242   1.983 -0.5556 -2.2971 -0.3065
 8718TIP3   OH250348   1.347   0.915   1.575 -0.1915  0.2026 -0.1083
 8718TIP3    H150349   1.260   0.882   1.553 -0.5532  0.6450  0.6292
 8718TIP3    H250350   1.370   0.972   1.502 -0.3072 -0.2926 -0.5411
 8719TIP3   OH250351   5.291   2.667   3.087 -0.1884  0.2744 -0.3619
 8719TIP3    H150352   5.280   2.574   3.065  0.4403  0.4317 -1.3924
 8719TIP3    H250353   5.290   2.712   3.003 -2.0471  1.4022  0.2127
 8720TIP3   OH250354   3.535   1.772   2.095 -1.2318  0.5467  0.2342
 8720TIP3    H150355   3.517   1.865   2.109 -1.1625  0.7560 -0.9715
 8720TIP3    H250356   3.490   1.751   2.014 -0.1203 -0.1325 -0.2209
 8721TIP3   OH250357   0.248   2.990   3.433 -0.0265 -0.2162  0.2987
 8721TIP3    H150358   0.212   2.909   3.469 -0.0489 -0.2152  0.2787
 8721TIP3    H250359   0.174   3.032   3.390  0.4150 -1.1561 -1.4564
 8722TIP3   OH250360   1.399   0.603   2.584 -0.5131 -0.5246  0.1200
 8722TIP3    H150361   1.387   0.647   2.500 -1.8105 -0.2592  0.4162
 8722TIP3    H250362   1.358   0.661   2.648  1.0062 -0.4277  1.0343
 8723TIP3   OH250363   5.068   2.733   2.389 -0.2849 -0.0628  0.2525
 8723TIP3    H150364   5.162   2.719   2.379 -0.1506  1.2503 -0.5349
 8723TIP3    H250365   5.060   2.826   2.408 -1.4266 -0.1883  0.4533
 8724TIP3   OH250366   4.970   1.034   3.113 -0.1335 -0.1167 -0.5040
 8724TIP3    H150367   5.008   0.976   3.047  1.3805  0.8563 -0.5373
 8724TIP3    H250368   4.910   0.978   3.162 -0.4771 -1.1237 -2.0097
 8725TIP3   OH250369   0.046   2.061   3.010 -0.0325 -0.0022 -0.0474
 8725TIP3    H150370   0.075   2.129   3.071 -0.1748  0.8738 -0.9222
 8725TIP3    H250371   0.111   2.064   2.939 -1.7329  1.3939 -1.6216
 8726TIP3   OH250372   1.637   5.970   2.185  0.0351 -0.1505 -0.5254
 8726TIP3    H150373   1.705   6.032   2.211  0.7478 -1.1629  0.0736
 8726TIP3    H250374   1.564   6.025   2.157 -0.4716  1.0326  2.7341
 8727TIP3   OH250375   6.363   1.159   3.251 -0.0979 -0.1289  0.1430
 8727TIP3    H150376   6.311   1.222   3.301  1.0959 -0.7163  2.2814
 8727TIP3    H250377   6.419   1.212   3.195 -0.8432  0.5931  0.0585
 8728TIP3   OH250378   3.960   0.616   0.612  0.4842 -0.5278 -0.3337
 8728TIP3    H150379   4.033   0.584   0.559  0.4579 -0.6304 -0.3080
 8728TIP3    H250380   4.001   0.648   0.693  0.4326 -1.2582 -0.0090
 8729TIP3   OH250381   6.101   3.820   3.871 -0.3282  0.3172 -0.7651
 8729TIP3    H150382   6.109   3.865   3.786 -1.2561  0.8118 -0.5969
 8729TIP3    H250383   6.091   3.891   3.935  2.6460  0.0907  0.0984
 8730TIP3   OH250384   2.427   1.087   3.650 -0.5222  0.6191 -0.7993
 8730TIP3    H150385   2.493   1.038   3.699 -0.8989  0.1576 -0.7472
 8730TIP3    H250386   2.394   1.152   3.713  0.4935  1.4485 -1.0834
 8731TIP3   OH250387   1.533   2.346   2.494  0.3352 -0.2554  0.0243
 8731TIP3    H150388   1.605   2.409   2.496  0.5991 -0.5593  1.9464
 8731TIP3    H250389   1.456   2.398   2.475  0.7627  0.4077  0.0719
 8732TIP3   OH250390   6.566   0.130   3.541  0.5775  0.3700 -0.0339
 8732TIP3    H150391   6.602   0.159   3.625 -0.0109  3.1505 -0.6518
 8732TIP3    H250392   6.642   0.104   3.490  1.1984  1.0537  0.5111
 8733TIP3   OH250393   4.270   3.763   1.368  0.3511  0.2689  0.2945
 8733TIP3    H150394   4.274   3.755   1.463  0.2181  2.1032  0.4868
 8733TIP3    H250395   4.359   3.743   1.338  0.5512  0.3026  0.8600
 8734TIP3   OH250396   4.589   6.383   2.356  0.2350  0.2690 -0.3095
 8734TIP3    H150397   4.572   6.435   2.435 -0.7107  1.0736 -1.0173
 8734TIP3    H250398   4.683   6.367   2.358  0.5119  1.7527  0.1121
 8735TIP3   OH250399   3.756   5.773   1.015 -0.3132 -0.0384 -0.7207
 8735TIP3    H150400   3.824   5.752   1.079  0.2040  0.0350 -1.2350
 8735TIP3    H250401   3.785   5.856   0.976 -0.6869 -0.0142 -0.9520
 8736TIP3   OH250402   3.010   3.295   2.067 -0.1424 -0.3590 -0.1311
 8736TIP3    H150403   3.037   3.350   2.140 -2.9155  1.9328 -0.6550
 8736TIP3    H250404   3.028   3.348   1.989 -2.7745 -0.1237 -0.6617
 8737TIP3   OH250405   6.168   5.215   2.366 -0.2696 -0.1739 -0.3717
 8737TIP3    H150406   6.162   5.211   2.271  0.5615  0.3081 -0.4500
 8737TIP3    H250407   6.086   5.256   2.393 -0.8026 -0.9139 -0.8253
 8738TIP3   OH250408   4.468   5.886   3.214  0.1681 -0.4585  0.1301
 8738TIP3    H150409   4.507   5.803   3.188  1.0043  0.5202 -2.0380
 8738TIP3    H250410   4.542   5.942   3.238 -0.1290  0.3872 -0.8213
 8739TIP3   OH250411   3.608   1.082   2.433 -0.0969  0.6458 -0.9852
 8739TIP3    H150412   3.564   1.010   2.388  0.6138  0.3581 -1.2362
 8739TIP3    H250413   3.653   1.041   2.507  2.4962  0.3324 -2.5917
 8740TIP3   OH250414   3.263   2.603   0.899  0.4702 -0.5691  0.2968
 8740TIP3    H150415   3.224   2.674   0.850  0.0669 -3.1043 -3.4610
 8740TIP3    H250416   3.351   2.633   0.920  1.2484  0.2496 -3.4774
 8741TIP3   OH250417   2.917   6.274   1.302 -0.2193 -0.1531  0.1934
 8741TIP3    H150418   2.902   6.221   1.381  0.0607  1.1725  1.1673
 8741TIP3    H250419   2.989   6.332   1.326  0.8293 -0.6675 -1.5371
 8742TIP3   OH250420   0.558   2.447   1.712 -0.2936  0.1019  0.2598
 8742TIP3    H150421   0.592   2.358   1.723  0.6074  0.3604 -0.3128
 8742TIP3    H250422   0.615   2.501   1.766  0.1935  0.5311 -0.6528
 8743TIP3   OH250423   5.633   5.463   3.647 -0.1208 -0.0534  0.6113
 8743TIP3    H150424   5.680   5.391   3.604  0.9069  0.0793  1.4569
 8743TIP3    H250425   5.579   5.420   3.713 -0.8640 -0.1724 -0.0639
 8744TIP3   OH250426   3.279   3.862   3.695 -0.0366 -0.1427  0.3536
 8744TIP3    H150427   3.190   3.841   3.723 -0.0965  0.1494  0.3839
 8744TIP3    H250428   3.335   3.806   3.750 -0.2385 -1.0466 -0.3551
 8745TIP3   OH250429   4.290   3.337   2.786 -0.2759  0.1349 -0.2168
 8745TIP3    H150430   4.259   3.309   2.873  0.9306  2.6555  1.1159
 8745TIP3    H250431   4.380   3.305   2.782 -0.0255  0.8279 -0.1365
 8746TIP3   OH250432   4.739   2.430   1.060 -0.6138  0.4542 -0.2785
 8746TIP3    H150433   4.827   2.446   1.094 -0.6315 -0.4054  0.2062
 8746TIP3    H250434   4.706   2.357   1.113 -1.0095 -0.2928 -1.5027
 8747TIP3   OH250435   6.315   1.240   2.591  0.3886  0.6377  0.3859
 8747TIP3    H150436   6.387   1.286   2.633 -0.5735  1.0597  1.6327
 8747TIP3    H250437   6.292   1.294   2.516  1.9219  0.0409 -0.5635
 8748TIP3   OH250438   0.087   6.105   1.026 -0.4308 -0.1499  0.1591
 8748TIP3    H150439   0.045   6.089   0.942 -0.2326 -0.2132  0.0707
 8748TIP3    H250440   0.020   6.084   1.091  0.1463 -2.4993  0.0888
 8749TIP3   OH250441   4.949   3.719   3.614 -0.0882 -0.0104 -0.7090
 8749TIP3    H150442   4.955   3.779   3.688 -1.3130 -1.3719  0.5636
 8749TIP3    H250443   5.021   3.744   3.556  1.0860  0.9078  1.0777
 8750TIP3   OH250444   1.591   4.212   1.538 -0.1449  0.0658 -0.7041
 8750TIP3    H150445   1.638   4.202   1.455  1.9669  1.4421  0.2342
 8750TIP3    H250446   1.637   4.153   1.599 -0.5777  0.3177 -0.1202
 8751TIP3   OH250447   6.612   6.193   2.259  0.6135 -0.4311 -0.0614
 8751TIP3    H150448   6.590   6.268   2.314  2.3938  0.4317 -0.4667
 8751TIP3    H250449   6.554   6.203   2.183 -1.2823 -1.1845  1.2007
 8752TIP3   OH250450   5.678   6.403   2.661 -0.5853 -0.2665 -0.9135
 8752TIP3    H150451   5.756   6.439   2.703 -1.4855 -0.2174  0.8263
 8752TIP3    H250452   5.683   6.309   2.678 -1.4902 -0.1222  0.3297
 8753TIP3   OH250453   2.094   1.624   1.300 -0.0114 -0.1514  0.1316
 8753TIP3    H150454   2.098   1.629   1.396 -0.1078 -0.0826  0.1322
 8753TIP3    H250455   2.110   1.714   1.271 -2.8485  0.4635  0.1760
 8754TIP3   OH250456   2.793   2.350   2.074 -0.3694  0.2945 -1.0165
 8754TIP3    H150457   2.727   2.373   2.008 -2.8788  2.1515  1.8576
 8754TIP3    H250458   2.802   2.429   2.127  0.3831 -1.5128  1.7480
 8755TIP3   OH250459   1.302   4.547   3.858 -0.0136 -0.0294 -0.7808
 8755TIP3    H150460   1.210   4.525   3.842  0.2247 -0.6819 -1.3044
 8755TIP3    H250461   1.337   4.471   3.906  0.4384 -0.1344 -1.2661
 8756TIP3   OH250462   3.679   0.016   2.720 -0.1018 -0.0928 -0.5218
 8756TIP3    H150463   3.623   0.093   2.730 -0.3523 -0.4038  0.6161
 8756TIP3    H250464   3.756   0.036   2.774 -1.5840 -1.9289  2.5675
 8757TIP3   OH250465   1.207   2.075   1.379  0.4154  0.4115 -0.3478
 8757TIP3    H150466   1.174   1.987   1.363 -1.4878  1.3038 -1.6137
 8757TIP3    H250467   1.129   2.130   1.384  1.6021  2.2798 -1.1187
 8758TIP3   OH250468   3.809   3.745   3.250 -0.2536  0.5025 -0.1222
 8758TIP3    H150469   3.795   3.696   3.331 -1.7211  0.1342 -0.5675
 8758TIP3    H250470   3.899   3.724   3.225  0.0751  0.2716  1.1624
 8759TIP3   OH250471   1.606   4.759   1.985  0.0349  0.2553  0.5016
 8759TIP3    H150472   1.644   4.792   1.904  2.4585 -0.2708  1.3251
 8759TIP3    H250473   1.593   4.665   1.970 -2.1932  0.6122 -0.1664
 8760TIP3   OH250474   0.651   3.976   3.232  0.4769 -0.5866  0.3964
 8760TIP3    H150475   0.577   4.035   3.217  1.0797  0.2747  0.6716
 8760TIP3    H250476   0.626   3.924   3.308 -0.2003 -0.9230 -0.0472
 8761TIP3   OH250477   5.885   0.332   3.550 -0.1688 -0.1201 -0.5468
 8761TIP3    H150478   5.902   0.377   3.633 -0.8654 -0.4611 -0.2118
 8761TIP3    H250479   5.969   0.332   3.505  0.0725  0.6215 -0.1126
 8762TIP3   OH250480   4.329   0.001   2.982  0.1492 -0.5968  0.3338
 8762TIP3    H150481   4.342  -0.074   3.040  0.9011 -2.2858 -1.8695
 8762TIP3    H250482   4.251  -0.022   2.930  0.1920  0.3022 -0.1535
 8763TIP3   OH250483   3.256   2.848   4.179 -0.2824  0.3783 -0.1637
 8763TIP3    H150484   3.302   2.833   4.096  1.2585  0.6284  0.6215
 8763TIP3    H250485   3.164   2.828   4.159  0.3411 -1.5163 -1.4197
 8764TIP3   OH250486   2.484   4.464   9.900 -0.5728 -0.8201  0.7504
 8764TIP3    H150487   2.537   4.505   9.968  1.3329 -0.9526 -0.5739
 8764TIP3    H250488   2.416   4.528   9.881 -0.1198 -0.0615  1.5850
 8765TIP3   OH250489   1.733   1.422   3.404 -0.3409  0.3055 -0.0424
 8765TIP3    H150490   1.692   1.508   3.397 -0.7489  0.3465  2.1072
 8765TIP3    H250491   1.805   1.434   3.466  1.8703 -0.1792 -2.3891
 8766TIP3   OH250492   2.950   2.592   1.558  0.0392  0.4190  0.5730
 8766TIP3    H150493   2.882   2.579   1.624 -1.1787  0.2836 -0.6648
 8766TIP3    H250494   2.924   2.534   1.486  1.9969 -0.3631  0.4388
 8767TIP3   OH250495   5.821   5.962   4.192 -0.1804 -0.4012  0.6054
 8767TIP3    H150496   5.772   5.940   4.113  0.0214  2.2127 -0.3587
 8767TIP3    H250497   5.754   5.973   4.259 -0.4976 -1.0463  0.4070
 8768TIP3   OH250498   1.150   3.177   1.664  1.0918 -0.2395  0.1754
 8768TIP3    H150499   1.191   3.188   1.750  0.8952  1.6615  0.0737
 8768TIP3    H250500   1.058   3.200   1.678  0.7115 -1.4457 -0.2397
 8769TIP3   OH250501   2.653   0.803   1.354  0.2030  0.3309  0.4020
 8769TIP3    H150502   2.704   0.748   1.413 -1.0117 -0.3318  0.8644
 8769TIP3    H250503   2.640   0.750   1.276 -0.8023  0.0169  0.7701
 8770TIP3   OH250504   4.418   6.028   0.793  0.2524 -0.0420  0.3354
 8770TIP3    H150505   4.366   6.109   0.799  0.7145  0.3313 -0.4707
 8770TIP3    H250506   4.362   5.961   0.830  0.6471  0.9864  3.0298
 8771TIP3   OH250507   1.060   3.374   0.580 -0.3046  0.1508 -0.5448
 8771TIP3    H150508   1.020   3.417   0.656  0.8187 -0.1547  0.2586
 8771TIP3    H250509   0.987   3.347   0.525 -1.1912 -0.2005  0.7626
 8772TIP3   OH250510   3.605   0.540   2.154  0.2597 -0.4699 -0.5393
 8772TIP3    H150511   3.612   0.527   2.060 -0.2963  0.0781 -0.6707
 8772TIP3    H250512   3.517   0.509   2.176 -1.6466  3.8050 -1.0788
 8773TIP3   OH250513   3.318   5.093   2.535 -0.0438 -0.9477  0.6329
 8773TIP3    H150514   3.266   5.026   2.492  1.8655 -2.5434  0.6435
 8773TIP3    H250515   3.408   5.062   2.526  0.9643  1.7591  0.4250
 8774TIP3   OH250516   4.476   4.501   1.092  0.0886  0.3162 -0.0280
 8774TIP3    H150517   4.483   4.574   1.153 -0.9993  1.7823 -1.5599
 8774TIP3    H250518   4.422   4.436   1.138 -1.0989  1.5778  0.4247
 8775TIP3   OH250519   6.512   6.264   3.568 -0.4500 -0.2328 -0.0340
 8775TIP3    H150520   6.567   6.206   3.515  0.6186  0.4309  0.3019
 8775TIP3    H250521   6.454   6.205   3.616 -1.1689 -0.8674 -1.6266
 8776TIP3   OH250522   3.178   4.151  12.422  0.0588  0.3755  0.3787
 8776TIP3    H150523   3.259   4.195  12.446 -0.3554  0.9607  0.7245
 8776TIP3    H250524   3.206   4.070  12.379  0.8203  0.6652  0.3254
 8777TIP3   OH250525   5.375   2.138   3.886  0.3665  0.0019  0.1050
 8777TIP3    H150526   5.426   2.078   3.941 -1.3363 -1.1047  0.5393
 8777TIP3    H250527   5.427   2.219   3.885  0.9948 -0.3100  2.4291
 8778TIP3   OH250528   5.192   1.222   3.999  0.2071  0.2555 -0.5863
 8778TIP3    H150529   5.283   1.190   3.996  0.7578  1.7901 -1.2579
 8778TIP3    H250530   5.176   1.237   4.092  0.1007 -1.4023 -0.2988
 8779TIP3   OH250531   5.841   1.777   2.902  0.0076  0.3413  0.2330
 8779TIP3    H150532   5.895   1.838   2.852  1.0489 -1.2015 -0.6013
 8779TIP3    H250533   5.873   1.783   2.992  0.7262  0.3594 -0.0231
 8780TIP3   OH250534   6.523   5.814   1.695  0.3488  0.2831  0.1292
 8780TIP3    H150535   6.591   5.862   1.743 -0.4360  0.0879  1.4815
 8780TIP3    H250536   6.455   5.796   1.761 -0.6088 -0.3043 -0.9828
 8781TIP3   OH250537   5.375   2.346   1.984 -0.1872 -0.4937  0.2846
 8781TIP3    H150538   5.282   2.370   1.977  0.2368  1.4315  0.6630
 8781TIP3    H250539   5.381   2.299   2.067 -0.7020  0.1490  0.7011
 8782TIP3   OH250540   3.767   6.094   1.633 -0.2882 -0.5980 -0.0645
 8782TIP3    H150541   3.838   6.119   1.574 -1.4265 -2.4916 -2.4431
 8782TIP3    H250542   3.695   6.153   1.610 -0.3367 -0.4927  0.3569
 8783TIP3   OH250543   4.741   6.455   0.667  1.3154 -0.5884 -0.1132
 8783TIP3    H150544   4.777   6.387   0.610 -0.1489 -1.3544 -0.1739
 8783TIP3    H250545   4.760   6.537   0.622  2.0105 -1.0336 -0.6563
 8784TIP3   OH250546   2.698   3.371   1.057  0.3328 -0.1953 -0.1490
 8784TIP3    H150547   2.778   3.343   1.012 -0.0527 -0.8631 -0.4337
 8784TIP3    H250548   2.710   3.343   1.148  0.6686  0.2256 -0.0616
 8785TIP3   OH250549   4.249   3.969   2.050 -0.3858 -0.2252  0.0854
 8785TIP3    H150550   4.248   3.874   2.059  2.4469 -0.2773  1.1033
 8785TIP3    H250551   4.202   3.987   1.968  0.1039 -2.6127 -0.7803
 8786TIP3   OH250552   6.105   1.043   1.376 -0.0910  0.9819  0.1749
 8786TIP3    H150553   6.119   1.082   1.462  0.0994  0.0327  0.5886
 8786TIP3    H250554   6.161   0.965   1.375 -2.0140 -0.4836  0.2152
 8787TIP3   OH250555   0.810   0.884   2.437  0.2177  0.4792  0.1172
 8787TIP3    H150556   0.877   0.824   2.471  0.4362  0.9965  0.6227
 8787TIP3    H250557   0.736   0.827   2.414  1.4529 -0.3241 -2.1505
 8788TIP3   OH250558   1.271   1.412   0.557 -0.0423 -0.0111 -0.4581
 8788TIP3    H150559   1.300   1.502   0.568 -0.3205  0.2599 -1.7910
 8788TIP3    H250560   1.187   1.407   0.605  0.5252  0.1000  0.5815
 8789TIP3   OH250561   5.696   5.713   3.799 -0.0854 -0.1090  0.0236
 8789TIP3    H150562   5.682   5.624   3.767  2.1464 -1.6825  2.8974
 8789TIP3    H250563   5.642   5.718   3.878  0.9996  0.4620  0.7591
 8790TIP3   OH250564   5.396   6.432   0.471 -0.6284 -0.1050 -0.3550
 8790TIP3    H150565   5.307   6.409   0.446 -0.4369 -0.1792 -0.9849
 8790TIP3    H250566   5.441   6.348   0.480 -0.4997 -0.0513 -0.4959
 8791TIP3   OH250567   0.878   2.062   1.282 -0.3706  0.2154 -0.1642
 8791TIP3    H150568   0.851   1.995   1.345 -0.1887  1.6617  1.5578
 8791TIP3    H250569   0.882   2.143   1.334  2.0753  1.0619 -1.5348
 8792TIP3   OH250570   5.020   1.343   2.929 -0.3466  0.0977  0.0291
 8792TIP3    H150571   5.067   1.297   2.860  0.2485  1.0529 -0.2171
 8792TIP3    H250572   4.938   1.295   2.938 -0.2574 -0.2800 -1.0537
 8793TIP3   OH250573   4.958   2.896   3.183  0.3576 -0.1596  1.1051
 8793TIP3    H150574   4.906   2.970   3.152  0.3996 -0.8099 -0.6356
 8793TIP3    H250575   5.048   2.917   3.158  0.2716 -1.1082 -0.0803
 8794TIP3   OH250576   5.277   3.789   2.340  0.3469 -0.5431 -0.4879
 8794TIP3    H150577   5.342   3.785   2.270  0.1089 -0.7838 -0.6959
 8794TIP3    H250578   5.224   3.866   2.319 -0.2293 -1.0849 -1.0156
 8795TIP3   OH250579   2.796   0.737   1.097  0.3308  0.2219 -0.5102
 8795TIP3    H150580   2.728   0.748   1.030 -1.3881 -1.8888  0.7049
 8795TIP3    H250581   2.871   0.702   1.049 -0.2440  0.4051 -1.5908
 8796TIP3   OH250582   0.264   3.743   3.478 -0.2288  0.1584 -0.2465
 8796TIP3    H150583   0.340   3.800   3.483 -0.3826  0.6524 -2.2808
 8796TIP3    H250584   0.189   3.799   3.499 -0.0583 -0.4819  2.4143
 8797TIP3   OH250585   5.905   6.289   3.014 -0.0905 -0.3383 -0.1912
 8797TIP3    H150586   5.908   6.345   2.936 -0.4234 -0.4641 -0.2923
 8797TIP3    H250587   5.815   6.296   3.045 -0.0669 -0.6221 -0.0587
 8798TIP3   OH250588   3.100   0.299   2.313  0.3129  0.1210  0.7015
 8798TIP3    H150589   3.105   0.267   2.403  0.0075 -2.6774 -0.1889
 8798TIP3    H250590   3.178   0.262   2.270  1.7030  3.2313  0.2292
 8799TIP3   OH250591   0.797   1.324   3.685  0.0179  0.1550  0.1168
 8799TIP3    H150592   0.876   1.295   3.639  0.3626 -1.3494  1.5569
 8799TIP3    H250593   0.822   1.324   3.777 -1.3650  0.6934  0.5108
 8800TIP3   OH250594   6.586   3.070   2.207  0.2778  0.2495 -0.1664
 8800TIP3    H150595   6.621   3.157   2.187  0.2358  0.5518  1.0346
 8800TIP3    H250596   6.640   3.010   2.156  1.5970  0.8248  0.5313
 8801TIP3   OH250597   2.594   4.772   0.587  0.4911 -0.1394  0.0961
 8801TIP3    H150598   2.641   4.842   0.633 -0.9631 -0.7594  2.7675
 8801TIP3    H250599   2.656   4.700   0.582  1.1906  0.4861 -0.3738
 8802TIP3   OH250600   1.955   3.129   2.131  0.0174  0.0321 -0.1387
 8802TIP3    H150601   1.997   3.169   2.207 -0.8948  0.1749  0.3001
 8802TIP3    H250602   1.896   3.064   2.167 -0.4727  0.1445 -0.7233
 8803TIP3   OH250603   4.565   1.215   1.474  0.1918 -0.4981 -0.1559
 8803TIP3    H150604   4.651   1.174   1.464  1.5453  2.4476 -1.8353
 8803TIP3    H250605   4.516   1.190   1.396 -0.3769 -1.8169  0.5916
 8804TIP3   OH250606   1.329   0.806   2.770  0.4293 -0.2268 -0.0963
 8804TIP3    H150607   1.374   0.764   2.843 -1.3840  1.3941  2.1025
 8804TIP3    H250608   1.337   0.900   2.788 -0.3589  0.2038 -1.8135
 8805TIP3   OH250609   6.530   5.725   3.523 -0.5202 -0.0145  0.2137
 8805TIP3    H150610   6.556   5.633   3.518  1.6249  0.5171  0.6446
 8805TIP3    H250611   6.451   5.731   3.470  0.1350 -1.8181 -1.0501
 8806TIP3   OH250612   6.046   4.855   1.712 -0.2644 -0.0635 -0.4823
 8806TIP3    H150613   6.035   4.950   1.721 -0.3242  0.0372 -1.4857
 8806TIP3    H250614   6.013   4.819   1.794  1.1114  0.8738  0.5229
 8807TIP3   OH250615   2.122   5.861   2.913  0.3633 -0.6091  0.3856
 8807TIP3    H150616   2.105   5.934   2.854  2.2894  0.4246  1.0225
 8807TIP3    H250617   2.058   5.794   2.888 -1.6953  1.3837  0.0130
 8808TIP3   OH250618   1.392   3.624   1.977 -0.3742  0.1347  0.1058
 8808TIP3    H150619   1.479   3.596   1.946 -0.5542 -0.7194  0.3558
 8808TIP3    H250620   1.330   3.578   1.920 -0.7105  2.9898 -2.0818
 8809TIP3   OH250621   0.352   4.048   1.764  0.0142 -0.4207  0.9500
 8809TIP3    H150622   0.268   4.019   1.728  0.4866 -0.7905  0.1023
 8809TIP3    H250623   0.374   4.126   1.713  0.1992 -0.3391  1.1525
 8810TIP3   OH250624   5.658   6.311   3.646  0.0117  0.2933 -0.1790
 8810TIP3    H150625   5.610   6.393   3.655  0.6548  0.5078  1.6718
 8810TIP3    H250626   5.733   6.333   3.591 -0.3614  0.6892 -0.5410
 8811TIP3   OH250627   3.819   3.691   3.636  0.6403 -0.1228 -0.0861
 8811TIP3    H150628   3.898   3.654   3.594  1.3672 -0.3360  1.4170
 8811TIP3    H250629   3.797   3.767   3.582  2.0102  0.0702 -0.4192
 8812TIP3   OH250630   6.270   4.707   1.788 -0.4148 -0.0586  0.4004
 8812TIP3    H150631   6.306   4.679   1.704 -0.2253  1.0401  0.1073
 8812TIP3    H250632   6.191   4.755   1.766 -0.4763  0.0580  0.8648
 8813TIP3   OH250633   5.569   5.631   2.520  0.1840  0.1105 -0.6870
 8813TIP3    H150634   5.612   5.628   2.434  0.0698  2.2825 -0.8782
 8813TIP3    H250635   5.586   5.720   2.552 -1.9038  0.1691  0.4259
 8814TIP3   OH250636   5.701   5.000   0.915  0.2671  0.2780  0.6056
 8814TIP3    H150637   5.616   5.042   0.898 -0.0502  0.3045  2.1773
 8814TIP3    H250638   5.765   5.061   0.877 -0.4139 -0.2540 -1.5680
 8815TIP3   OH250639   5.730   0.515   2.091 -0.2702  0.4657  0.0808
 8815TIP3    H150640   5.732   0.471   2.176  1.1856  0.6499  0.1634
 8815TIP3    H250641   5.770   0.452   2.031 -3.1163 -0.5347 -0.9619
 8816TIP3   OH250642   5.700   3.299   2.588 -0.3379 -0.7484  0.9859
 8816TIP3    H150643   5.617   3.325   2.627 -1.4114 -1.9945 -0.3639
 8816TIP3    H250644   5.704   3.204   2.602 -0.0019 -0.9765 -0.4949
 8817TIP3   OH250645   5.361   3.701   0.971  0.4296  0.3391 -0.2988
 8817TIP3    H150646   5.401   3.616   0.987  0.2465  0.6365  2.2040
 8817TIP3    H250647   5.295   3.710   1.040 -0.2110  2.1200 -1.0630
 8818TIP3   OH250648   1.199   2.889   1.586  0.0326  0.0221  0.1302
 8818TIP3    H150649   1.126   2.867   1.645  1.5503 -2.3026  1.2842
 8818TIP3    H250650   1.227   2.975   1.616 -2.6720  1.3673 -0.8727
 8819TIP3   OH250651   3.950   2.251   3.130 -0.3999  0.0795 -0.8296
 8819TIP3    H150652   3.969   2.240   3.223  3.1554  1.2654 -1.2884
 8819TIP3    H250653   4.005   2.187   3.086 -2.7309 -1.1321 -2.1879
 8820TIP3   OH250654   0.931   2.219   1.069  0.6995  0.0699 -0.1108
 8820TIP3    H150655   0.901   2.291   1.123  3.0051  0.8250  0.2503
 8820TIP3    H250656   0.927   2.142   1.126  0.8218  0.4268  0.3842
 8821TIP3   OH250657   5.993   3.043   2.714  0.8798 -0.0425 -0.4709
 8821TIP3    H150658   6.001   2.957   2.755  0.5023 -0.8143 -1.9252
 8821TIP3    H250659   6.073   3.053   2.663  0.1432 -0.3837 -1.7634
 8822TIP3   OH250660   4.426   6.221   3.635 -0.1516 -0.5210 -0.0316
 8822TIP3    H150661   4.518   6.217   3.610 -0.2446 -1.1569 -0.2954
 8822TIP3    H250662   4.421   6.171   3.716 -0.5097 -1.7376 -0.7890
 8823TIP3   OH250663   6.176   6.321   3.071  0.1597  0.2348 -0.4143
 8823TIP3    H150664   6.167   6.387   3.140 -0.1690  0.9666 -1.1397
 8823TIP3    H250665   6.087   6.310   3.038  0.2801 -0.2891 -0.5703
 8824TIP3   OH250666   6.143   5.197   0.889 -0.1145  0.6160 -0.4124
 8824TIP3    H150667   6.137   5.154   0.974 -0.3939  1.7688  0.1697
 8824TIP3    H250668   6.236   5.211   0.876  0.0111 -0.4583 -0.7752
 8825TIP3   OH250669   3.292   4.295   1.667 -0.2093 -0.0441 -0.3726
 8825TIP3    H150670   3.280   4.390   1.669  0.4533  0.0733 -1.2658
 8825TIP3    H250671   3.379   4.283   1.629  0.2964 -0.9775  0.9792
 8826TIP3   OH250672   0.472   0.781   2.961 -0.7756  0.1587 -0.5294
 8826TIP3    H150673   0.398   0.818   3.009 -0.0891  1.3911 -0.3799
 8826TIP3    H250674   0.441   0.774   2.871 -0.5535  2.2841 -0.8146
 8827TIP3   OH250675   3.650   2.485   2.003 -0.0633 -0.5055 -0.1484
 8827TIP3    H150676   3.715   2.473   1.934 -0.3394 -3.8407  0.0071
 8827TIP3    H250677   3.594   2.555   1.972  1.8965  0.4842 -1.6234
 8828TIP3   OH250678   2.707   5.441   3.588 -0.2308  0.6563  0.2747
 8828TIP3    H150679   2.772   5.383   3.627  2.2247  2.2663 -1.1234
 8828TIP3    H250680   2.688   5.506   3.656 -0.2163  0.2889  0.6307
 8829TIP3   OH250681   2.095   3.905   3.311 -0.0616  0.1725 -0.3844
 8829TIP3    H150682   2.117   3.963   3.384  0.5608 -1.6099  0.9243
 8829TIP3    H250683   2.120   3.818   3.342 -3.1710 -1.1767 -1.2826
 8830TIP3   OH250684   4.061   3.575   1.314 -0.1424 -0.1194  0.2586
 8830TIP3    H150685   4.122   3.649   1.319 -0.0765 -0.1458 -0.0896
 8830TIP3    H250686   4.106   3.503   1.358 -0.7326  0.3874  1.7404
 8831TIP3   OH250687   3.014   4.568   3.736 -0.4242  0.2969  0.5361
 8831TIP3    H150688   3.003   4.493   3.795  1.2372 -0.2879  0.1534
 8831TIP3    H250689   3.001   4.645   3.793 -1.2132 -0.2632  1.1346
 8832TIP3   OH250690   2.654   2.239   1.405  0.1079  0.2525  0.0291
 8832TIP3    H150691   2.668   2.187   1.326  2.0250 -0.2773  0.6520
 8832TIP3    H250692   2.672   2.329   1.377  2.6616 -0.1249  0.1920
 8833TIP3   OH250693   3.769   0.479   3.616 -0.2885 -0.4869 -0.2153
 8833TIP3    H150694   3.783   0.515   3.704  0.2261 -1.1290 -0.0255
 8833TIP3    H250695   3.674   0.482   3.604 -0.3673 -0.4341  0.3799
 8834TIP3   OH250696   0.726   0.771   1.988 -0.4135 -0.4940 -0.1810
 8834TIP3    H150697   0.645   0.821   1.996 -0.0843 -0.0732  0.6539
 8834TIP3    H250698   0.776   0.793   2.067  1.0490  0.1950 -1.2550
 8835TIP3   OH250699   2.326   6.236   0.593  0.0958 -0.2278 -0.6855
 8835TIP3    H150700   2.275   6.173   0.644 -1.1274  0.7236 -0.6780
 8835TIP3    H250701   2.369   6.184   0.526 -0.1415 -1.1840 -0.1074
 8836TIP3   OH250702   1.414   6.077   1.855  0.0638  0.6159 -0.1759
 8836TIP3    H150703   1.440   5.985   1.851 -1.2512  0.2735 -1.9066
 8836TIP3    H250704   1.435   6.104   1.945  2.6734 -0.6634 -0.3106
 8837TIP3   OH250705   1.741   3.380   2.068 -0.6545 -0.0012  0.2609
 8837TIP3    H150706   1.741   3.326   2.147 -0.5329 -1.5730 -0.7800
 8837TIP3    H250707   1.818   3.351   2.019 -1.6354 -0.2474 -1.2063
 8838TIP3   OH250708   3.790   2.244   0.637  0.0547  0.0638  0.3595
 8838TIP3    H150709   3.743   2.162   0.652  1.2181 -0.7779 -0.3562
 8838TIP3    H250710   3.730   2.312   0.665 -1.1531 -1.0150  0.4792
 8839TIP3   OH250711   6.296   4.736   3.942  0.0897 -0.0502 -0.3067
 8839TIP3    H150712   6.205   4.720   3.967 -0.0689 -0.4922 -1.1311
 8839TIP3    H250713   6.305   4.831   3.943 -0.6952  0.0516 -1.2439
 8840TIP3   OH250714   5.705   0.725   0.744 -0.5091 -0.5946 -0.0963
 8840TIP3    H150715   5.749   0.797   0.789 -0.0596 -0.1030 -1.2770
 8840TIP3    H250716   5.616   0.758   0.728 -0.5671 -0.6414  0.1219
 8841TIP3   OH250717   3.476   0.703   1.103 -0.7467  0.1897  0.2542
 8841TIP3    H150718   3.544   0.637   1.090  0.4063  1.2346  0.8107
 8841TIP3    H250719   3.424   0.701   1.023  0.8986  0.4538 -0.8648
 8842TIP3   OH250720   2.774   0.168   1.013 -0.3012 -0.1943  0.3806
 8842TIP3    H150721   2.758   0.250   1.060  0.2252  0.4906 -0.5973
 8842TIP3    H250722   2.770   0.100   1.081  1.5761  0.8703  1.6217
 8843TIP3   OH250723   1.828   2.289   3.270 -0.3559 -0.0402  0.1906
 8843TIP3    H150724   1.845   2.359   3.207 -0.1660 -0.7438 -0.5656
 8843TIP3    H250725   1.857   2.324   3.354  0.8511  0.3693 -0.3737
 8844TIP3   OH250726   2.514   3.639   1.134 -0.4518  0.3260  0.0096
 8844TIP3    H150727   2.525   3.702   1.205  0.1010  0.8606 -0.5445
 8844TIP3    H250728   2.594   3.587   1.134 -1.6988 -1.8220  1.8023
 8845TIP3   OH250729   0.844   4.181   3.324 -0.3003 -0.1012  0.2210
 8845TIP3    H150730   0.823   4.090   3.342 -0.8345 -0.2695 -1.1306
 8845TIP3    H250731   0.881   4.181   3.236  2.0656  0.6855  1.1380
 8846TIP3   OH250732   0.400   1.627   0.413 -0.4858 -0.2998 -0.3433
 8846TIP3    H150733   0.351   1.700   0.375  0.1083  0.9044  1.0888
 8846TIP3    H250734   0.491   1.644   0.388 -0.3336 -0.4787  0.0738
 8847TIP3   OH250735   3.491   3.072   2.087 -0.1303 -0.1611 -0.0751
 8847TIP3    H150736   3.410   3.079   2.037  0.1075  1.1304 -0.3149
 8847TIP3    H250737   3.538   2.999   2.047 -0.4213  0.1733 -1.0527
 8848TIP3   OH250738   4.465   2.031   3.702  0.3642 -0.6185 -0.1609
 8848TIP3    H150739   4.531   1.979   3.748 -0.6810  0.2928  2.5149
 8848TIP3    H250740   4.384   1.980   3.710 -0.1350  0.2380  0.2955
 8849TIP3   OH250741   0.583   6.217   4.861 -0.0827 -0.3305  0.2771
 8849TIP3    H150742   0.595   6.162   4.939 -0.3121 -0.0371  0.5257
 8849TIP3    H250743   0.624   6.168   4.790 -0.8960 -1.1599  0.3583
 8850TIP3   OH250744   5.113   4.165   1.401  0.6288  0.1738 -0.0129
 8850TIP3    H150745   5.119   4.235   1.336  0.5828  1.7426  1.5636
 8850TIP3    H250746   5.025   4.131   1.392  1.1702 -0.8732 -1.9061
 8851TIP3   OH250747   0.022   1.970   0.559  0.1761 -0.0440 -0.3045
 8851TIP3    H150748   0.090   1.949   0.623  0.3645 -0.8477 -0.7504
 8851TIP3    H250749  -0.003   2.060   0.579  1.2151  0.1880  0.0137
 8852TIP3   OH250750   5.470   1.214   1.398 -0.1063  0.5597  0.4200
 8852TIP3    H150751   5.414   1.141   1.424  0.8318 -0.7138 -0.9476
 8852TIP3    H250752   5.469   1.273   1.473 -0.9568 -0.8254  1.5488
 8853TIP3   OH250753   1.590   0.287   3.147 -0.1233 -0.2697  0.1219
 8853TIP3    H150754   1.555   0.202   3.172 -0.4876  0.0483  0.7100
 8853TIP3    H250755   1.661   0.303   3.210 -0.2614 -0.0029  0.2141
 8854TIP3   OH250756   3.072   6.079   3.926 -0.6269  0.1902 -0.1394
 8854TIP3    H150757   3.159   6.081   3.886 -0.6993 -1.7674 -0.5213
 8854TIP3    H250758   3.077   6.142   3.998  1.2597 -0.2184  0.1401
 8855TIP3   OH250759   0.994   0.696   1.282 -0.1888 -0.1667 -0.5003
 8855TIP3    H150760   0.929   0.625   1.281  0.2519 -0.5756 -0.8036
 8855TIP3    H250761   0.992   0.731   1.193  0.9284 -1.0594 -0.9125
 8856TIP3   OH250762   0.583   5.437   0.927  0.0612  0.4515 -0.7442
 8856TIP3    H150763   0.551   5.372   0.990 -2.5886  0.1273 -2.2785
 8856TIP3    H250764   0.633   5.387   0.863  0.3990  0.3579 -0.4075
 8857TIP3   OH250765   4.702   2.337   2.115 -0.3811  0.3586  0.5036
 8857TIP3    H150766   4.653   2.312   2.037  1.2064  0.5008 -0.5993
 8857TIP3    H250767   4.636   2.353   2.182 -1.6639 -2.5741  0.0562
 8858TIP3   OH250768   5.322   3.109   1.730 -0.2126 -0.3477 -0.4528
 8858TIP3    H150769   5.383   3.083   1.799 -0.1996 -0.8826 -0.6562
 8858TIP3    H250770   5.313   3.030   1.676 -0.8622 -0.1851 -0.5864
 8859TIP3   OH250771   3.739   3.616   2.409 -0.1191 -0.1115 -0.1218
 8859TIP3    H150772   3.651   3.583   2.391 -0.2530 -0.3236  0.8309
 8859TIP3    H250773   3.724   3.704   2.443  0.0084 -0.2395  0.2751
 8860TIP3   OH250774   2.583   2.682   0.898 -0.4562 -0.1115 -0.3248
 8860TIP3    H150775   2.570   2.769   0.861  1.6335  0.2664 -0.2526
 8860TIP3    H250776   2.672   2.658   0.874  0.9513 -0.0549  3.9044
 8861TIP3   OH250777   1.029   3.957   3.687  0.5020  0.0742 -0.1061
 8861TIP3    H150778   1.034   3.922   3.598  2.9496  3.0670 -1.3447
 8861TIP3    H250779   0.948   4.007   3.690 -0.4717 -1.4761 -0.0142
 8862TIP3   OH250780   3.202   3.241   2.592 -0.0859 -0.1329  1.0296
 8862TIP3    H150781   3.164   3.240   2.679  0.1872 -1.6305  1.1594
 8862TIP3    H250782   3.253   3.322   2.589  0.1315 -0.1964  2.3606
 8863TIP3   OH250783   5.028   4.543   1.484 -0.9401 -0.5777  0.2738
 8863TIP3    H150784   4.956   4.568   1.426 -0.8386 -1.7848 -0.4169
 8863TIP3    H250785   5.095   4.507   1.425  0.0445  0.0763  0.9484
 8864TIP3   OH250786   1.967   5.261   1.181  0.3956 -0.6085  0.2927
 8864TIP3    H150787   1.985   5.205   1.256  1.6233  0.3611  0.7526
 8864TIP3    H250788   2.039   5.325   1.180  0.0131 -0.1505 -1.2759
 8865TIP3   OH250789   4.843   0.791   2.240 -0.0468  0.0749 -0.3014
 8865TIP3    H150790   4.853   0.781   2.335 -0.4978  0.8718 -0.1596
 8865TIP3    H250791   4.836   0.702   2.207 -0.4232 -0.1944  0.4744
 8866TIP3   OH250792   3.435   6.078   2.668  0.3030  0.4667  0.3144
 8866TIP3    H150793   3.397   5.993   2.689  0.7077  0.2064  0.0057
 8866TIP3    H250794   3.388   6.140   2.724 -1.1974  0.2833 -0.7054
 8867TIP3   OH250795   5.464   6.377   4.518  0.0795 -0.3682  0.1850
 8867TIP3    H150796   5.493   6.342   4.602 -1.8201 -1.2831  0.5048
 8867TIP3    H250797   5.465   6.302   4.459 -0.8960 -0.2627  0.0209
 8868TIP3   OH250798   1.093   5.556   2.209 -0.0449  0.4172  0.2130
 8868TIP3    H150799   1.060   5.479   2.163 -1.1633  2.1260 -2.0186
 8868TIP3    H250800   1.154   5.597   2.148  0.8312  1.1289  1.5078
 8869TIP3   OH250801   0.851   5.259   1.054  0.4206 -0.2630  0.1813
 8869TIP3    H150802   0.870   5.350   1.035  0.3813 -0.0942  0.9301
 8869TIP3    H250803   0.927   5.211   1.022  0.1955 -0.0291 -0.7196
 8870TIP3   OH250804   6.260   5.500   2.351 -0.3111 -0.3159 -0.0818
 8870TIP3    H150805   6.254   5.596   2.350 -1.0327 -0.3413 -1.7758
 8870TIP3    H250806   6.341   5.482   2.397  1.1702  1.2392 -1.8873
 8871TIP3   OH250807   6.527   5.830   3.172  0.0909 -0.3165  0.3968
 8871TIP3    H150808   6.491   5.916   3.194  0.2125  0.0585 -0.7953
 8871TIP3    H250809   6.482   5.769   3.230  0.3025  0.5992  1.5392
 8872TIP3   OH250810   5.579   2.167   3.627  0.2697  0.4300 -0.1813
 8872TIP3    H150811   5.548   2.202   3.544  1.4174  0.8195 -0.4665
 8872TIP3    H250812   5.596   2.244   3.681  1.1016  0.2593 -0.1832
 8873TIP3   OH250813   5.968   5.547   1.839  0.2142  0.0991 -0.2863
 8873TIP3    H150814   5.911   5.578   1.769 -1.8199 -0.0349  1.2141
 8873TIP3    H250815   5.934   5.460   1.861  1.5239 -0.3370  0.1461
 8874TIP3   OH250816   3.307   0.602   2.563 -0.3764  0.3663  0.0817
 8874TIP3    H150817   3.277   0.635   2.478 -2.3189 -0.7671  0.2730
 8874TIP3    H250818   3.312   0.679   2.619 -3.3668  0.6625  0.1061
 8875TIP3   OH250819   5.241   5.180   3.997 -0.1198 -0.0704  0.1153
 8875TIP3    H150820   5.316   5.168   4.055 -1.9560 -1.5558  2.3604
 8875TIP3    H250821   5.221   5.092   3.965 -0.9019  0.3036 -0.4590
 8876TIP3   OH250822   1.232   2.906   2.725 -0.1001  0.0199  0.5924
 8876TIP3    H150823   1.326   2.889   2.719 -0.3468 -2.1607  2.0379
 8876TIP3    H250824   1.192   2.843   2.665 -0.7846 -1.3199  2.3860
 8877TIP3   OH250825   1.627   4.987   2.200 -0.2259 -0.1301 -0.1689
 8877TIP3    H150826   1.640   4.908   2.252  0.0806 -0.5322 -0.8571
 8877TIP3    H250827   1.556   4.965   2.139  0.1233 -0.0090 -0.6239
 8878TIP3   OH250828   3.843   2.071   1.790 -0.2881  0.2402  0.0810
 8878TIP3    H150829   3.815   2.108   1.705 -1.3246 -1.1248 -0.2020
 8878TIP3    H250830   3.923   2.023   1.770 -1.4770 -1.5733 -0.5327
 8879TIP3   OH250831   5.590   1.643   3.269  0.1990 -0.0439  0.5781
 8879TIP3    H150832   5.617   1.563   3.225 -1.5917 -0.1493 -0.4208
 8879TIP3    H250833   5.512   1.619   3.318 -1.8403  1.5608 -1.6966
 8880TIP3   OH250834   1.808   1.294   2.142 -0.7321 -0.3003  0.4501
 8880TIP3    H150835   1.787   1.309   2.234 -1.9128 -1.4901  0.4066
 8880TIP3    H250836   1.741   1.233   2.112 -0.4046  0.1164 -1.2254
 8881TIP3   OH250837   1.188   1.795   1.330 -0.1839  0.0337  0.0839
 8881TIP3    H150838   1.195   1.699   1.330 -0.6835 -0.0411  1.9399
 8881TIP3    H250839   1.111   1.813   1.278 -1.4379 -0.7638  1.5655
 8882TIP3   OH250840   2.893   6.068   3.431  0.4410  0.1721  0.1836
 8882TIP3    H150841   2.900   6.069   3.527  0.9035  2.0566  0.1724
 8882TIP3    H250842   2.916   6.157   3.405 -1.1051  0.1046 -1.5906
 8883TIP3   OH250843   6.417   5.486   0.864 -0.4499  0.0743 -0.3727
 8883TIP3    H150844   6.374   5.490   0.949  0.5894  1.0995  0.1221
 8883TIP3    H250845   6.384   5.563   0.817 -0.3796 -0.0304 -0.5946
 8884TIP3   OH250846   6.158   0.356   0.785  0.0255  0.2300 -0.4277
 8884TIP3    H150847   6.244   0.398   0.772  0.9385 -1.2045  0.6393
 8884TIP3    H250848   6.123   0.346   0.696  1.8715 -0.9406 -1.0924
 8885TIP3   OH250849   3.656   1.104   0.931  0.1600 -0.1623  0.2206
 8885TIP3    H150850   3.614   1.154   1.001 -2.1750 -1.1649 -0.3633
 8885TIP3    H250851   3.704   1.169   0.879 -1.0078  1.1215  0.7143
 8886TIP3   OH250852   4.615   5.725   1.653  0.0484  0.5506  0.5444
 8886TIP3    H150853   4.618   5.805   1.601  1.5156  0.5001  0.5070
 8886TIP3    H250854   4.622   5.754   1.743  0.1496  0.4979  0.5545
 8887TIP3   OH250855   6.552   5.738   2.675 -0.6561  0.0406 -0.3549
 8887TIP3    H150856   6.614   5.752   2.604  0.2215 -1.1849  0.1483
 8887TIP3    H250857   6.582   5.796   2.745  2.0831 -2.9001  1.1709
 8888TIP3   OH250858   2.357   4.653   2.319 -0.7330  0.1802  0.4863
 8888TIP3    H150859   2.283   4.684   2.268 -0.5744  0.7216  0.5782
 8888TIP3    H250860   2.351   4.558   2.316  0.0736  0.1345 -1.7448
 8889TIP3   OH250861   6.082   1.062   3.463  0.1812 -0.4839 -0.1877
 8889TIP3    H150862   6.150   1.072   3.530  0.3845  0.7049 -0.5472
 8889TIP3    H250863   6.013   1.124   3.489 -0.2554 -0.8592 -0.4466
 8890TIP3   OH250864   0.117   4.072   0.768 -0.1323  0.0317 -0.0763
 8890TIP3    H150865   0.086   4.037   0.851  0.8282  0.3997  0.4484
 8890TIP3    H250866   0.201   4.029   0.753  0.2757  0.8717 -0.2525
 8891TIP3   OH250867   4.851   6.148   3.347  0.0045 -0.1904  0.7202
 8891TIP3    H150868   4.888   6.061   3.360  1.3647  0.0270 -1.2032
 8891TIP3    H250869   4.773   6.133   3.293  2.6545 -0.0713 -3.6290
 8892TIP3   OH250870   3.759   4.655   1.849  0.0694  0.0320  0.6033
 8892TIP3    H150871   3.850   4.663   1.822 -0.8149 -1.1440 -3.2740
 8892TIP3    H250872   3.727   4.746   1.852  0.5340  0.3192 -1.5727
 8893TIP3   OH250873   2.343   4.623   1.943  0.1219 -0.5550  0.5050
 8893TIP3    H150874   2.257   4.582   1.953 -0.2346 -0.1677 -0.7788
 8893TIP3    H250875   2.328   4.715   1.963  0.1603 -0.4230 -0.0703
 8894TIP3   OH250876   2.589   2.554   3.576 -0.0788 -0.4228  0.1621
 8894TIP3    H150877   2.512   2.549   3.633 -0.6593 -1.7963 -0.6881
 8894TIP3    H250878   2.627   2.466   3.580  0.3641 -0.2920 -0.8660
 8895TIP3   OH250879   1.116   5.675   3.843  0.2972  0.6557 -0.2498
 8895TIP3    H150880   1.177   5.602   3.835 -0.7800 -0.0634 -3.5447
 8895TIP3    H250881   1.088   5.673   3.934  1.3252 -2.2027  0.1155
 8896TIP3   OH250882   2.123   4.476   1.985 -0.2578 -0.2567 -0.4024
 8896TIP3    H150883   2.096   4.398   2.032  0.6841 -0.6103 -0.4122
 8896TIP3    H250884   2.120   4.450   1.893  0.3587 -0.3918 -0.3890
 8897TIP3   OH250885   6.123   1.768   3.684  0.1376  0.0985  0.2119
 8897TIP3    H150886   6.047   1.775   3.741 -0.2252  1.9195 -0.4238
 8897TIP3    H250887   6.191   1.820   3.727  0.1109  0.8327 -0.6151
 8898TIP3   OH250888   5.664   3.234   2.091  0.3320  0.0014 -0.5278
 8898TIP3    H150889   5.600   3.272   2.031  0.3221 -0.0575 -0.5544
 8898TIP3    H250890   5.743   3.288   2.080  0.1641  0.3127 -0.2119
 8899TIP3   OH250891   3.803   0.835   3.244  0.7072 -0.3782  0.3769
 8899TIP3    H150892   3.799   0.861   3.336 -0.4796  0.2475  0.1673
 8899TIP3    H250893   3.812   0.740   3.247  2.0414 -0.2460  1.1357
 8900TIP3   OH250894   6.453   5.592   2.145 -0.2922 -0.3759 -0.0294
 8900TIP3    H150895   6.509   5.561   2.216 -1.3899  1.7903  1.9202
 8900TIP3    H250896   6.372   5.542   2.155 -0.8859  0.7499  1.0798
 8901TIP3   OH250897   5.926   0.443   0.891  0.0961  0.6040  0.2863
 8901TIP3    H150898   5.999   0.390   0.861  2.0462  1.7038  2.7951
 8901TIP3    H250899   5.947   0.531   0.861 -1.7796  0.5093 -1.5346
 8902TIP3   OH250900   1.105   4.826   2.300  0.2988 -0.7129 -0.2222
 8902TIP3    H150901   1.085   4.881   2.225  0.8016 -1.0629 -0.6149
 8902TIP3    H250902   1.139   4.745   2.262  1.7455 -0.4189  0.4124
 8903TIP3   OH250903   6.372   5.842   1.096 -0.1339 -0.0003  0.3501
 8903TIP3    H150904   6.445   5.897   1.124 -0.1209  0.6235 -0.8520
 8903TIP3    H250905   6.360   5.863   1.004 -1.0192 -1.0287  0.2112
 8904TIP3   OH250906   3.459   2.483   3.969 -0.4127 -0.4479 -0.0764
 8904TIP3    H150907   3.541   2.532   3.967  0.0361 -1.2135 -1.7969
 8904TIP3    H250908   3.391   2.550   3.954 -0.1315  0.1649  1.2216
 8905TIP3   OH250909   4.729   3.613   2.640  0.0440 -0.3577  0.1364
 8905TIP3    H150910   4.667   3.609   2.713 -1.5823 -0.7788 -1.1828
 8905TIP3    H250911   4.679   3.581   2.565  1.8987 -0.7009 -1.0173
 8906TIP3   OH250912   1.383   1.623   2.552 -0.9110  0.3415 -0.2641
 8906TIP3    H150913   1.349   1.630   2.641 -0.5784 -0.3401 -0.0768
 8906TIP3    H250914   1.360   1.534   2.524 -0.1414  0.2093 -0.4916
 8907TIP3   OH250915   2.514   3.926   0.838 -0.2691 -0.3906 -0.2141
 8907TIP3    H150916   2.563   4.006   0.820 -0.2080 -0.4610 -0.3641
 8907TIP3    H250917   2.491   3.932   0.931  0.6841 -0.7163  0.0501
 8908TIP3   OH250918   5.954   0.259   2.939  0.1556  0.7267 -0.1223
 8908TIP3    H150919   5.909   0.267   2.855  1.3207  0.6276 -0.7718
 8908TIP3    H250920   5.884   0.257   3.004 -0.8619 -0.9159 -1.2039
 8909TIP3   OH250921   1.412   5.408   2.172  0.3215 -0.1717  0.0528
 8909TIP3    H150922   1.413   5.454   2.256  0.4559 -1.4007  0.7462
 8909TIP3    H250923   1.500   5.370   2.165  0.8971  1.3354 -1.4722
 8910TIP3   OH250924   5.274   5.375   0.987  0.0946  0.0600  0.4217
 8910TIP3    H150925   5.182   5.397   1.006 -0.6284 -1.6511 -0.8655
 8910TIP3    H250926   5.273   5.342   0.897  1.4798 -2.5847  1.2731
 8911TIP3   OH250927   5.209   3.700   2.007  0.4543 -0.0405 -0.1579
 8911TIP3    H150928   5.254   3.766   1.954  0.2164  0.4230  0.2143
 8911TIP3    H250929   5.170   3.641   1.942 -1.0001  1.2942 -0.5757
 8912TIP3   OH250930   3.598   3.833   3.102 -0.4951  0.4031  0.8062
 8912TIP3    H150931   3.654   3.797   3.171  1.0543  0.2490 -0.4627
 8912TIP3    H250932   3.647   3.908   3.069 -0.4065 -0.4725 -1.1907
 8913TIP3   OH250933   0.881   5.640   2.373 -0.5417 -0.2019  0.3893
 8913TIP3    H150934   0.940   5.643   2.298 -2.2698  1.3975 -0.9893
 8913TIP3    H250935   0.922   5.577   2.433  3.1983  1.7232  0.1071
 8914TIP3   OH250936   0.572   4.640   0.946 -0.0568  0.3613  0.4636
 8914TIP3    H150937   0.636   4.613   0.880 -1.1714  0.1138 -0.5530
 8914TIP3    H250938   0.611   4.717   0.987  1.9058 -1.0732  1.4536
 8915TIP3   OH250939   4.200   0.691   1.733 -0.1978 -0.0163  0.0725
 8915TIP3    H150940   4.266   0.723   1.795 -1.4419  0.1925  1.3292
 8915TIP3    H250941   4.243   0.696   1.648  0.9740  1.3475  0.7069
 8916TIP3   OH250942   5.092   4.196   0.550 -0.0841  0.0150 -0.2663
 8916TIP3    H150943   5.183   4.167   0.537  0.8473  3.0887 -1.5295
 8916TIP3    H250944   5.096   4.252   0.628 -1.0820 -0.4440  0.1238
 8917TIP3   OH250945   6.538   5.838   3.924 -0.1437 -0.8916  0.0226
 8917TIP3    H150946   6.563   5.884   3.844 -0.4706 -0.0578  0.3886
 8917TIP3    H250947   6.465   5.889   3.959  0.7186 -0.5910  1.4507
 8918TIP3   OH250948   0.813   5.151   3.038  0.6623  0.1691  0.4824
 8918TIP3    H150949   0.733   5.192   3.005  0.6201 -0.3210 -0.0437
 8918TIP3    H250950   0.784   5.092   3.107  0.4359 -0.7727 -0.3913
 8919TIP3   OH250951   5.659   0.689   3.458  0.2511  0.5099  0.1361
 8919TIP3    H150952   5.645   0.627   3.529 -0.4442 -1.8034 -1.8821
 8919TIP3    H250953   5.745   0.666   3.422 -0.7963 -0.6079 -1.7907
 8920TIP3   OH250954   5.562   4.389   0.962  0.1829 -0.3973 -0.4412
 8920TIP3    H150955   5.647   4.433   0.972 -0.1607  0.2694 -0.4410
 8920TIP3    H250956   5.580   4.298   0.986  0.7940 -0.1592  0.0373
 8921TIP3   OH250957   3.167   2.742   1.646  0.0128 -0.7630  0.2619
 8921TIP3    H150958   3.103   2.677   1.616  0.0201 -1.0235  0.8036
 8921TIP3    H250959   3.114   2.810   1.688 -0.1348  0.3353 -1.5748
 8922TIP3   OH250960   4.383   0.178   3.561  0.3533  0.3968  0.0754
 8922TIP3    H150961   4.452   0.127   3.517  0.7304  0.5881  0.4362
 8922TIP3    H250962   4.392   0.266   3.525 -1.1672 -0.0626 -1.5490
 8923TIP3   OH250963   2.689   1.739   1.079 -0.0390  0.1821  0.4746
 8923TIP3    H150964   2.700   1.795   1.001  0.1864  1.6027  1.4814
 8923TIP3    H250965   2.600   1.758   1.109  0.1424  0.2366  0.9884
 8924TIP3   OH250966   0.091   5.319   2.575  0.7173 -0.5031  0.2877
 8924TIP3    H150967   0.035   5.317   2.652  0.2954  0.7845  0.0461
 8924TIP3    H250968   0.148   5.395   2.590 -0.4779  0.8096 -1.3789
 8925TIP3   OH250969   0.701   4.464   2.414 -0.1085  0.2819  0.0498
 8925TIP3    H150970   0.710   4.559   2.407 -0.1807  0.2375 -0.7342
 8925TIP3    H250971   0.621   4.444   2.366  1.1822 -0.4264 -1.9417
 8926TIP3   OH250972   5.645   3.356   3.589  0.0404  0.5219  0.0180
 8926TIP3    H150973   5.575   3.294   3.568 -2.5114  3.1098  0.2078
 8926TIP3    H250974   5.656   3.349   3.684 -1.8830  1.8079  0.4028
 8927TIP3   OH250975   6.043   2.403   3.610 -0.0664 -0.4229  0.3531
 8927TIP3    H150976   6.097   2.479   3.590  0.0631 -0.6979 -0.3675
 8927TIP3    H250977   5.953   2.436   3.607  0.0474  0.0674  1.7001
 8928TIP3   OH250978   5.697   0.003   1.383 -0.7369 -0.0439  0.0626
 8928TIP3    H150979   5.622   0.061   1.399  0.8492  2.2307 -0.2704
 8928TIP3    H250980   5.720   0.018   1.291 -1.0099 -2.1750 -0.3905
 8929TIP3   OH250981   4.993   4.405   3.656 -0.2923 -0.0597  0.0140
 8929TIP3    H150982   4.952   4.484   3.690 -1.3212 -0.6096  0.1088
 8929TIP3    H250983   5.009   4.424   3.563 -0.4482  0.2945  0.0578
 8930TIP3   OH250984   4.690   5.303   3.111 -0.3223  0.0214 -0.6705
 8930TIP3    H150985   4.728   5.344   3.034  1.3351 -2.3659 -1.2500
 8930TIP3    H250986   4.686   5.210   3.090 -1.3141 -0.5129  1.5305
 8931TIP3   OH250987   6.026   0.430   4.082 -0.0069 -0.2243  0.1953
 8931TIP3    H150988   6.108   0.402   4.121  1.3210  1.1710 -1.4517
 8931TIP3    H250989   5.999   0.506   4.134  1.4476  1.2670 -1.1366
 8932TIP3   OH250990   2.838   2.672   2.565  0.5056 -0.1869 -0.4519
 8932TIP3    H150991   2.914   2.616   2.583  1.3208  0.7827 -0.8067
 8932TIP3    H250992   2.862   2.721   2.486 -0.6940 -0.2146 -0.8587
 8933TIP3   OH250993   0.328   4.731   2.075  0.9439  0.0811 -0.0169
 8933TIP3    H150994   0.244   4.762   2.041  0.7408  1.1835  1.3796
 8933TIP3    H250995   0.317   4.636   2.084 -0.0158  0.1599 -0.2354
 8934TIP3   OH250996   1.084   0.437   0.600  0.3493 -0.0801  0.1626
 8934TIP3    H150997   1.127   0.502   0.543 -0.5786 -0.5268 -1.0876
 8934TIP3    H250998   1.150   0.416   0.666  1.5984  0.1935 -0.9599
 8935TIP3   OH250999   6.516   0.147   3.092  0.3909  0.3547  0.0786
 8935TIP3    H151000   6.466   0.135   3.173  1.5802 -1.7648  0.5957
 8935TIP3    H251001   6.449   0.153   3.023 -0.6319  1.7218  1.1447
 8936TIP3   OH251002   6.562   4.341   1.972 -0.5406  0.6431 -0.4493
 8936TIP3    H151003   6.573   4.414   2.033  1.6120  1.2903 -1.5358
 8936TIP3    H251004   6.570   4.380   1.885  1.0866 -0.9104 -1.0521
 8937TIP3   OH251005   1.554   1.058   4.552  0.0222 -0.3023 -0.2513
 8937TIP3    H151006   1.571   1.126   4.487  0.1654 -1.0139 -0.9722
 8937TIP3    H251007   1.510   0.989   4.503 -2.0476  0.1261  0.8810
 8938TIP3   OH251008   0.896   5.770   2.039 -0.1898 -0.2646 -0.2882
 8938TIP3    H151009   0.807   5.738   2.028 -0.2914  0.7974 -3.6758
 8938TIP3    H251010   0.946   5.725   1.971  1.9744 -0.9508  1.6330
 8939TIP3   OH251011   6.405   6.000   3.702  0.2548 -0.6468  0.2517
 8939TIP3    H151012   6.315   5.977   3.725  1.1239 -3.2933  1.3445
 8939TIP3    H251013   6.423   5.949   3.624  0.6225  0.3792 -0.3434
 8940TIP3   OH251014   1.028   3.176   3.467 -0.5148 -0.5241  0.6538
 8940TIP3    H151015   0.991   3.148   3.550  1.0750  0.1428  1.6288
 8940TIP3    H251016   1.099   3.236   3.491 -0.1242 -0.1908 -1.1822
 8941TIP3   OH251017   5.725   0.517   2.495 -0.7247  0.3522  0.1772
 8941TIP3    H151018   5.665   0.592   2.492 -0.4921  0.5592  0.6263
 8941TIP3    H251019   5.671   0.442   2.471 -0.7815  0.7715 -1.1325
 8942TIP3   OH251020   5.795   5.919   0.824  0.3817 -0.0653 -0.0767
 8942TIP3    H151021   5.769   5.889   0.737  0.3384 -0.3572  0.0369
 8942TIP3    H251022   5.889   5.903   0.828  0.3741 -0.1049 -0.0499
 8943TIP3   OH251023   4.046   3.915   2.992 -0.2149  0.3339 -0.1845
 8943TIP3    H151024   4.011   3.847   2.934 -0.8915 -0.6869  1.3467
 8943TIP3    H251025   3.968   3.962   3.022  0.3301  2.8554 -2.3875
 8944TIP3   OH251026   2.781   6.467   2.062  0.3318  0.3714  0.4105
 8944TIP3    H151027   2.754   6.438   1.975 -0.4652  2.7816 -0.2318
 8944TIP3    H251028   2.867   6.507   2.047  1.6233 -1.8782  1.3506
 8945TIP3   OH251029   3.593   1.091   3.370 -0.0236 -0.1729  0.0363
 8945TIP3    H151030   3.567   1.008   3.410 -2.4082  1.2205  1.6288
 8945TIP3    H251031   3.671   1.118   3.418  0.5856 -1.2957 -0.2832
 8946TIP3   OH251032   5.168   0.824   3.279 -0.1837 -0.1366 -0.6584
 8946TIP3    H151033   5.104   0.754   3.269  0.4246 -1.0470  1.2536
 8946TIP3    H251034   5.252   0.778   3.287  0.3144  0.8432 -0.0576
 8947TIP3   OH251035   2.662   4.105   2.841  0.0698 -0.4254  0.1752
 8947TIP3    H151036   2.757   4.100   2.830  0.0990  1.4519 -0.8921
 8947TIP3    H251037   2.644   4.055   2.921  1.7957 -1.7630 -0.2231
 8948TIP3   OH251038   4.854   2.662   4.392 -0.1214 -0.5786 -0.0490
 8948TIP3    H151039   4.818   2.750   4.381 -0.0937 -0.7831 -2.4022
 8948TIP3    H251040   4.781   2.610   4.423 -0.0764  0.2811  1.6185
 8949TIP3   OH251041   3.454   1.519   2.270  0.4171  0.0715 -0.0195
 8949TIP3    H151042   3.453   1.603   2.316  2.8936  0.0158  0.2625
 8949TIP3    H251043   3.485   1.541   2.182  1.0978 -0.5191  0.0641
 8950TIP3   OH251044   1.381   5.542   1.426  0.1895 -0.0665  0.4024
 8950TIP3    H151045   1.349   5.452   1.430 -0.9531  0.3659  2.3666
 8950TIP3    H251046   1.343   5.578   1.345 -0.7999 -0.8391  0.5107
 8951TIP3   OH251047   2.368   2.030   1.262 -0.4006 -0.1865  0.2556
 8951TIP3    H151048   2.331   2.093   1.324 -0.9878  0.1230 -0.3983
 8951TIP3    H251049   2.412   2.085   1.196  0.1497 -0.5079  0.3503
 8952TIP3   OH251050   0.637   3.006   4.352 -0.6847 -0.2024  0.3932
 8952TIP3    H151051   0.655   3.072   4.284 -1.2508 -2.3964 -2.0287
 8952TIP3    H251052   0.723   2.972   4.375 -0.4870  0.5594  0.8198
 8953TIP3   OH251053   2.497   6.082   2.496  0.2351  0.1775  0.5640
 8953TIP3    H151054   2.500   6.026   2.418  3.1010 -0.0362  0.7102
 8953TIP3    H251055   2.487   6.171   2.461 -1.5165 -0.1468  0.1684
 8954TIP3   OH251056   0.816   5.966   0.889 -0.6050  0.3616 -0.3089
 8954TIP3    H151057   0.861   6.049   0.872  0.2395 -0.3757 -1.8905
 8954TIP3    H251058   0.772   5.945   0.807 -2.7898  0.3770  0.8012
 8955TIP3   OH251059   0.500   2.342   2.152  0.2252 -0.3975 -0.0167
 8955TIP3    H151060   0.475   2.434   2.147 -0.5819 -0.5159  1.3354
 8955TIP3    H251061   0.429   2.300   2.201  2.7069 -0.8584  3.5181
 8956TIP3   OH251062   1.073   3.513   4.069  0.0981  0.4965  0.3342
 8956TIP3    H151063   1.072   3.420   4.049  1.1489  0.7939 -1.3046
 8956TIP3    H251064   0.993   3.547   4.029  0.1097  0.4142  0.2401
 8957TIP3   OH251065   6.355   3.865   2.916 -0.1048  0.1740  0.0647
 8957TIP3    H151066   6.365   3.775   2.949 -2.1605 -1.2776 -2.8395
 8957TIP3    H251067   6.266   3.890   2.941 -0.2243  0.6289 -0.7860
 8958TIP3   OH251068   0.800   1.577   2.239 -0.4259 -0.3996 -0.2593
 8958TIP3    H151069   0.827   1.642   2.173  0.2566  0.3205  0.6929
 8958TIP3    H251070   0.712   1.605   2.265  0.2931  0.8747  0.9651
 8959TIP3   OH251071   6.604   0.495   1.728 -0.2160  0.2835 -0.2494
 8959TIP3    H151072   6.589   0.427   1.793 -0.2774  1.6380  1.2359
 8959TIP3    H251073   6.674   0.549   1.765 -0.0538  0.9432 -1.4413
 8960TIP3   OH251074   6.496   1.430   2.333 -0.2986  0.1281  0.3187
 8960TIP3    H151075   6.410   1.389   2.342 -1.4835  2.2382 -0.7098
 8960TIP3    H251076   6.540   1.411   2.416 -1.6455 -1.1989  0.7779
 8961TIP3   OH251077   5.856   1.888   3.543  0.3381  0.3902 -0.0092
 8961TIP3    H151078   5.771   1.903   3.584  0.1173  0.8352 -0.6045
 8961TIP3    H251079   5.904   1.970   3.557  0.7132  0.1011  0.4197
 8962TIP3   OH251080   5.268   0.708   0.812  0.0739  0.3116  0.4523
 8962TIP3    H151081   5.251   0.783   0.870  0.0340  0.1250  0.6842
 8962TIP3    H251082   5.184   0.663   0.807  0.0617  0.3632  0.1953
 8963TIP3   OH251083   1.360   0.399   3.041  0.5131  0.6321 -0.7040
 8963TIP3    H151084   1.324   0.435   3.122 -0.0470 -0.1034 -0.6102
 8963TIP3    H251085   1.442   0.358   3.068  0.7527  1.1307 -0.6681
 8964TIP3   OH251086   3.627   6.156   4.313 -0.0607 -0.0284 -0.0792
 8964TIP3    H151087   3.657   6.246   4.307  0.0257 -0.0715 -0.3333
 8964TIP3    H251088   3.695   6.105   4.268 -0.8827 -0.0444 -1.3508
 8965TIP3   OH251089   5.411   0.699   3.359 -0.0502 -0.0787 -0.3001
 8965TIP3    H151090   5.423   0.733   3.270  0.1119 -0.3742 -0.3956
 8965TIP3    H251091   5.497   0.708   3.400 -0.3262  0.8159  0.1033
 8966TIP3   OH251092   3.001   2.033   0.727  0.2628 -0.1490 -0.0057
 8966TIP3    H151093   3.045   2.099   0.674 -0.5802  1.3397  1.0699
 8966TIP3    H251094   3.036   1.949   0.695  3.3152  0.8753  0.2823
 8967TIP3   OH251095   1.977   4.094   0.883 -0.6413  0.3576  0.1049
 8967TIP3    H151096   2.062   4.101   0.926 -1.9867 -0.6858  3.2326
 8967TIP3    H251097   1.979   4.009   0.838 -0.3440 -0.1525  1.0549
 8968TIP3   OH251098   0.290   3.973   3.848  0.1518 -0.2430 -0.2199
 8968TIP3    H151099   0.342   3.933   3.917 -0.2977 -0.1797  0.1650
 8968TIP3    H251100   0.348   3.976   3.772  0.6549 -0.3082  0.1567
 8969TIP3   OH251101   4.414   0.856   1.854 -0.0275  0.3574 -0.1691
 8969TIP3    H151102   4.486   0.816   1.902 -0.0903  1.0642  0.5414
 8969TIP3    H251103   4.454   0.895   1.777  0.5342  1.6534  0.7469
 8970TIP3   OH251104   1.298   1.853   2.445  0.1420 -0.1045  0.4977
 8970TIP3    H151105   1.371   1.915   2.438  0.9310 -1.1710 -1.5682
 8970TIP3    H251106   1.337   1.774   2.481 -0.7523  0.3306  2.5908
 8971TIP3   OH251107   0.953   3.083   1.847 -0.5093  0.1416  0.4936
 8971TIP3    H151108   1.035   3.077   1.896 -1.0383  0.3913  1.4175
 8971TIP3    H251109   0.891   3.031   1.897 -1.2136  0.8968  0.4175
 8972TIP3   OH251110   4.293   6.342   3.415  0.1792 -0.1462 -0.5523
 8972TIP3    H151111   4.299   6.278   3.486 -1.1748 -0.0702 -0.3493
 8972TIP3    H251112   4.250   6.418   3.454  0.3373  0.2884 -1.2029
 8973TIP3   OH251113   2.505   6.070   0.730 -0.2826 -0.6244  0.4417
 8973TIP3    H151114   2.442   6.015   0.777  0.1128 -0.6388  0.9594
 8973TIP3    H251115   2.518   6.025   0.647 -1.3314 -0.3648  0.1206
 8974TIP3   OH251116   4.572   4.567   1.490 -0.2115 -0.0930  0.2207
 8974TIP3    H151117   4.614   4.485   1.516 -1.7683 -1.1844 -0.5862
 8974TIP3    H251118   4.563   4.615   1.572 -0.1640 -1.1434  0.8629
 8975TIP3   OH251119   3.734   2.384   3.029 -0.2116 -0.0076  0.0558
 8975TIP3    H151120   3.812   2.340   3.063  1.1486  1.0422 -1.5136
 8975TIP3    H251121   3.708   2.332   2.953 -0.7410 -0.0620  0.2707
 8976TIP3   OH251122   0.038   3.883   1.326 -0.0258 -0.2563  0.5331
 8976TIP3    H151123   0.008   3.971   1.301 -0.9524 -0.3912  1.1437
 8976TIP3    H251124   0.132   3.885   1.310  0.1896  1.2848  1.7560
 8977TIP3   OH251125   5.594   3.022   3.865  0.0329 -0.0850  0.5089
 8977TIP3    H151126   5.534   3.010   3.939  2.4593 -1.4461  2.3873
 8977TIP3    H251127   5.622   3.113   3.871  0.0188 -0.1186  1.1330
 8978TIP3   OH251128   0.178   0.826   2.686  0.0927 -0.4909 -0.2848
 8978TIP3    H151129   0.260   0.865   2.654  0.9385 -0.9669  1.1858
 8978TIP3    H251130   0.206   0.743   2.726 -1.1237 -0.6577  0.2411
 8979TIP3   OH251131   0.975   1.013   3.690  0.4789  0.3676 -0.6896
 8979TIP3    H151132   1.003   1.045   3.776 -1.6235  1.1721 -0.2613
 8979TIP3    H251133   0.953   1.091   3.640 -0.5915 -0.1844 -1.1212
 8980TIP3   OH251134   0.126   4.725   0.643  0.1345  0.0794 -0.1594
 8980TIP3    H151135   0.073   4.665   0.591  0.5375 -2.1451  1.8086
 8980TIP3    H251136   0.195   4.670   0.681  0.9493  1.9278  1.2088
 8981TIP3   OH251137   1.459   5.427   3.920 -0.4165  0.7398 -0.7584
 8981TIP3    H151138   1.501   5.512   3.937 -2.4676  1.5494  0.6330
 8981TIP3    H251139   1.514   5.364   3.966  1.7785  1.0858 -2.7350
 8982TIP3   OH251140   2.392   5.711   2.118 -0.5095  0.0418 -0.2406
 8982TIP3    H151141   2.336   5.641   2.150 -0.9996  0.5349  0.0098
 8982TIP3    H251142   2.413   5.686   2.028 -0.7144 -0.4064 -0.1648
 8983TIP3   OH251143   0.652   3.096   1.771 -0.2406  0.0211  0.2043
 8983TIP3    H151144   0.646   3.074   1.864  0.0189  1.5816  0.6260
 8983TIP3    H251145   0.562   3.117   1.745  0.0339  2.2859  0.8681
 8984TIP3   OH251146   1.711   0.573   1.205  0.0049 -0.0355  0.1031
 8984TIP3    H151147   1.719   0.609   1.117  0.9747 -0.3127  0.0672
 8984TIP3    H251148   1.646   0.628   1.248  0.9187  1.3236 -0.1801
 8985TIP3   OH251149   6.325   6.173   0.859 -0.2600 -0.1969 -0.0257
 8985TIP3    H151150   6.250   6.117   0.878 -2.2032  3.0087  3.0066
 8985TIP3    H251151   6.297   6.226   0.784 -0.1498 -0.3535 -0.1803
 8986TIP3   OH251152   5.266   1.751   2.088  0.1357 -0.4230 -0.0520
 8986TIP3    H151153   5.259   1.846   2.080 -0.7701 -0.3983  0.8407
 8986TIP3    H251154   5.204   1.728   2.158 -0.8677 -1.8402 -1.3409
 8987TIP3   OH251155   5.241   0.547   3.534 -0.1402  0.0660 -0.0139
 8987TIP3    H151156   5.283   0.617   3.484  1.6495 -0.9945 -0.0818
 8987TIP3    H251157   5.221   0.587   3.619 -0.7339  1.1214 -0.6355
 8988TIP3   OH251158   1.785   2.063   1.379  0.4892 -1.0451  0.0161
 8988TIP3    H151159   1.710   2.099   1.331  1.3733  1.4120  0.3311
 8988TIP3    H251160   1.859   2.071   1.318  1.0835 -0.5388  0.7838
 8989TIP3   OH251161   6.204   2.397   2.327 -0.5076  0.1282 -0.1271
 8989TIP3    H151162   6.174   2.434   2.243  2.4130 -0.0008 -1.3534
 8989TIP3    H251163   6.279   2.452   2.351 -0.1413 -1.0050  1.4492
 8990TIP3   OH251164   0.247   0.884   1.317 -0.1228  0.1129  0.3075
 8990TIP3    H151165   0.323   0.921   1.271  1.4915 -4.0958 -0.8892
 8990TIP3    H251166   0.251   0.922   1.404  0.2021  3.9305 -1.1731
 8991TIP3   OH251167   6.374   2.163   1.756  0.0848  0.7003  0.0820
 8991TIP3    H151168   6.292   2.134   1.796  0.4396  0.1134  0.3940
 8991TIP3    H251169   6.372   2.125   1.668  1.8043 -2.7693  1.3680
 8992TIP3   OH251170   3.266   4.409   0.774 -0.3568  0.1672 -0.7195
 8992TIP3    H151171   3.324   4.372   0.841  1.0286  0.9000 -1.4551
 8992TIP3    H251172   3.210   4.470   0.822 -0.3546 -0.3670 -0.0216
 8993TIP3   OH251173   1.784   3.386   3.215  0.1884 -0.7104 -0.1974
 8993TIP3    H151174   1.733   3.456   3.174 -2.0268 -0.8964  2.0246
 8993TIP3    H251175   1.802   3.324   3.144 -1.3334  0.1441 -1.3803
 8994TIP3   OH251176   0.597   3.038   2.543 -0.3453  0.5206 -0.2531
 8994TIP3    H151177   0.582   3.038   2.449 -1.1370  0.1528 -0.1366
 8994TIP3    H251178   0.588   3.130   2.569 -0.7859  0.5337 -0.4449
 8995TIP3   OH251179   6.336   3.046   2.114  0.2710 -0.8754  0.4453
 8995TIP3    H151180   6.430   3.034   2.133  0.1727 -1.7618  0.4476
 8995TIP3    H251181   6.301   3.090   2.191  0.7976 -0.0096  0.1967
 8996TIP3   OH251182   1.206   4.606   1.957 -0.6048 -0.6326 -0.7604
 8996TIP3    H151183   1.290   4.564   1.941  0.5662  0.8710  1.0467
 8996TIP3    H251184   1.204   4.622   2.051 -1.3774  2.3913 -1.1815
 8997TIP3   OH251185   3.372   2.015   1.415 -0.0232  0.1368 -0.0078
 8997TIP3    H151186   3.319   2.073   1.361  0.7177 -0.4699 -1.4619
 8997TIP3    H251187   3.374   1.932   1.367 -1.5004 -1.3348  2.2695
 8998TIP3   OH251188   1.712   4.163   3.112  0.0624 -0.0822 -0.4532
 8998TIP3    H151189   1.748   4.251   3.125 -0.4566  0.0718 -0.0018
 8998TIP3    H251190   1.748   4.134   3.029 -0.3650  0.8668 -0.9859
 8999TIP3   OH251191   2.869   4.680   2.926 -0.5034 -0.2262 -0.3382
 8999TIP3    H151192   2.953   4.722   2.905 -1.0316 -0.0470 -2.3483
 8999TIP3    H251193   2.803   4.740   2.892 -1.4329 -0.7569  0.4755
 9000TIP3   OH251194   5.874   3.974   3.653 -0.0515  0.1538 -0.0419
 9000TIP3    H151195   5.839   4.063   3.658  0.8515  0.4425  2.1822
 9000TIP3    H251196   5.932   3.976   3.576 -0.9966  1.1091 -0.7525
 9001TIP3   OH251197   0.863   1.929   1.797  0.7520  0.3010 -0.2521
 9001TIP3    H151198   0.808   1.855   1.822 -0.1272  1.2462  0.7086
 9001TIP3    H251199   0.951   1.904   1.824  0.5208 -0.5210 -0.2338
 9002TIP3   OH251200   5.725   4.811   2.996 -0.2849  0.3526  0.0792
 9002TIP3    H151201   5.814   4.813   3.032 -0.2883 -0.3467  0.1361
 9002TIP3    H251202   5.727   4.740   2.931 -0.6712  0.6539 -0.2688
 9003TIP3   OH251203   0.561   2.029   2.878  0.6131  0.4854  0.3657
 9003TIP3    H151204   0.479   2.007   2.835 -0.0775  4.2024 -0.5699
 9003TIP3    H251205   0.626   1.972   2.837 -0.8286  0.4707 -2.1179
 9004TIP3   OH251206   5.087   5.440   3.156 -0.5191 -0.3369 -0.6191
 9004TIP3    H151207   5.041   5.381   3.215 -0.2458  0.1069  0.0493
 9004TIP3    H251208   5.042   5.524   3.165  1.5189  0.6380  1.5031
 9005TIP3   OH251209   0.366   1.681   3.821  0.1502  0.1018 -1.1322
 9005TIP3    H151210   0.321   1.740   3.761  0.4144 -0.8533 -2.3100
 9005TIP3    H251211   0.307   1.671   3.895 -0.3843  0.9484 -1.4365
 9006TIP3   OH251212   0.905   6.285   2.516  0.2744 -0.6042  0.4407
 9006TIP3    H151213   0.846   6.238   2.458 -0.5740  0.0457  0.7479
 9006TIP3    H251214   0.952   6.346   2.459 -0.2381 -0.2747  0.3679
 9007TIP3   OH251215   5.558   0.960   1.000  0.6667  0.5411  0.0335
 9007TIP3    H151216   5.648   0.974   0.970  0.8053 -1.4806 -0.6461
 9007TIP3    H251217   5.511   0.930   0.922 -0.4951  1.0927  0.4948
 9008TIP3   OH251218   4.018   1.688   2.582  0.8152 -0.0181 -0.1301
 9008TIP3    H151219   4.031   1.686   2.487  0.4711 -1.8157 -0.1798
 9008TIP3    H251220   4.001   1.597   2.606  0.2479  0.4913  1.5775
 9009TIP3   OH251221   2.125   4.019   3.563 -0.2555 -0.5201  0.4234
 9009TIP3    H151222   2.065   4.092   3.550  0.4337 -0.2630 -1.7556
 9009TIP3    H251223   2.086   3.967   3.633 -2.5674  0.0811 -0.3499
 9010TIP3   OH251224   4.581   2.458   0.391 -0.0647 -0.0274  0.3766
 9010TIP3    H151225   4.570   2.384   0.450  0.9583  0.5667  1.3513
 9010TIP3    H251226   4.669   2.447   0.355 -0.1871  0.3174 -0.0314
 9011TIP3   OH251227   4.614   3.334   3.292  0.0142  0.0276 -0.1722
 9011TIP3    H151228   4.591   3.253   3.248 -0.8224 -0.0375  0.3521
 9011TIP3    H251229   4.694   3.364   3.248  0.1757 -0.9260 -0.5532
 9012TIP3   OH251230   2.560   2.143   2.411  0.1651 -1.0432 -0.5076
 9012TIP3    H151231   2.505   2.144   2.489 -0.6609 -2.5128 -1.0201
 9012TIP3    H251232   2.499   2.163   2.339  1.4607  3.6802 -0.6176
 9013TIP3   OH251233   4.296   2.835   2.065 -0.1374  0.8875  0.0147
 9013TIP3    H151234   4.200   2.829   2.059 -0.2170 -0.0435  1.7341
 9013TIP3    H251235   4.322   2.758   2.115  1.4926  1.3517 -0.0688
 9014TIP3   OH251236   1.026   2.048   0.879  0.3900 -0.6669 -0.5042
 9014TIP3    H151237   1.004   2.098   0.958 -0.7587 -0.8654 -0.6823
 9014TIP3    H251238   1.101   1.994   0.905  0.5662 -0.1020  0.1925
 9015TIP3   OH251239   5.895   4.462   1.259  0.1110  0.1150 -0.6633
 9015TIP3    H151240   5.902   4.398   1.188  1.5982 -0.1067 -0.3574
 9015TIP3    H251241   5.970   4.443   1.315  0.8370  2.3791 -0.7695
 9016TIP3   OH251242   1.538   2.420   1.026 -0.5021  0.0096  0.1913
 9016TIP3    H151243   1.502   2.494   0.977 -0.8120  0.5013  1.1382
 9016TIP3    H251244   1.496   2.425   1.112 -0.2416 -1.0451  0.4034
 9017TIP3   OH251245   0.302   3.312   2.077 -0.0571 -0.3404 -0.2163
 9017TIP3    H151246   0.367   3.353   2.133 -0.1177 -1.3580  0.6364
 9017TIP3    H251247   0.232   3.377   2.070  0.1426 -0.0315  0.5452
 9018TIP3   OH251248   0.844   6.135   1.880  0.0475  0.4037 -0.0617
 9018TIP3    H151249   0.891   6.132   1.797 -0.5834  1.0701 -0.4452
 9018TIP3    H251250   0.911   6.161   1.944  0.1614  1.6226 -0.6507
 9019TIP3   OH251251   5.537   1.866   0.704 -0.1553  0.2122  0.1239
 9019TIP3    H151252   5.610   1.805   0.692  0.5397  1.0583 -0.0943
 9019TIP3    H251253   5.472   1.839   0.639 -0.5122 -1.2117  1.0198
 9020TIP3   OH251254   3.348   1.526   3.136  0.1664  0.0205 -0.1021
 9020TIP3    H151255   3.380   1.494   3.051  1.9209 -0.5503  0.7313
 9020TIP3    H251256   3.298   1.453   3.172 -1.3057  0.5616 -0.9810
 9021TIP3   OH251257   6.346   1.882   0.855  0.1139 -0.1009 -0.0867
 9021TIP3    H151258   6.350   1.907   0.763 -0.7696 -1.1513 -0.4296
 9021TIP3    H251259   6.401   1.947   0.900  1.2327 -0.0639 -1.4400
 9022TIP3   OH251260   5.381   3.902   1.854  0.2396  0.1469 -0.6816
 9022TIP3    H151261   5.461   3.937   1.815  1.1852 -0.2528  0.8264
 9022TIP3    H251262   5.330   3.870   1.780  0.4982  2.3354 -1.8688
 9023TIP3   OH251263   3.179   4.096   2.467  0.8620  0.3470 -0.1396
 9023TIP3    H151264   3.113   4.058   2.527  2.4582 -0.3187  1.2887
 9023TIP3    H251265   3.203   4.023   2.410 -0.2116  0.8226 -1.2592
 9024TIP3   OH251266   1.428   5.827   3.518  0.7872 -0.5741 -0.0197
 9024TIP3    H151267   1.442   5.855   3.428 -2.2075 -0.8028 -0.6916
 9024TIP3    H251268   1.370   5.894   3.555  0.1893 -1.6052  0.9942
 9025TIP3   OH251269   2.064   5.279   2.001 -0.5255 -0.6478  0.7995
 9025TIP3    H151270   2.078   5.372   2.021  0.9474 -0.5305 -0.6062
 9025TIP3    H251271   2.137   5.234   2.043  1.3013 -0.6342 -2.0970
 9026TIP3   OH251272   3.444   0.450   1.500 -0.0881  0.6130  0.5023
 9026TIP3    H151273   3.370   0.510   1.511  0.1666  1.0157  0.0368
 9026TIP3    H251274   3.515   0.490   1.550  0.6622  1.7302 -1.3512
 9027TIP3   OH251275   2.229   4.118   1.577  0.1671  0.5142 -0.3107
 9027TIP3    H151276   2.294   4.125   1.507 -0.8352  0.6773 -1.2527
 9027TIP3    H251277   2.213   4.024   1.585 -0.4466  0.5488 -1.0132
 9028TIP3   OH251278   2.151   3.087   2.824  0.9483 -0.5920 -0.5516
 9028TIP3    H151279   2.221   3.023   2.833  0.6678 -0.8710 -0.3458
 9028TIP3    H251280   2.140   3.124   2.912  0.5374 -0.8686 -0.4818
 9029TIP3   OH251281   1.650   1.868   1.818  0.2185 -0.2584  0.5329
 9029TIP3    H151282   1.598   1.945   1.794  0.9194  0.2181  0.5126
 9029TIP3    H251283   1.719   1.865   1.751  0.3129 -0.7873  0.6522
 9030TIP3   OH251284   2.669   2.083   2.108  0.0896  0.0250  0.6929
 9030TIP3    H151285   2.726   2.054   2.036 -0.0402  1.1895  0.1079
 9030TIP3    H251286   2.694   2.174   2.123 -1.7945  0.6396  0.2508
 9031TIP3   OH251287   2.185   4.836   3.550 -0.3417 -0.0208  0.9438
 9031TIP3    H151288   2.155   4.875   3.632  0.7445  0.7142  1.0105
 9031TIP3    H251289   2.243   4.902   3.512 -0.0499 -0.7651  0.0669
 9032TIP3   OH251290   1.883   2.681   1.981 -0.2580  0.1769 -0.1619
 9032TIP3    H151291   1.898   2.610   1.919  1.0226  0.2687  0.0188
 9032TIP3    H251292   1.790   2.676   2.001 -0.0678 -1.8876  0.3966
 9033TIP3   OH251293   4.864   3.447   3.157  0.2085  0.1750 -0.0269
 9033TIP3    H151294   4.901   3.501   3.087 -0.7676 -0.1617 -0.8262
 9033TIP3    H251295   4.895   3.487   3.238  1.3890  0.5477 -0.6518
 9034TIP3   OH251296   5.556   2.869   1.801  0.1251  0.4274 -0.2271
 9034TIP3    H151297   5.545   2.915   1.884  0.9436  2.8501 -1.3560
 9034TIP3    H251298   5.591   2.784   1.826  0.5265  1.1441  1.9105
 9035TIP3   OH251299   0.032   2.061   1.398 -0.0843  0.1193  0.2388
 9035TIP3    H151300  -0.061   2.062   1.421  0.1313  0.8613  1.1538
 9035TIP3    H251301   0.070   1.993   1.455 -0.1317 -0.5430 -0.4924
 9036TIP3   OH251302   3.764   5.539   2.426 -0.0163  0.9333 -0.8031
 9036TIP3    H151303   3.779   5.591   2.506 -2.3187 -0.1852  0.4651
 9036TIP3    H251304   3.716   5.462   2.456  0.0082 -0.0935 -3.1622
 9037TIP3   OH251305   0.921   5.474   0.557  0.3686 -0.1147  0.3230
 9037TIP3    H151306   0.954   5.564   0.561 -0.6772  0.2422  2.0570
 9037TIP3    H251307   1.000   5.420   0.553  1.1229  0.8138  1.5376
 9038TIP3   OH251308   0.906   3.587   0.827  0.3710 -0.1629  0.4241
 9038TIP3    H151309   0.915   3.640   0.748  0.7412 -1.1491 -0.2071
 9038TIP3    H251310   0.945   3.642   0.896 -1.6981  1.5241  0.3385
 9039TIP3   OH251311   4.786   1.413   4.641 -0.5505  0.1920  0.3411
 9039TIP3    H151312   4.739   1.335   4.612  0.6269 -0.2359 -0.5165
 9039TIP3    H251313   4.834   1.442   4.563  0.5487  0.6312  1.1500
 9040TIP3   OH251314   4.837   6.311   1.552 -0.1145  0.5033 -0.0164
 9040TIP3    H151315   4.849   6.316   1.457 -1.0497 -0.0830 -0.1790
 9040TIP3    H251316   4.873   6.226   1.576  0.5057  0.8269  0.2282
 9041TIP3   OH251317   0.520   0.774   0.854  0.3573 -0.4383  0.3824
 9041TIP3    H151318   0.442   0.788   0.908 -0.4541 -2.8819 -0.0225
 9041TIP3    H251319   0.560   0.695   0.891  0.7782 -1.1256 -1.4694
 9042TIP3   OH251320   5.877   5.709   1.623 -0.6266 -0.8546 -0.6513
 9042TIP3    H151321   5.820   5.784   1.639 -1.0640 -1.4607  0.7896
 9042TIP3    H251322   5.939   5.740   1.558 -0.4872  0.9325  0.2588
 9043TIP3   OH251323   1.618   3.030   0.650  0.0429 -0.3264  0.3758
 9043TIP3    H151324   1.548   3.072   0.701  0.9431  1.3636  0.3077
 9043TIP3    H251325   1.699   3.062   0.691  0.8098 -2.4735  0.6539
 9044TIP3   OH251326   3.236   4.787   1.444  0.2413 -0.1428  0.1508
 9044TIP3    H151327   3.174   4.824   1.382  0.6409 -0.1263 -0.2428
 9044TIP3    H251328   3.218   4.834   1.526 -0.5551 -0.4512  0.1561
 9045TIP3   OH251329   3.863   6.202   1.883  0.2425 -0.5714 -0.0022
 9045TIP3    H151330   3.956   6.206   1.861 -0.0743  0.5729 -1.2824
 9045TIP3    H251331   3.826   6.138   1.822  0.0301 -0.3159 -0.1438
 9046TIP3   OH251332   6.455   1.116   0.664 -0.5525 -0.2569  0.4631
 9046TIP3    H151333   6.519   1.080   0.726  0.4417 -0.0572 -0.4233
 9046TIP3    H251334   6.421   1.039   0.618  0.3603 -0.2341 -0.2829
 9047TIP3   OH251335   5.520   5.005   2.242 -0.4829 -0.5401  0.3159
 9047TIP3    H151336   5.525   5.017   2.147 -2.3977 -0.2614  0.2148
 9047TIP3    H251337   5.565   4.922   2.258 -0.6916 -0.9119 -0.9060
 9048TIP3   OH251338   2.156   3.553   3.071 -0.0390  0.1270 -0.0556
 9048TIP3    H151339   2.221   3.624   3.066 -0.6661  0.8977  1.8233
 9048TIP3    H251340   2.128   3.553   3.163 -1.3514 -1.4177 -0.4180
 9049TIP3   OH251341   4.610   0.796   3.731  0.2654  0.5098  0.6474
 9049TIP3    H151342   4.687   0.821   3.680  0.4097  0.7147  0.9625
 9049TIP3    H251343   4.643   0.728   3.791 -0.4191 -1.5133 -1.1574
 9050TIP3   OH251344   2.587   5.492   1.342  0.0851  0.4085 -0.1984
 9050TIP3    H151345   2.613   5.511   1.251 -2.1876 -1.4572 -1.3461
 9050TIP3    H251346   2.649   5.424   1.370  0.7655  0.9498 -0.3439
 9051TIP3   OH251347   3.204   3.915   3.013  0.4111  0.3410  0.6252
 9051TIP3    H151348   3.230   3.850   2.948  0.7599 -0.2556  1.3416
 9051TIP3    H251349   3.134   3.872   3.063  0.8111  0.4162  1.2629
 9052TIP3   OH251350   1.302   3.049   3.618 -0.0539 -0.1833  0.0737
 9052TIP3    H151351   1.247   3.005   3.682 -1.2764 -1.6842 -1.9026
 9052TIP3    H251352   1.387   3.005   3.625 -0.5401 -1.1857 -0.1743
 9053TIP3   OH251353   4.469   5.005   2.072  0.0941  0.0140  0.3107
 9053TIP3    H151354   4.489   5.095   2.048 -1.7084  0.2747 -0.3817
 9053TIP3    H251355   4.552   4.958   2.062  0.3393  0.8852 -2.7800
 9054TIP3   OH251356   5.325   5.332   1.815 -0.2386 -0.4041  0.3164
 9054TIP3    H151357   5.243   5.304   1.857 -1.4521  3.9673  1.3420
 9054TIP3    H251358   5.322   5.293   1.728 -1.9440 -2.6850  1.2980
 9055TIP3   OH251359   2.296   2.744   2.851  0.0991  0.4947 -0.0375
 9055TIP3    H151360   2.347   2.825   2.855 -2.2027  2.0045 -0.0252
 9055TIP3    H251361   2.288   2.726   2.757  0.5277  0.3046 -0.0426
 9056TIP3   OH251362   1.377   1.737   1.775 -0.7580  0.3173  0.1333
 9056TIP3    H151363   1.377   1.645   1.803 -1.9939  0.5906  1.1678
 9056TIP3    H251364   1.468   1.766   1.785 -0.7826 -0.1380  2.1847
 9057TIP3   OH251365   0.734   4.871   0.959  0.0218 -0.1019  0.1520
 9057TIP3    H151366   0.786   4.885   0.880  0.8294  2.7125  1.0726
 9057TIP3    H251367   0.652   4.917   0.943  0.0318  0.1505  0.7799
 9058TIP3   OH251368   4.535   2.158   1.947 -0.2233 -0.3652  0.1791
 9058TIP3    H151369   4.592   2.174   1.871 -0.2893 -0.1705  0.1696
 9058TIP3    H251370   4.450   2.191   1.920 -0.2922 -0.4718  0.2686
 9059TIP3   OH251371   6.360   5.699   1.365 -0.1133 -0.0959 -0.3213
 9059TIP3    H151372   6.299   5.763   1.328 -0.0521 -0.1259 -0.4722
 9059TIP3    H251373   6.316   5.668   1.445 -0.3656 -0.2367 -0.5140
 9060TIP3   OH251374   4.076   2.675   3.836 -0.6551  0.2963 -0.5059
 9060TIP3    H151375   4.016   2.735   3.881 -1.5393 -1.7714  1.2515
 9060TIP3    H251376   4.136   2.645   3.905  1.4969  1.1330 -1.9030
 9061TIP3   OH251377   0.849   5.809   2.715 -0.1838  0.2180 -0.0706
 9061TIP3    H151378   0.796   5.876   2.758  1.2656 -0.0172  2.2921
 9061TIP3    H251379   0.879   5.753   2.787  2.7311 -0.0186 -1.3016
 9062TIP3   OH251380   4.274   4.199   1.506 -0.3046  0.1627 -0.4246
 9062TIP3    H151381   4.236   4.182   1.593  0.0291 -0.7465 -0.4521
 9062TIP3    H251382   4.212   4.159   1.445 -0.7698  1.1885 -0.6474
 9063TIP3   OH251383   6.615   2.264   1.835  0.6130  0.2394  0.0222
 9063TIP3    H151384   6.645   2.328   1.770 -1.7089  0.2956 -1.0925
 9063TIP3    H251385   6.547   2.215   1.790  1.3016 -2.0657  1.3530
 9064TIP3   OH251386   2.922   0.549   1.538  0.1962 -0.3345  0.1672
 9064TIP3    H151387   2.914   0.477   1.600 -2.1716 -1.1272 -0.9229
 9064TIP3    H251388   2.877   0.518   1.459 -1.5556  2.5475 -0.1374
 9065TIP3   OH251389   6.082   1.790   2.409 -0.3256 -0.5898  0.0027
 9065TIP3    H151390   6.035   1.749   2.336 -1.2524 -0.8339  0.7145
 9065TIP3    H251391   6.017   1.796   2.479  0.8513 -1.4674  1.2330
 9066TIP3   OH251392   4.850   0.431   3.392 -0.0178 -0.2922 -0.5858
 9066TIP3    H151393   4.757   0.456   3.399  0.0373 -0.3173  0.2369
 9066TIP3    H251394   4.853   0.373   3.315 -0.5686  0.2344 -1.0147
 9067TIP3   OH251395   3.995   4.664   1.728 -0.4840  0.6558 -0.3388
 9067TIP3    H151396   4.053   4.689   1.656  0.1738 -1.7080 -0.7004
 9067TIP3    H251397   3.987   4.569   1.720 -1.9491  0.5766  1.5720
 9068TIP3   OH251398   1.697   6.297   0.782  0.2421 -0.0704  0.2690
 9068TIP3    H151399   1.648   6.375   0.755  1.6955  0.9008  0.2882
 9068TIP3    H251400   1.779   6.332   0.817  0.3158 -1.5486  1.6768
 9069TIP3   OH251401   4.955   2.843   0.877 -0.2553 -0.1724 -0.0814
 9069TIP3    H151402   4.998   2.802   0.802  2.2102 -1.8709  2.1014
 9069TIP3    H251403   4.958   2.777   0.946 -0.6287  1.9730  2.1312
 9070TIP3   OH251404   5.107   1.994   4.754  0.2833  0.6161  0.2160
 9070TIP3    H151405   5.062   1.911   4.763  0.9856  0.0702 -0.9911
 9070TIP3    H251406   5.039   2.055   4.725  0.4163 -0.4633 -2.7997
 9071TIP3   OH251407   3.563   6.330   2.285 -0.1110  0.2866 -0.1527
 9071TIP3    H151408   3.593   6.279   2.360 -0.2640 -0.2430 -0.4507
 9071TIP3    H251409   3.631   6.316   2.218 -0.5158 -0.1093 -0.4830
 9072TIP3   OH251410   1.342   1.912   4.441 -0.0034 -0.0540 -0.4855
 9072TIP3    H151411   1.321   1.840   4.381  1.3099 -0.9106  0.0208
 9072TIP3    H251412   1.363   1.986   4.384 -1.2613 -0.0801 -1.0169
 9073TIP3   OH251413   4.923   2.483   1.274 -0.3806 -0.2860  0.1889
 9073TIP3    H151414   4.942   2.471   1.367  1.4595 -0.2929 -0.1498
 9073TIP3    H251415   4.902   2.576   1.265 -1.3251 -0.4373  0.7083
 9074TIP3   OH251416   2.422   6.402   2.064  0.0351 -0.1346 -0.4109
 9074TIP3    H151417   2.398   6.484   2.106 -0.8096 -0.4529 -0.2575
 9074TIP3    H251418   2.377   6.403   1.980  0.1095 -0.3962 -0.4550
 9075TIP3   OH251419   3.845   2.491   2.186 -0.1249  0.2058 -0.3093
 9075TIP3    H151420   3.771   2.471   2.129  0.4803  0.5299 -1.2369
 9075TIP3    H251421   3.814   2.471   2.275 -1.2154  0.0654 -0.7116
 9076TIP3   OH251422   4.606   3.188   3.078  0.0161 -0.2732  0.0115
 9076TIP3    H151423   4.623   3.115   3.018  0.2864 -0.0528 -0.1818
 9076TIP3    H251424   4.600   3.265   3.021  0.3531 -0.0500  0.2716
 9077TIP3   OH251425   0.549   5.108   2.272  0.1247 -0.0888 -0.2130
 9077TIP3    H151426   0.491   5.179   2.299 -1.5760 -1.5470  0.1691
 9077TIP3    H251427   0.547   5.110   2.177  1.8630  1.7058 -0.2747
 9078TIP3   OH251428   5.503   2.728   0.864 -0.2333 -0.2255 -0.3230
 9078TIP3    H151429   5.537   2.752   0.778 -1.0814 -0.9500 -0.8852
 9078TIP3    H251430   5.464   2.642   0.851  0.1618 -0.6210  0.9405
 9079TIP3   OH251431   4.985   3.391   2.120 -0.2240  0.5000 -0.5746
 9079TIP3    H151432   4.914   3.453   2.105 -0.6855  0.1221 -0.0013
 9079TIP3    H251433   4.947   3.324   2.177 -0.0416 -0.8559 -1.9785
 9080TIP3   OH251434   1.973   6.091   1.109  0.1655 -0.3476  0.1540
 9080TIP3    H151435   1.898   6.083   1.167  1.4726  0.3696  2.0422
 9080TIP3    H251436   1.986   6.185   1.099 -0.1898 -0.4505 -1.5604
 9081TIP3   OH251437   4.595   2.841   1.593 -0.0917  0.1637  0.2286
 9081TIP3    H151438   4.539   2.792   1.532  1.8565 -1.0555 -0.6851
 9081TIP3    H251439   4.534   2.882   1.654 -1.9443 -1.6420 -0.2959
 9082TIP3   OH251440   3.869   4.817   3.956 -0.4834 -0.5780 -0.7832
 9082TIP3    H151441   3.940   4.755   3.937  0.1337  0.2722 -1.3479
 9082TIP3    H251442   3.800   4.796   3.893 -0.6250 -1.2281 -0.4166
 9083TIP3   OH251443   2.203   3.663   3.399 -0.4298  0.3193 -0.1459
 9083TIP3    H151444   2.152   3.647   3.478 -0.9601 -0.7190 -0.6809
 9083TIP3    H251445   2.253   3.582   3.386  0.3181  0.8126 -0.3943
 9084TIP3   OH251446   2.967   3.274   3.238  0.0087 -0.1075  0.0265
 9084TIP3    H151447   2.900   3.303   3.299  0.1063  0.7746 -0.2729
 9084TIP3    H251448   3.048   3.278   3.288 -0.0008 -0.0055  0.0346
 9085TIP3   OH251449   1.586   0.925   1.018 -0.3861  0.1594 -0.7457
 9085TIP3    H151450   1.624   0.861   0.958  0.5988  0.0078  0.0284
 9085TIP3    H251451   1.589   0.883   1.104  0.6269  1.3866 -0.1547
 9086TIP3   OH251452   4.655   0.244   2.339  0.6357  0.1556  0.2465
 9086TIP3    H151453   4.579   0.288   2.301  0.2109 -0.5627  0.2532
 9086TIP3    H251454   4.675   0.174   2.277 -1.8225 -2.9072  2.6352
 9087TIP3   OH251455   6.426   6.031   1.537 -0.0794 -0.0788 -0.2575
 9087TIP3    H151456   6.355   5.983   1.493 -2.2191  2.6417 -0.0177
 9087TIP3    H251457   6.458   5.970   1.604 -0.3791 -2.3353 -2.0322
 9088TIP3   OH251458   5.407   0.965   4.268  0.3417  0.1251 -0.4643
 9088TIP3    H151459   5.463   1.040   4.290 -0.5557  0.7437 -0.1973
 9088TIP3    H251460   5.432   0.897   4.331 -0.8330  1.2089  1.2791
 9089TIP3   OH251461   2.237   2.834   2.368 -0.1278  0.2739 -0.1545
 9089TIP3    H151462   2.210   2.879   2.288 -1.3550 -1.9934 -1.0957
 9089TIP3    H251463   2.332   2.842   2.369 -0.2989  3.1638 -0.0393
 9090TIP3   OH251464   2.821   1.094   2.794  0.0572  0.1955 -0.4308
 9090TIP3    H151465   2.739   1.045   2.790 -0.1513  0.6017 -2.3473
 9090TIP3    H251466   2.794   1.184   2.815 -0.1268  0.5333 -2.0061
 9091TIP3   OH251467   6.337   3.241   3.650  0.3345  0.5292  0.5757
 9091TIP3    H151468   6.262   3.200   3.606  1.9314  0.0075 -1.8562
 9091TIP3    H251469   6.384   3.168   3.690  0.4127  0.6612  0.7257
 9092TIP3   OH251470   5.502   5.587   4.330  0.0255  0.1271 -0.4754
 9092TIP3    H151471   5.534   5.500   4.307  0.5611 -0.0253  0.7186
 9092TIP3    H251472   5.407   5.580   4.327  0.0664 -0.1719 -1.4797
 9093TIP3   OH251473   6.407   4.646   3.429  0.1849 -0.3729  0.5465
 9093TIP3    H151474   6.329   4.620   3.380  0.9908 -0.5903 -0.6662
 9093TIP3    H251475   6.376   4.658   3.519 -1.7063  1.7395 -0.2995
 9094TIP3   OH251476   1.121   1.813   3.842 -0.3817 -0.6267  0.0624
 9094TIP3    H151477   1.151   1.896   3.805  1.2596 -1.0703  0.3309
 9094TIP3    H251478   1.157   1.746   3.784 -1.5023 -1.1719 -0.0195
 9095TIP3   OH251479   0.388   5.125   3.004 -0.6811 -0.1630 -0.2142
 9095TIP3    H151480   0.370   5.047   2.951 -2.9794  1.4018 -1.9367
 9095TIP3    H251481   0.341   5.195   2.959  0.3293  2.0033  1.9289
 9096TIP3   OH251482   6.455   3.247   4.361 -0.1911  0.5767 -0.1089
 9096TIP3    H151483   6.466   3.306   4.287 -0.8237  2.0648  0.9400
 9096TIP3    H251484   6.469   3.160   4.324  0.2397  1.3221 -1.8105
 9097TIP3   OH251485   0.622   6.333   4.063  0.5364 -0.8249 -0.2677
 9097TIP3    H151486   0.597   6.271   3.995 -0.9867  0.6324 -1.1355
 9097TIP3    H251487   0.571   6.412   4.044  0.6380 -0.0760  2.1215
 9098TIP3   OH251488   1.250   3.329   3.535  0.4194  0.4628  0.2243
 9098TIP3    H151489   1.282   3.313   3.446 -0.8829 -0.6129 -0.0719
 9098TIP3    H251490   1.272   3.249   3.583 -1.7503 -0.3340  0.0043
 9099TIP3   OH251491   0.750   3.903   2.624 -0.3912 -0.1090 -0.0525
 9099TIP3    H151492   0.687   3.913   2.552 -0.6307 -0.0452  0.1668
 9099TIP3    H251493   0.787   3.815   2.610 -0.1188  0.0737 -0.5062
 9100TIP3   OH251494   0.688   5.213   3.389  0.0502 -0.0655 -0.1134
 9100TIP3    H151495   0.673   5.261   3.307  0.1709  1.0891  0.5232
 9100TIP3    H251496   0.756   5.263   3.434 -1.0097  0.1294  1.3220
 9101TIP3   OH251497   3.305   2.251   2.862 -0.0449  0.1584  0.2181
 9101TIP3    H151498   3.293   2.337   2.821  1.0664 -0.2545 -1.0217
 9101TIP3    H251499   3.399   2.236   2.860 -0.2855 -1.5303 -0.5549
 9102TIP3   OH251500   2.256   5.388   2.178  0.4328  0.0150  0.1016
 9102TIP3    H151501   2.196   5.444   2.228 -0.1072 -1.8813  1.7690
 9102TIP3    H251502   2.342   5.407   2.214  0.5336  1.1222 -0.6969
 9103TIP3   OH251503   4.224   2.310   0.981  0.6331 -0.2742 -0.1884
 9103TIP3    H151504   4.138   2.349   0.967  0.3921 -0.6139  0.3078
 9103TIP3    H251505   4.275   2.335   0.904  0.8717  2.0402  0.6489
 9104TIP3   OH251506   5.284   5.601   3.385  0.0858  0.0181  0.1893
 9104TIP3    H151507   5.287   5.672   3.449  0.7860  0.2345 -0.0797
 9104TIP3    H251508   5.191   5.577   3.380 -0.3528  1.7129 -0.5990
 9105TIP3   OH251509   5.749   4.050   1.408 -0.2085 -0.2692  0.1053
 9105TIP3    H151510   5.763   4.133   1.453 -0.1658  0.3893 -1.0955
 9105TIP3    H251511   5.827   4.039   1.353 -1.4793  0.3854 -1.9600
 9106TIP3   OH251512   5.127   4.242   1.682  0.4458  0.1709 -0.0111
 9106TIP3    H151513   5.144   4.170   1.743 -1.6303 -0.5628 -0.2122
 9106TIP3    H251514   5.128   4.200   1.596  0.3495  0.6255 -0.2354
 9107TIP3   OH251515   5.678   2.890   1.405 -0.5559  0.2200  0.6347
 9107TIP3    H151516   5.691   2.915   1.496 -0.5820  0.3920  0.5902
 9107TIP3    H251517   5.610   2.949   1.372 -1.0268 -0.2787  0.6928
 9108TIP3   OH251518   0.581   2.176   1.696 -0.6862  0.2917  0.3156
 9108TIP3    H151519   0.589   2.177   1.791  1.2427  0.3281  0.1844
 9108TIP3    H251520   0.528   2.099   1.677  0.1966 -0.5980  1.3436
 9109TIP3   OH251521   6.555   1.670   2.215 -0.5850  0.2480  0.1404
 9109TIP3    H151522   6.473   1.719   2.224  0.3029  1.5371  1.9212
 9109TIP3    H251523   6.532   1.581   2.243 -1.4120  0.5636  0.5066
 9110TIP3   OH251524   0.816   0.415   3.727 -0.4259 -0.1785  0.8352
 9110TIP3    H151525   0.873   0.392   3.799 -1.3893  1.2332  2.1083
 9110TIP3    H251526   0.733   0.371   3.746 -0.7283  0.3034  0.6769
 9111TIP3   OH251527   4.738   4.900   3.435  0.6317 -0.0076 -0.0666
 9111TIP3    H151528   4.652   4.888   3.475 -0.4273  0.4574 -2.1153
 9111TIP3    H251529   4.778   4.813   3.439  1.1888  0.2703  3.1789
 9112TIP3   OH251530   0.015   5.821   0.742  0.3633 -0.4939 -0.0392
 9112TIP3    H151531  -0.002   5.908   0.706  1.0289 -0.9186 -1.4303
 9112TIP3    H251532   0.035   5.837   0.834 -1.9646  0.5643  0.3582
 9113TIP3   OH251533   2.354   6.473   2.411  0.3404 -0.4071  0.3135
 9113TIP3    H151534   2.343   6.507   2.499  0.7956 -0.6989  0.4878
 9113TIP3    H251535   2.411   6.397   2.421  0.4643 -0.3965 -0.2431
 9114TIP3   OH251536   0.537   2.883   3.772  0.4184 -0.4127  0.5534
 9114TIP3    H151537   0.558   2.806   3.720 -0.1167 -0.9724  1.1493
 9114TIP3    H251538   0.577   2.868   3.857  0.7243  0.1920  0.5237
 9115TIP3   OH251539   6.103   5.327   1.287  0.1295 -0.3126  0.4899
 9115TIP3    H151540   6.123   5.375   1.368 -0.0721  1.6252 -0.5449
 9115TIP3    H251541   6.053   5.389   1.234  0.2471 -1.5347 -1.1339
 9116TIP3   OH251542   5.835   0.950   0.937  0.6714 -0.2146 -0.0984
 9116TIP3    H151543   5.873   1.013   0.999  0.9812  0.0021 -0.5026
 9116TIP3    H251544   5.872   0.975   0.853  0.1406 -0.4195 -0.3949
 9117TIP3   OH251545   4.540   0.062   0.501 -0.4241 -0.0395  0.1227
 9117TIP3    H151546   4.623   0.099   0.530  0.0510 -1.1401  0.2202
 9117TIP3    H251547   4.557   0.028   0.414 -0.3654 -1.4987  0.6735
 9118TIP3   OH251548   6.259   1.620   0.686 -0.0808  0.0333 -0.0122
 9118TIP3    H151549   6.328   1.559   0.662 -0.2226  0.0018 -0.3514
 9118TIP3    H251550   6.269   1.693   0.624 -0.7681 -0.2814 -0.5136
 9119TIP3   OH251551   6.406   2.349   4.181  0.4825 -0.5089 -0.1733
 9119TIP3    H151552   6.427   2.440   4.162 -0.5404 -0.0577  0.7473
 9119TIP3    H251553   6.489   2.311   4.211  0.5431  0.6155  1.1982
 9120TIP3   OH251554   2.110   4.497   2.430  0.5334  0.3097 -1.0309
 9120TIP3    H151555   2.154   4.553   2.493  1.3220 -0.4703 -0.8648
 9120TIP3    H251556   2.028   4.542   2.410 -0.0770  0.2205  1.0982
 9121TIP3   OH251557   5.869   4.124   1.778  0.0192  0.0361 -0.1494
 9121TIP3    H151558   5.949   4.072   1.773  0.3589  0.6348 -1.1449
 9121TIP3    H251559   5.867   4.155   1.869  1.2590  0.5335 -0.2737
 9122TIP3   OH251560   5.228   2.879   0.355  0.0953 -0.3069 -0.1345
 9122TIP3    H151561   5.270   2.871   0.270 -2.0492  1.0111 -1.3886
 9122TIP3    H251562   5.253   2.966   0.386 -1.4117  0.3800 -0.7711
 9123TIP3   OH251563   3.201   3.631   2.852 -0.3033  0.0760  0.5279
 9123TIP3    H151564   3.172   3.605   2.765  0.2178  0.4050  0.2539
 9123TIP3    H251565   3.130   3.603   2.910  0.6415 -2.9578  0.3987
 9124TIP3   OH251566   4.620   1.772   0.822  0.1275  0.6118 -0.1508
 9124TIP3    H151567   4.577   1.805   0.901 -0.1999 -1.1557  0.4380
 9124TIP3    H251568   4.549   1.739   0.768  0.4716  0.6257 -0.6137
 9125TIP3   OH251569   3.621   0.130   2.246 -0.0492 -0.0845  0.0502
 9125TIP3    H151570   3.546   0.187   2.231 -0.2587  0.3132  2.2396
 9125TIP3    H251571   3.681   0.148   2.173 -2.2682 -0.8551 -2.1028
 9126TIP3   OH251572   4.457   3.376   0.556 -0.2609  0.3339 -0.0900
 9126TIP3    H151573   4.447   3.292   0.511 -1.6092 -0.3443  1.3722
 9126TIP3    H251574   4.552   3.389   0.562 -0.0439 -0.5122 -1.3617
 9127TIP3   OH251575   4.022   0.351   2.417  0.3579  0.1622 -0.2762
 9127TIP3    H151576   3.968   0.363   2.496  0.8627  1.0058 -0.0538
 9127TIP3    H251577   3.969   0.389   2.346 -0.0119 -0.4269 -0.3330
 9128TIP3   OH251578   0.415   5.335   2.351  0.3063  0.7061 -0.1582
 9128TIP3    H151579   0.462   5.418   2.349 -1.2450  1.6423  0.4667
 9128TIP3    H251580   0.340   5.348   2.292 -1.1183  0.5356  1.5271
 9129TIP3   OH251581   1.546   1.321   2.620  0.2520  0.1894  0.5395
 9129TIP3    H151582   1.503   1.256   2.675 -1.0231  0.9726  0.4815
 9129TIP3    H251583   1.533   1.404   2.664  0.7932  0.5891 -0.0285
 9130TIP3   OH251584   4.825   3.638   3.366 -0.0227 -0.4865 -1.1215
 9130TIP3    H151585   4.820   3.703   3.296  1.4264  0.4167 -0.4322
 9130TIP3    H251586   4.878   3.680   3.434 -2.9253 -0.5543  1.3756
 9131TIP3   OH251587   6.017   2.748   0.652  0.0882 -0.5066  0.2732
 9131TIP3    H151588   6.002   2.840   0.631 -0.7073 -0.6491  0.1873
 9131TIP3    H251589   6.097   2.726   0.605 -0.4303 -0.2064 -0.7950
 9132TIP3   OH251590   0.065   0.756   1.157  0.4342  0.2744 -0.4065
 9132TIP3    H151591  -0.020   0.792   1.180  0.3777  0.6695 -1.2308
 9132TIP3    H251592   0.125   0.793   1.223 -0.1779 -0.8345  0.8268
 9133TIP3   OH251593   0.410   3.056   2.076 -0.2346  0.2474 -0.0797
 9133TIP3    H151594   0.401   3.022   1.987 -1.3433 -0.5382  0.3097
 9133TIP3    H251595   0.366   3.141   2.074 -2.0950 -0.6722  0.1928
 9134TIP3   OH251596   0.264   2.128   2.498 -0.1908  0.1442 -0.3718
 9134TIP3    H151597   0.233   2.077   2.573 -0.3904 -0.3827 -0.8054
 9134TIP3    H251598   0.283   2.063   2.431  0.4247  0.5785 -0.6276
 9135TIP3   OH251599   4.530   2.252   2.446 -0.4113  0.0091  0.1224
 9135TIP3    H151600   4.592   2.188   2.482 -0.2617  1.0800  1.8983
 9135TIP3    H251601   4.558   2.336   2.482 -0.0828  1.2814 -2.8248
 9136TIP3   OH251602   1.054   5.208   0.777 -0.1238  0.5513 -0.1992
 9136TIP3    H151603   1.042   5.302   0.787 -2.7860  0.1774  0.7895
 9136TIP3    H251604   1.020   5.189   0.689 -0.7458  0.3721  0.0732
 9137TIP3   OH251605   5.732   3.800   2.368 -0.0024 -0.3403 -0.4196
 9137TIP3    H151606   5.706   3.750   2.446  0.3542 -1.6222 -1.0873
 9137TIP3    H251607   5.812   3.757   2.338  0.8268  1.2164 -0.5211
 9138TIP3   OH251608   2.417   2.722   1.111 -0.3441 -0.4099 -0.4415
 9138TIP3    H151609   2.448   2.724   1.020 -1.6737  0.0522 -0.9107
 9138TIP3    H251610   2.455   2.801   1.151 -2.7791  1.5480 -1.7022
 9139TIP3   OH251611   2.187   1.333   1.572 -0.0555  0.0048 -0.4669
 9139TIP3    H151612   2.168   1.239   1.570  1.9245 -0.4295 -1.1772
 9139TIP3    H251613   2.221   1.352   1.485 -2.7885  1.9864 -1.2496
 9140TIP3   OH251614   0.748   0.538   1.659 -0.2396 -0.6540 -0.0460
 9140TIP3    H151615   0.825   0.590   1.635 -2.2663  2.9270  0.4035
 9140TIP3    H251616   0.706   0.517   1.576  0.8989 -2.2460 -0.2655
 9141TIP3   OH251617   3.818   3.910   1.510  0.6686  0.3919  0.4928
 9141TIP3    H151618   3.898   3.911   1.563  1.0582 -1.6261  0.0115
 9141TIP3    H251619   3.848   3.935   1.422  0.6497  0.2423  0.4448
 9142TIP3   OH251620   5.241   3.202   3.266  0.3128 -0.1520  0.1992
 9142TIP3    H151621   5.280   3.213   3.179  0.9609  2.2456  0.7125
 9142TIP3    H251622   5.231   3.107   3.276  0.4886 -0.5069 -2.3471
 9143TIP3   OH251623   6.231   3.899   1.207  0.1043 -0.1398 -0.6145
 9143TIP3    H151624   6.278   3.887   1.290  0.3663 -0.1080 -0.7588
 9143TIP3    H251625   6.297   3.931   1.146 -0.4590  1.5725 -0.3830
 9144TIP3   OH251626   6.365   2.916   1.208  0.1764 -0.1888  0.0845
 9144TIP3    H151627   6.444   2.958   1.244 -1.2341  1.6726  1.1773
 9144TIP3    H251628   6.365   2.941   1.115  1.3587 -1.0847 -0.1964
 9145TIP3   OH251629   5.757   0.948   1.627  0.8119 -0.1210  0.1445
 9145TIP3    H151630   5.679   0.966   1.680  1.3775  1.0710  0.6217
 9145TIP3    H251631   5.827   0.997   1.671  1.6716 -0.5455 -0.7165
 9146TIP3   OH251632   1.251   1.944   2.734 -0.1887 -0.0816  0.1691
 9146TIP3    H151633   1.341   1.972   2.713 -0.5775 -0.9172 -3.0471
 9146TIP3    H251634   1.197   1.983   2.665 -1.8379 -2.2206  0.1546
 9147TIP3   OH251635   4.762   5.414   1.520 -0.7669  0.2588  0.0259
 9147TIP3    H151636   4.721   5.386   1.438 -1.5301  0.9502  0.1604
 9147TIP3    H251637   4.854   5.390   1.510 -0.9011  0.1155 -0.9382
 9148TIP3   OH251638   3.614   5.051   1.502 -0.5574  0.4066  0.2990
 9148TIP3    H151639   3.560   5.037   1.580  1.2453  0.3425  1.6062
 9148TIP3    H251640   3.576   4.994   1.436 -1.5975 -0.2349  1.4105
 9149TIP3   OH251641   5.180   4.398   1.009  0.5100  0.4353  0.4911
 9149TIP3    H151642   5.089   4.374   1.026  0.5409  0.7818  1.2126
 9149TIP3    H251643   5.191   4.387   0.915  0.1859 -1.1707  0.6185
 9150TIP3   OH251644   1.673   0.020   2.957  0.2758 -0.0780 -0.2533
 9150TIP3    H151645   1.652  -0.070   2.979  1.1948 -0.7024 -1.8013
 9150TIP3    H251646   1.764   0.031   2.983  0.0862  0.5088  0.1972
 9151TIP3   OH251647   6.440   3.367   3.087 -0.0859  0.1159 -0.1104
 9151TIP3    H151648   6.429   3.318   3.168  0.4447  0.7066  0.3321
 9151TIP3    H251649   6.518   3.330   3.047  1.3826  1.7111  1.0994
 9152TIP3   OH251650   5.836   0.932   1.359 -0.2953  0.0331 -0.1006
 9152TIP3    H151651   5.807   0.925   1.450 -1.2315  1.7656 -0.2394
 9152TIP3    H251652   5.920   0.978   1.364  0.6398 -1.5603 -0.0199
 9153TIP3   OH251653   1.649   2.624   1.726 -0.4779 -0.8099  0.3703
 9153TIP3    H151654   1.633   2.718   1.725  0.3622 -0.6591  0.5412
 9153TIP3    H251655   1.577   2.588   1.778  0.8385  0.1047  3.0458
 9154TIP3   OH251656   3.274   2.936   3.028 -0.4129 -0.4242  0.2340
 9154TIP3    H151657   3.369   2.950   3.019 -0.6208  0.0931 -1.6866
 9154TIP3    H251658   3.256   2.952   3.120  1.2038  0.7280  0.4020
 9155TIP3   OH251659   6.181   6.329   2.066  0.2720  0.0251  0.2333
 9155TIP3    H151660   6.176   6.421   2.093 -0.2758 -0.2242  1.0130
 9155TIP3    H251661   6.125   6.323   1.989  0.9881  0.5203 -0.3336
 9156TIP3   OH251662   6.461   4.211   3.529  0.3117  0.2965  0.6919
 9156TIP3    H151663   6.386   4.180   3.580 -0.5877  2.6085  0.8906
 9156TIP3    H251664   6.537   4.184   3.580 -0.4865  0.2702  1.9170
 9157TIP3   OH251665   1.512   2.862   2.681  0.1395 -0.0036  0.2389
 9157TIP3    H151666   1.526   2.796   2.612  0.2637  0.2195  0.0520
 9157TIP3    H251667   1.542   2.944   2.643 -2.1571  0.6044 -0.3888
 9158TIP3   OH251668   3.822   6.404   1.349 -0.2942 -0.1902 -0.6984
 9158TIP3    H151669   3.890   6.409   1.282  2.0778  0.4194  1.5605
 9158TIP3    H251670   3.856   6.340   1.412 -2.3349 -0.6257  0.0214
 9159TIP3   OH251671   0.170   0.700   1.608  0.4834  0.0334 -0.1207
 9159TIP3    H151672   0.179   0.795   1.605  0.9085  0.0319  0.9165
 9159TIP3    H251673   0.246   0.669   1.656 -0.9334 -0.6083  1.8411
 9160TIP3   OH251674   0.329   4.298   0.903 -0.2150 -0.0246  0.1605
 9160TIP3    H151675   0.361   4.317   0.992  2.4083 -0.5659 -0.6037
 9160TIP3    H251676   0.305   4.206   0.905  0.9748 -0.3515  0.0287
 9161TIP3   OH251677   4.401   6.615   0.730 -0.0641 -0.0710  0.4530
 9161TIP3    H151678   4.418   6.639   0.639 -0.3883  1.8627  0.8514
 9161TIP3    H251679   4.438   6.688   0.781 -3.2490  0.8590  1.6535
 9162TIP3   OH251680   3.336   2.994   3.845  0.0562  0.2800  0.4018
 9162TIP3    H151681   3.243   2.982   3.861 -0.0844 -0.3693 -0.7782
 9162TIP3    H251682   3.346   2.983   3.750  1.3906 -0.1213  0.5614
 9163TIP3   OH251683   1.176   2.890   3.414 -0.3893 -0.0202  0.2425
 9163TIP3    H151684   1.253   2.891   3.358 -0.0641  0.9664  0.6711
 9163TIP3    H251685   1.201   2.944   3.489 -1.2914 -0.1751  0.6640
 9164TIP3   OH251686   1.358   2.010   0.416  0.5102 -0.1356  0.1085
 9164TIP3    H151687   1.441   2.031   0.457  1.5424 -2.2141 -0.7866
 9164TIP3    H251688   1.316   2.095   0.402  1.3398  0.8058  2.8010
 9165TIP3   OH251689   2.937   4.170   2.818 -0.6967  0.2078  0.6029
 9165TIP3    H151690   3.009   4.229   2.795 -0.6357  0.6557  1.8885
 9165TIP3    H251691   2.943   4.098   2.754  1.7956 -0.5091  1.5456
 9166TIP3   OH251692   6.506   6.611   1.305  0.4586  0.1820  1.0192
 9166TIP3    H151693   6.537   6.699   1.326  2.5280 -0.2138 -0.0780
 9166TIP3    H251694   6.586   6.558   1.302 -0.5027 -1.2855 -0.4053
 9167TIP3   OH251695   4.710   2.709   3.353  0.5496  0.4531 -0.0916
 9167TIP3    H151696   4.780   2.764   3.390 -0.2932  0.3838  1.6968
 9167TIP3    H251697   4.665   2.673   3.429 -2.3683  1.6317 -1.1254
 9168TIP3   OH251698   6.263   3.621   0.751 -0.1209  0.2067  0.0699
 9168TIP3    H151699   6.311   3.702   0.769 -0.1554  0.1244  0.5416
 9168TIP3    H251700   6.326   3.551   0.768 -0.2733  0.1146  0.2637
 9169TIP3   OH251701   0.618   2.242   1.441  0.2040 -0.1485  0.1782
 9169TIP3    H151702   0.559   2.186   1.391  0.7072 -1.0493  0.5830
 9169TIP3    H251703   0.603   2.219   1.532  2.6949 -2.0128  0.2363
 9170TIP3   OH251704   3.842   3.734   2.162 -0.2710 -0.3909 -0.0827
 9170TIP3    H151705   3.790   3.680   2.222 -0.5961  0.2123  0.1932
 9170TIP3    H251706   3.804   3.822   2.170  0.1954 -0.1361 -0.5811
 9171TIP3   OH251707   2.291   4.898   1.934 -0.6028  0.1462 -0.2793
 9171TIP3    H151708   2.306   4.961   2.005 -1.1378  0.1617 -0.1680
 9171TIP3    H251709   2.336   4.935   1.859 -0.2207  0.2478 -0.0018
 9172TIP3   OH251710   5.361   0.366   1.719 -0.5345  0.1935 -0.1434
 9172TIP3    H151711   5.268   0.361   1.741 -0.4725  1.0047  0.3430
 9172TIP3    H251712   5.385   0.457   1.737  0.5188 -0.1837  0.4108
 9173TIP3   OH251713   0.674   4.419   3.046 -0.0763 -0.2687  0.6996
 9173TIP3    H151714   0.713   4.456   2.966 -0.1094 -1.1632  0.2579
 9173TIP3    H251715   0.634   4.494   3.089 -0.6546  0.1374 -0.4761
 9174TIP3   OH251716   1.806   3.062   3.362  0.0860 -0.4609 -0.1697
 9174TIP3    H151717   1.775   2.995   3.423 -1.5174 -0.1651 -0.6206
 9174TIP3    H251718   1.889   3.091   3.399 -1.4618  0.7202  2.6833
 9175TIP3   OH251719   1.502   5.956   2.900  0.3150  0.2475 -0.2777
 9175TIP3    H151720   1.410   5.981   2.912  0.0533  0.5660 -2.4723
 9175TIP3    H251721   1.498   5.882   2.839  1.5673  1.5494 -2.0157
 9176TIP3   OH251722   1.181   0.249   2.910 -0.2702  0.2490  0.1760
 9176TIP3    H151723   1.185   0.294   2.826  0.0552  0.7154  0.4326
 9176TIP3    H251724   1.242   0.298   2.966 -0.5915  0.0380  0.7204
 9177TIP3   OH251725   5.116   5.787   0.844 -0.0301 -0.2314  0.2324
 9177TIP3    H151726   5.021   5.794   0.834 -0.0382 -1.2389 -0.5999
 9177TIP3    H251727   5.151   5.871   0.814 -0.7786  1.2836  3.2004
 9178TIP3   OH251728   5.326   4.206   2.218  0.0313 -0.9983  0.3793
 9178TIP3    H151729   5.292   4.117   2.214  0.2443 -1.0945  0.7340
 9178TIP3    H251730   5.248   4.261   2.212 -0.2345 -1.2215  1.5798
 9179TIP3   OH251731   0.602   4.161   2.359  0.3493  0.1520  0.2436
 9179TIP3    H151732   0.676   4.196   2.309 -0.6615  1.1314 -0.6370
 9179TIP3    H251733   0.616   4.067   2.361 -0.1990 -0.1168 -3.0484
 9180TIP3   OH251734   2.932   0.460   0.644 -0.5287  0.3557 -0.6965
 9180TIP3    H151735   2.860   0.463   0.580 -1.8334  0.7032  0.7255
 9180TIP3    H251736   2.963   0.551   0.649 -2.0019  0.8261  0.8204
 9181TIP3   OH251737   1.809   4.434   2.170 -0.2857 -0.3549  0.7984
 9181TIP3    H151738   1.899   4.401   2.170 -0.3154 -0.4422  1.2927
 9181TIP3    H251739   1.820   4.529   2.177 -0.2404 -0.4212  1.8068
 9182TIP3   OH251740   0.716   1.482   3.371 -0.2872 -0.2400  0.3154
 9182TIP3    H151741   0.806   1.514   3.368 -0.8229  1.3330 -1.5031
 9182TIP3    H251742   0.692   1.486   3.464  1.2802 -0.0206  0.7403
 9183TIP3   OH251743   2.517   2.914   2.041 -0.4092  0.8568  0.3718
 9183TIP3    H151744   2.538   2.821   2.047  0.4926  1.0206  0.0381
 9183TIP3    H251745   2.425   2.921   2.067 -0.4072 -0.0891  0.6505
 9184TIP3   OH251746   1.236   1.271   2.054  0.2599  0.2252  0.2017
 9184TIP3    H151747   1.233   1.361   2.085 -1.5828 -0.4054  2.1022
 9184TIP3    H251748   1.317   1.265   2.005  0.1864  3.0381 -0.4147
 9185TIP3   OH251749   5.502   2.998   1.224  0.5308 -0.2725  0.2811
 9185TIP3    H151750   5.465   2.978   1.138  0.5152  0.6370  0.0734
 9185TIP3    H251751   5.431   2.977   1.286 -0.4099  1.5526 -0.1219
 9186TIP3   OH251752   3.454   1.167   1.665  0.5487  0.2728  0.7581
 9186TIP3    H151753   3.537   1.210   1.685  0.8578  0.1371 -0.1780
 9186TIP3    H251754   3.451   1.163   1.569 -0.9333  1.0324  0.7360
 9187TIP3   OH251755   5.030   6.138   2.270 -0.0643 -0.6320 -0.2457
 9187TIP3    H151756   5.090   6.085   2.322 -0.6964 -0.5918  0.5674
 9187TIP3    H251757   5.049   6.116   2.179 -0.3124 -2.2542  0.0727
 9188TIP3   OH251758   4.728   4.058   4.153  0.3740  0.3770 -0.6381
 9188TIP3    H151759   4.660   4.017   4.207 -0.4093  1.3813 -0.8373
 9188TIP3    H251760   4.759   3.987   4.096 -0.0920 -0.2327 -0.1497
 9189TIP3   OH251761   0.866   5.020   1.649  0.6508  0.2093 -0.0230
 9189TIP3    H151762   0.859   5.021   1.745  0.9385  3.3726  0.0738
 9189TIP3    H251763   0.777   5.034   1.618  0.7717  0.7305 -0.1462
 9190TIP3   OH251764   0.596   0.846   3.220 -0.1616  0.2890 -0.0431
 9190TIP3    H151765   0.568   0.806   3.138  0.5370  0.8510 -0.5666
 9190TIP3    H251766   0.590   0.775   3.284 -0.2753 -0.2822 -0.6729
 9191TIP3   OH251767   2.007   5.859   3.702  0.1305 -0.0079 -0.4803
 9191TIP3    H151768   2.091   5.905   3.698  0.2356 -0.2327 -0.9505
 9191TIP3    H251769   1.944   5.926   3.730  0.5377  0.0527  0.3345
 9192TIP3   OH251770   2.624   1.905   0.706  0.4190  0.5120  0.0179
 9192TIP3    H151771   2.592   1.887   0.618  1.5502 -1.4955 -0.0544
 9192TIP3    H251772   2.673   1.826   0.730  2.3546  2.0352  1.4263
 9193TIP3   OH251773   1.458   5.708   0.582  0.1632  0.9238 -0.0943
 9193TIP3    H151774   1.510   5.638   0.620 -0.1161 -0.1010 -1.5040
 9193TIP3    H251775   1.500   5.727   0.498  0.5134  2.8087  0.4704
 9194TIP3   OH251776   5.455   6.263   1.998 -1.0856 -0.3622  0.0179
 9194TIP3    H151777   5.397   6.339   2.009 -0.7884  0.0218 -0.9480
 9194TIP3    H251778   5.436   6.207   2.073 -3.2803 -0.6316 -0.6764
 9195TIP3   OH251779   1.548   6.368   2.965 -0.2140  0.4979  0.1905
 9195TIP3    H151780   1.494   6.353   3.043 -1.2946  1.0506 -0.4142
 9195TIP3    H251781   1.485   6.371   2.893  0.8690 -1.1860 -0.8958
 9196TIP3   OH251782   1.928   3.812   1.055  0.4497  0.3749 -0.2983
 9196TIP3    H151783   1.884   3.886   1.012  0.7110  1.4391  1.1968
 9196TIP3    H251784   1.986   3.776   0.987 -0.9594  0.4254 -1.5809
 9197TIP3   OH251785   3.642   0.460   3.080 -0.2981  0.4263  0.4659
 9197TIP3    H151786   3.599   0.545   3.077  1.0748  1.1437 -1.0205
 9197TIP3    H251787   3.621   0.424   3.166 -1.7840  1.7899  0.7083
 9198TIP3   OH251788   2.800   5.684   1.845 -0.3803  0.0414 -1.1329
 9198TIP3    H151789   2.747   5.659   1.769 -1.9088 -2.9435  0.7275
 9198TIP3    H251790   2.739   5.734   1.900  0.3179  1.0303 -1.2390
 9199TIP3   OH251791   4.257   1.772   1.198 -0.0690 -0.7166  0.4972
 9199TIP3    H151792   4.274   1.856   1.240 -1.9685 -0.0977  0.1205
 9199TIP3    H251793   4.337   1.753   1.149  0.6984  0.4551  1.2414
 9200TIP3   OH251794   0.454   3.588   3.578 -0.1675 -0.3932  0.4311
 9200TIP3    H151795   0.371   3.632   3.560  0.5117 -0.0962 -2.4425
 9200TIP3    H251796   0.431   3.495   3.578 -0.6043 -0.2915  0.3123
 9201TIP3   OH251797   4.333   3.224   3.040 -0.2852  0.2776 -0.3699
 9201TIP3    H151798   4.343   3.303   3.092 -2.0588  1.0009 -1.0379
 9201TIP3    H251799   4.422   3.202   3.012  0.4190  1.1671  1.0357
 9202TIP3   OH251800   6.393   1.547   2.770 -0.1477 -0.2759  0.1912
 9202TIP3    H151801   6.401   1.636   2.737  0.6384 -0.0281  0.9980
 9202TIP3    H251802   6.407   1.554   2.864 -0.4915 -1.1997  0.3281
 9203TIP3   OH251803   1.187   1.033   2.539 -0.4332 -0.1028  0.3425
 9203TIP3    H151804   1.158   1.093   2.470  0.2167  3.4036  2.8068
 9203TIP3    H251805   1.111   1.022   2.596 -0.3883 -1.2380  0.2025
 9204TIP3   OH251806   1.132   4.161   3.455 -0.4937 -0.0165 -0.4373
 9204TIP3    H151807   1.154   4.069   3.472 -2.2936 -0.5813 -0.9362
 9204TIP3    H251808   1.105   4.163   3.364 -0.1033  1.0957 -0.5367
 9205TIP3   OH251809   2.783   1.409   0.911 -0.2122  0.0526  0.3617
 9205TIP3    H151810   2.692   1.417   0.882  0.0967 -2.7706 -1.9084
 9205TIP3    H251811   2.793   1.316   0.934  2.7214 -0.4493 -2.2187
 9206TIP3   OH251812   0.217   3.682   2.503 -0.0108 -0.1155  0.1767
 9206TIP3    H151813   0.165   3.714   2.576  0.0321  0.5017 -0.0479
 9206TIP3    H251814   0.163   3.699   2.426 -0.7895 -2.3128  0.1729
 9207TIP3   OH251815   5.628   3.160   3.257  0.3325 -0.0132 -0.3393
 9207TIP3    H151816   5.687   3.181   3.329  0.5929 -0.2480 -0.4832
 9207TIP3    H251817   5.615   3.065   3.264  0.6104 -0.0854 -0.7923
 9208TIP3   OH251818   5.270   0.830   1.700 -0.0640  0.0714 -0.2824
 9208TIP3    H151819   5.324   0.900   1.662  2.2792  0.8338  3.7794
 9208TIP3    H251820   5.193   0.875   1.735  0.1725  0.2094  0.0683
 9209TIP3   OH251821   1.874   1.094   1.267  0.7004  0.4104  0.2367
 9209TIP3    H151822   1.892   1.185   1.290 -0.0610  1.0575 -1.5880
 9209TIP3    H251823   1.955   1.062   1.229  0.4565  0.8832 -0.7102
 9210TIP3   OH251824   3.226   1.479   0.794 -0.1150  0.1951 -0.2396
 9210TIP3    H151825   3.182   1.397   0.771 -1.9238  1.1372 -0.3734
 9210TIP3    H251826   3.191   1.502   0.880 -0.9416  1.6387 -0.9188
 9211TIP3   OH251827   0.616   1.787   0.812  0.4673  0.1007 -0.0554
 9211TIP3    H151828   0.579   1.845   0.879  2.1396  1.6291 -0.3672
 9211TIP3    H251829   0.698   1.830   0.786 -0.5080  0.1226 -3.7194
 9212TIP3   OH251830   4.169   4.438   1.958 -0.6314  0.0601 -0.1250
 9212TIP3    H151831   4.132   4.351   1.946 -0.7245  0.0522  0.2243
 9212TIP3    H251832   4.225   4.451   1.881 -0.2970 -0.4689  0.0287
 9213TIP3   OH251833   0.918   4.271   2.578 -0.9677 -0.1663 -0.0216
 9213TIP3    H151834   0.878   4.324   2.510 -0.0343 -1.1033 -1.3526
 9213TIP3    H251835   1.010   4.262   2.551 -1.0901 -2.4332  0.1408
 9214TIP3   OH251836   6.078   0.920   1.980  0.0337  0.1054 -0.3753
 9214TIP3    H151837   6.039   0.848   2.029 -0.5130  0.1729 -0.7042
 9214TIP3    H251838   6.166   0.928   2.016  0.5273 -1.4751 -1.0828
 9215TIP3   OH251839   3.133   6.047   2.811 -0.1341  0.1122 -0.2881
 9215TIP3    H151840   3.091   6.081   2.732  0.2086  2.2571  0.4137
 9215TIP3    H251841   3.078   6.078   2.883  1.0657  0.5515  0.4689
 9216TIP3   OH251842   5.547   2.109   1.153 -0.0927 -0.3251  0.1900
 9216TIP3    H151843   5.562   2.202   1.171  0.5088 -0.6629  1.5851
 9216TIP3    H251844   5.587   2.095   1.067 -1.6268  1.0218 -0.8202
 9217TIP3   OH251845   5.794   2.804   3.832  0.0730 -0.3656 -0.2756
 9217TIP3    H151846   5.748   2.725   3.861 -0.8944  0.0070 -0.7748
 9217TIP3    H251847   5.736   2.876   3.857  1.0225  0.2141  0.3246
 9218TIP3   OH251848   3.057   6.427   2.345 -0.6668 -0.1407 -0.4941
 9218TIP3    H151849   3.036   6.519   2.330 -1.3140 -0.0906  0.6495
 9218TIP3    H251850   2.976   6.389   2.378  0.1681 -0.6570  1.0188
 9219TIP3   OH251851   2.774   1.095   3.800  0.1277 -0.0754  0.3432
 9219TIP3    H151852   2.843   1.055   3.853  0.9972  0.2820 -0.4864
 9219TIP3    H251853   2.706   1.028   3.795  0.1089 -0.1830  1.7426
 9220TIP3   OH251854   2.080   5.074   2.928 -0.5497  0.0217 -0.2555
 9220TIP3    H151855   2.067   5.157   2.881 -1.1918 -0.1328 -0.3665
 9220TIP3    H251856   2.132   5.097   3.005  2.8401 -0.1087 -2.3047
 9221TIP3   OH251857   5.782   4.771   0.786  0.3838 -0.1291  0.4789
 9221TIP3    H151858   5.858   4.804   0.739 -2.0555  1.1662 -3.0363
 9221TIP3    H251859   5.740   4.849   0.823 -0.7222 -0.4003 -0.1537
 9222TIP3   OH251860   4.711   6.492   3.598  0.4124  0.1496  0.0705
 9222TIP3    H151861   4.620   6.515   3.576  0.7648  1.1888 -0.3614
 9222TIP3    H251862   4.715   6.397   3.585 -0.6400  0.0697  0.2100
 9223TIP3   OH251863   4.365   1.352   3.095  0.2314 -0.0513 -0.2671
 9223TIP3    H151864   4.431   1.369   3.028  0.5844 -0.6315 -0.0785
 9223TIP3    H251865   4.393   1.269   3.135 -2.0173 -1.7468 -1.9625
 9224TIP3   OH251866   3.244   1.338   0.454  0.1828 -0.3125 -0.1308
 9224TIP3    H151867   3.323   1.339   0.507  0.3424  0.5087 -0.3753
 9224TIP3    H251868   3.265   1.392   0.378 -0.9133  0.6679  0.2439
 9225TIP3   OH251869   4.423   4.330   3.537 -0.4289 -0.0553 -0.1381
 9225TIP3    H151870   4.342   4.320   3.488 -1.4535  0.0743  1.4372
 9225TIP3    H251871   4.419   4.261   3.603  2.6066 -2.5760 -2.3258
 9226TIP3   OH251872   2.986   1.772   0.634 -0.2239 -0.2833 -0.2422
 9226TIP3    H151873   3.016   1.764   0.544  1.2656  0.1584  0.1945
 9226TIP3    H251874   2.918   1.705   0.643 -1.0421  0.2659 -1.9305
 9227TIP3   OH251875   5.500   5.311   1.188  0.1533  0.3122 -0.4756
 9227TIP3    H151876   5.534   5.333   1.101  0.3419  1.0898 -0.2155
 9227TIP3    H251877   5.457   5.227   1.176  0.1568  0.4204 -1.3303
 9228TIP3   OH251878   2.383   4.063   1.869 -0.0034  0.7385  0.2876
 9228TIP3    H151879   2.406   4.099   1.784  1.8275  1.3620  1.0048
 9228TIP3    H251880   2.466   4.052   1.915 -0.7926 -1.0049  1.4627
 9229TIP3   OH251881   2.691   2.065   1.151  0.7610  1.1454 -0.2038
 9229TIP3    H151882   2.715   2.044   1.060  1.4508  0.2118  0.1697
 9229TIP3    H251883   2.679   1.979   1.192  1.2012  1.5406  0.7738
 9230TIP3   OH251884   4.532   5.675   3.064  0.1015  0.1473 -0.0267
 9230TIP3    H151885   4.608   5.639   3.018 -0.4764 -1.2071  0.0406
 9230TIP3    H251886   4.479   5.599   3.087 -1.0020  1.0200  0.4324
 9231TIP3   OH251887   3.149   5.389   2.864  0.2458  0.0109 -0.5453
 9231TIP3    H151888   3.082   5.345   2.916  0.4414 -0.8844 -1.0224
 9231TIP3    H251889   3.194   5.446   2.925 -0.2112 -0.2392  0.0318
 9232TIP3   OH251890   3.850   4.655   0.891 -0.8790  0.0492  0.6981
 9232TIP3    H151891   3.812   4.728   0.844 -1.1387  2.5188  4.3374
 9232TIP3    H251892   3.818   4.577   0.845 -0.6942  2.1006 -3.2828
 9233TIP3   OH251893   1.993   6.142   4.274  0.2277 -0.1630 -0.0142
 9233TIP3    H151894   1.930   6.134   4.346  1.4479 -0.5647  1.0512
 9233TIP3    H251895   2.040   6.223   4.292 -0.5815  0.6280 -1.3231
 9234TIP3   OH251896   2.621   4.802   1.984  0.0524  0.1394  0.2698
 9234TIP3    H151897   2.541   4.775   2.029 -0.2830 -1.2685 -1.0910
 9234TIP3    H251898   2.595   4.813   1.893  0.9742  1.7919  0.1722
 9235TIP3   OH251899   0.383   3.322   3.560  0.1898 -1.1447 -0.6419
 9235TIP3    H151900   0.397   3.351   3.470  2.2647 -1.4141 -0.4425
 9235TIP3    H251901   0.362   3.229   3.553 -0.6952 -0.9345 -0.8954
 9236TIP3   OH251902   1.428   2.502   1.346  0.0871 -0.0472  0.8932
 9236TIP3    H151903   1.338   2.472   1.334  0.3293 -0.6058  0.4688
 9236TIP3    H251904   1.424   2.597   1.334 -0.2978 -0.1700  0.0345
 9237TIP3   OH251905   0.932   6.325   1.555 -0.0049 -0.2788  0.0343
 9237TIP3    H151906   0.978   6.334   1.472  0.8541  2.5306  0.6935
 9237TIP3    H251907   0.942   6.233   1.578  0.0867 -1.0422 -2.7384
 9238TIP3   OH251908   0.299   2.258   1.915 -0.2707 -0.5248 -0.1832
 9238TIP3    H151909   0.204   2.271   1.920 -0.3703 -0.6984 -1.2620
 9238TIP3    H251910   0.332   2.340   1.878 -0.1827 -0.9668 -1.1308
 9239TIP3   OH251911   5.300   1.064   0.632 -0.5334  0.3171 -0.0104
 9239TIP3    H151912   5.267   1.043   0.545 -2.6197  2.3360  0.1980
 9239TIP3    H251913   5.222   1.090   0.681  1.0228  2.7061  1.3868
 9240TIP3   OH251914   0.601   0.224   3.730 -0.3054  0.2748 -0.2792
 9240TIP3    H151915   0.638   0.193   3.648  0.0907  2.3405 -0.9380
 9240TIP3    H251916   0.615   0.152   3.792  0.3665 -0.8874 -1.7395
 9241TIP3   OH251917   4.508   1.839   3.109 -0.0651  0.1124  0.1979
 9241TIP3    H151918   4.531   1.932   3.103 -1.6415  0.5416  0.4954
 9241TIP3    H251919   4.505   1.809   3.018  0.1470  0.4272  0.0855
 9242TIP3   OH251920   5.628   3.466   4.037 -0.1830 -0.3007  0.0806
 9242TIP3    H151921   5.573   3.543   4.051  0.7072  0.2835  0.4537
 9242TIP3    H251922   5.714   3.492   4.069  0.0088 -1.6335  0.7141
 9243TIP3   OH251923   4.526   3.105   2.564  0.0480  0.0990 -0.2884
 9243TIP3    H151924   4.472   3.093   2.486  1.4950 -1.6585 -1.0990
 9243TIP3    H251925   4.474   3.070   2.636 -0.8477  0.7070 -0.6197
 9244TIP3   OH251926   1.867   1.367   0.621 -0.5631  0.2692 -0.1210
 9244TIP3    H151927   1.916   1.372   0.703  1.0487  1.4879 -1.0992
 9244TIP3    H251928   1.836   1.277   0.616  0.2937 -0.1187  1.2688
 9245TIP3   OH251929   4.604   0.026   1.139 -0.0480 -0.6310 -0.1038
 9245TIP3    H151930   4.661   0.038   1.063 -0.0158  0.7645  0.1111
 9245TIP3    H251931   4.516   0.026   1.104 -0.0813  0.8154 -0.1050
 9246TIP3   OH251932   6.298   0.407   3.547  0.3557 -0.9500 -0.0839
 9246TIP3    H151933   6.370   0.449   3.499  0.5684 -0.8911  0.2801
 9246TIP3    H251934   6.231   0.475   3.555  0.0983 -1.1144 -0.7485
 9247TIP3   OH251935   4.810   1.620   1.297  0.2983 -0.5932 -0.2888
 9247TIP3    H151936   4.833   1.707   1.330  1.9008 -1.8245  2.2162
 9247TIP3    H251937   4.889   1.568   1.311 -0.8389 -2.6332 -1.0332
 9248TIP3   OH251938   0.955   6.047   1.592  0.5139  0.0241 -0.1248
 9248TIP3    H151939   0.894   5.987   1.635  0.8558  0.4544  0.9899
 9248TIP3    H251940   1.041   6.010   1.607  0.8274  1.3062  1.5082
 9249TIP3   OH251941   5.961   6.492   1.628  0.2532  0.5283 -0.1276
 9249TIP3    H151942   5.989   6.439   1.554  1.2541  0.7920  0.0465
 9249TIP3    H251943   5.949   6.580   1.592 -1.1479  0.2702 -0.3614
 9250TIP3   OH251944   2.974   3.515   3.038 -0.5715  0.1097  0.2247
 9250TIP3    H151945   2.951   3.431   3.079 -1.3316  0.4834  0.5872
 9250TIP3    H251946   2.892   3.564   3.036  0.0856  1.3124  1.0911
 9251TIP3   OH251947   3.697   2.244   3.442  0.0703 -0.5544  0.4601
 9251TIP3    H151948   3.707   2.162   3.395 -1.9622 -0.4602 -0.2248
 9251TIP3    H251949   3.746   2.231   3.524 -0.2658 -2.4602  0.3967
 9252TIP3   OH251950   1.271   3.457   1.260  0.3045 -0.5311 -0.3251
 9252TIP3    H151951   1.350   3.421   1.220  0.6640 -0.3712  0.2227
 9252TIP3    H251952   1.201   3.396   1.236  0.7730 -1.2078 -0.0076
 9253TIP3   OH251953   3.619   3.471   2.733 -0.2966 -0.2035  0.0408
 9253TIP3    H151954   3.558   3.474   2.659  2.7347  0.5165 -2.6163
 9253TIP3    H251955   3.617   3.559   2.770 -1.0282 -0.2660  0.1725
 9254TIP3   OH251956   1.222   6.050   2.957  0.4149  0.3046  0.1613
 9254TIP3    H151957   1.205   6.141   2.982 -0.8638  0.0496  0.2504
 9254TIP3    H251958   1.142   6.003   2.978  1.1199 -0.8958  0.2885
 9255TIP3   OH251959   1.568   2.259   1.311 -0.1659 -0.1951 -0.2439
 9255TIP3    H151960   1.591   2.307   1.391  1.4863  2.5085 -2.1793
 9255TIP3    H251961   1.474   2.274   1.300 -0.0230  1.1118  0.1776
 9256TIP3   OH251962   4.820   4.357   3.109  0.2629 -0.7726  0.0863
 9256TIP3    H151963   4.746   4.348   3.050  0.5209  1.6650 -0.7472
 9256TIP3    H251964   4.781   4.378   3.194 -0.0430 -1.6950  0.1777
 9257TIP3   OH251965   4.063   2.286   0.569  0.7069 -0.3787  0.0432
 9257TIP3    H151966   3.971   2.277   0.592  0.3048  0.5291 -1.0733
 9257TIP3    H251967   4.086   2.203   0.528  0.9040 -1.2758  1.8948
 9258TIP3   OH251968   4.599   0.295   1.479  0.4700 -0.4657 -0.2278
 9258TIP3    H151969   4.526   0.350   1.508 -0.0473 -0.2474 -1.8285
 9258TIP3    H251970   4.558   0.213   1.452  0.7968 -0.3413 -1.1453
 9259TIP3   OH251971   1.213   1.525   1.343 -0.2135 -0.1770 -0.1116
 9259TIP3    H151972   1.294   1.496   1.384 -0.2582 -2.6406 -1.6206
 9259TIP3    H251973   1.145   1.468   1.380 -1.1496  1.2097  0.4090
 9260TIP3   OH251974   2.174   6.483   0.653  0.0877 -0.2775  0.5063
 9260TIP3    H151975   2.243   6.540   0.685 -0.1199  0.9851 -1.1408
 9260TIP3    H251976   2.219   6.402   0.629  0.7148 -0.0813  0.9970
 9261TIP3   OH251977   0.330   2.525   1.805  0.3768 -0.4175 -0.7941
 9261TIP3    H151978   0.410   2.499   1.760 -0.7466 -1.2423 -2.4068
 9261TIP3    H251979   0.320   2.618   1.787  1.0378 -0.2731 -0.4456
 9262TIP3   OH251980   0.261   2.101   3.371  0.2090  0.0167  0.4286
 9262TIP3    H151981   0.295   2.049   3.444  0.0339 -1.4573 -0.4835
 9262TIP3    H251982   0.280   2.048   3.293  1.2428  1.9670 -0.7210
 9263TIP3   OH251983   6.255   0.472   1.994 -0.2419  0.0522 -0.0966
 9263TIP3    H151984   6.205   0.512   1.923 -2.1669 -0.2418  1.0110
 9263TIP3    H251985   6.286   0.388   1.958  1.2767  1.1241 -1.4553
 9264TIP3   OH251986   5.375   5.065   1.142  0.3858 -0.0941 -0.0991
 9264TIP3    H151987   5.376   4.978   1.182 -0.6155  0.5796  1.4772
 9264TIP3    H251988   5.284   5.078   1.116  0.1850  1.0838  1.1096
 9265TIP3   OH251989   4.602   3.024   2.857  0.1107  0.2073  0.6160
 9265TIP3    H151990   4.531   2.961   2.849 -1.4141  1.8676  0.4873
 9265TIP3    H251991   4.637   3.032   2.768 -0.6681  0.6318  0.3464
 9266TIP3   OH251992   0.176   6.407   1.014  0.1240 -0.2351  0.2142
 9266TIP3    H151993   0.202   6.386   0.924  1.0973  1.2399  0.1214
 9266TIP3    H251994   0.097   6.460   1.005  0.8235  0.8146  0.1601
 9267TIP3   OH251995   4.468   3.553   1.646 -0.0048 -0.3390  0.0171
 9267TIP3    H151996   4.531   3.620   1.618  0.1458 -1.0382 -1.3834
 9267TIP3    H251997   4.513   3.470   1.630 -0.6693 -0.8152  0.5731
 9268TIP3   OH251998   2.415   5.052   2.815 -0.2448 -0.4052 -0.3489
 9268TIP3    H151999   2.420   4.967   2.858 -0.3061 -0.6415 -0.8020
 9268TIP3    H252000   2.325   5.082   2.831  0.1310  0.1372  0.8523
 9269TIP3   OH252001   6.388   4.781   0.717 -0.2550  0.2336  0.6309
 9269TIP3    H152002   6.390   4.870   0.681  0.6773  0.3531  0.9614
 9269TIP3    H252003   6.466   4.775   0.772  0.1713 -1.0715 -0.0667
 9270TIP3   OH252004   6.038   5.042   4.527  0.1820  0.3310 -0.0031
 9270TIP3    H152005   6.079   5.121   4.493  0.4711  0.3280  0.3268
 9270TIP3    H252006   6.050   4.977   4.459  0.6434  0.3567  0.0524
 9271TIP3   OH252007   2.389   0.042   3.598  0.1557 -0.5892 -0.3332
 9271TIP3    H152008   2.467   0.085   3.563 -0.8443  0.7114 -1.0654
 9271TIP3    H252009   2.408   0.030   3.691  1.2762 -0.4328 -0.5260
 9272TIP3   OH252010   6.600   2.561   3.248  0.2616 -0.0217 -0.0815
 9272TIP3    H152011   6.652   2.535   3.324  0.8741 -1.2587 -0.8869
 9272TIP3    H252012   6.604   2.657   3.248 -0.9569  0.0799  2.2311
 9273TIP3   OH252013   1.515   3.423   2.588 -0.6194 -0.0271  0.6655
 9273TIP3    H152014   1.496   3.451   2.678 -1.1617 -0.1642  0.5981
 9273TIP3    H252015   1.535   3.330   2.596  0.0871  0.1235  0.7403
 9274TIP3   OH252016   1.494   3.150   3.047 -0.2441 -0.1627  0.3093
 9274TIP3    H152017   1.519   3.059   3.031 -2.4822 -0.9718  1.0730
 9274TIP3    H252018   1.572   3.200   3.026  0.4162 -2.0590 -2.2946
 9275TIP3   OH252019   0.326   5.658   1.046 -0.3379  0.4298 -0.2437
 9275TIP3    H152020   0.344   5.657   1.140 -1.3086  2.1271  0.0204
 9275TIP3    H252021   0.405   5.695   1.006 -0.0271 -0.0453 -0.0743
 9276TIP3   OH252022   5.370   2.477   0.796 -0.0026 -0.0279 -0.0368
 9276TIP3    H152023   5.313   2.463   0.872  0.2442 -0.6395  0.0382
 9276TIP3    H252024   5.313   2.466   0.720 -0.3566  1.0601  0.0609
 9277TIP3   OH252025   0.605   3.561   0.949 -0.0276  0.7851  0.2041
 9277TIP3    H152026   0.682   3.548   0.894 -0.3012  0.2759 -0.0613
 9277TIP3    H252027   0.568   3.644   0.919 -0.8183 -0.0262 -1.1835
 9278TIP3   OH252028   5.137   4.967   1.455  0.0965  0.0090 -0.1996
 9278TIP3    H152029   5.173   4.888   1.415  3.5665  1.1119  0.4079
 9278TIP3    H252030   5.124   4.944   1.547 -1.3845 -0.5252 -0.5069
 9279TIP3   OH252031   5.310   4.100   3.403 -0.4270 -0.0599  0.4035
 9279TIP3    H152032   5.334   4.008   3.405 -0.3538 -0.0332  0.7712
 9279TIP3    H252033   5.251   4.112   3.477 -1.3690 -0.0653 -0.3255
 9280TIP3   OH252034   4.103   4.515   2.230 -0.3739  0.2169 -0.1283
 9280TIP3    H152035   4.035   4.449   2.217  0.5126 -1.3738  2.4504
 9280TIP3    H252036   4.145   4.524   2.145 -1.2081 -1.7770 -0.8008
 9281TIP3   OH252037   3.938   5.565   3.706  0.1607 -0.0499 -0.2447
 9281TIP3    H152038   3.862   5.519   3.669  0.6491 -1.4526  0.4057
 9281TIP3    H252039   3.993   5.495   3.741  0.8230  1.0652  1.0416
 9282TIP3   OH252040   6.552   4.117   1.246  0.4735 -0.4513 -0.1630
 9282TIP3    H152041   6.485   4.146   1.307 -0.6419 -2.8747 -0.1257
 9282TIP3    H252042   6.503   4.080   1.172  1.7914  0.1191 -1.3723
 9283TIP3   OH252043   2.412   0.373   1.328  0.2369  0.7165  0.4423
 9283TIP3    H152044   2.426   0.443   1.265  0.8360  0.5577  0.3958
 9283TIP3    H252045   2.320   0.381   1.352  0.0212  0.8317 -0.3921
 9284TIP3   OH252046   5.030   0.297   2.082  0.0020  0.1026 -0.1165
 9284TIP3    H152047   4.990   0.210   2.081  0.3757 -0.0743 -1.1175
 9284TIP3    H252048   5.074   0.302   2.167 -0.5968 -0.4190  0.2318
 9285TIP3   OH252049   6.280   0.733   0.829 -0.7808 -0.4208 -0.1211
 9285TIP3    H152050   6.210   0.677   0.863 -1.0562  0.5435  0.9529
 9285TIP3    H252051   6.359   0.702   0.874 -0.1648 -2.4728 -2.3884
 9286TIP3   OH252052   4.862   4.249   1.826  0.1266 -0.2121  0.2079
 9286TIP3    H152053   4.867   4.194   1.905 -1.4849  0.1365  0.5904
 9286TIP3    H252054   4.948   4.291   1.820  1.1451 -2.1875  0.3191
 9287TIP3   OH252055   5.423   0.132   1.583 -0.3149 -0.0948  0.3415
 9287TIP3    H152056   5.415   0.045   1.622  0.2092 -0.0267  0.6095
 9287TIP3    H252057   5.372   0.189   1.640 -0.3111 -0.1557  0.4052
 9288TIP3   OH252058   6.143   4.064   2.652 -0.0245 -0.5551 -0.0885
 9288TIP3    H152059   6.183   4.142   2.691  1.8282 -1.4163 -0.1631
 9288TIP3    H252060   6.071   4.098   2.600 -0.7663  0.8925  1.7477
 9289TIP3   OH252061   0.850   3.905   3.043 -0.2778 -0.4475 -0.1352
 9289TIP3    H152062   0.776   3.907   3.104 -0.3778 -1.0170 -0.2321
 9289TIP3    H252063   0.809   3.917   2.957 -0.2661 -0.8005 -0.1922
 9290TIP3   OH252064   1.068   1.211   3.180 -0.1487 -0.0263 -0.5457
 9290TIP3    H152065   1.065   1.274   3.252 -1.9755  0.4764 -1.0254
 9290TIP3    H252066   1.090   1.263   3.103 -2.1865  0.1861 -1.0391
 9291TIP3   OH252067   2.156   3.858   1.240 -0.3782  0.0304  0.1890
 9291TIP3    H152068   2.084   3.853   1.177 -0.9661  1.5031  0.6932
 9291TIP3    H252069   2.208   3.934   1.213 -1.0325  1.1275  1.7971
 9292TIP3   OH252070   2.453   4.901   0.980  0.1633  0.0836  0.3148
 9292TIP3    H152071   2.485   4.846   1.052 -0.3069  1.2272  1.4450
 9292TIP3    H252072   2.361   4.876   0.971  0.1823  0.0512  0.2101
 9293TIP3   OH252073   4.414   1.981   0.584 -0.4597  0.0291 -0.0373
 9293TIP3    H152074   4.385   1.990   0.675 -2.7371 -0.8892 -0.6179
 9293TIP3    H252075   4.461   1.898   0.581  2.8387  1.6539  0.9683
 9294TIP3   OH252076   5.040   4.166   2.550  0.0551 -0.2322 -0.6919
 9294TIP3    H152077   5.064   4.075   2.565  0.6244 -0.7115 -3.7582
 9294TIP3    H252078   4.978   4.162   2.476  2.2165  1.9404 -2.7939
 9295TIP3   OH252079   6.017   2.269   3.223 -0.0639 -0.0681 -0.0029
 9295TIP3    H152080   6.102   2.234   3.253 -0.0187 -0.2997 -0.3888
 9295TIP3    H252081   5.956   2.196   3.234  0.0486 -0.3130 -0.8981
 9296TIP3   OH252082   1.092   3.262   3.924  0.0795 -0.6794  0.3400
 9296TIP3    H152083   1.070   3.176   3.891  1.1455 -0.7786 -0.1420
 9296TIP3    H252084   1.188   3.266   3.922  0.0495  0.6000  0.1079
 9297TIP3   OH252085   5.249   3.503   2.201 -0.0085 -0.5194 -0.1318
 9297TIP3    H152086   5.234   3.581   2.147  0.0355  0.1739  0.8297
 9297TIP3    H252087   5.164   3.459   2.204 -0.3290  0.1082  0.2499
 9298TIP3   OH252088   1.348   0.488   3.314 -0.2040 -0.0362 -0.2742
 9298TIP3    H152089   1.294   0.562   3.340  0.8787  0.9457 -0.7395
 9298TIP3    H252090   1.437   0.523   3.308  0.3617 -1.3997 -0.3837
 9299TIP3   OH252091   4.112   6.255   0.638  0.7220  0.0693  0.4268
 9299TIP3    H152092   4.178   6.267   0.706 -0.4586  0.0538  1.6285
 9299TIP3    H252093   4.070   6.172   0.661  0.6072 -0.1687 -0.6076
 9300TIP3   OH252094   5.862   5.099   1.496  0.0923 -0.3259  0.0016
 9300TIP3    H152095   5.808   5.040   1.443 -1.3942  0.7982  0.2046
 9300TIP3    H252096   5.851   5.185   1.456  1.8436 -0.0696  0.0003
 9301TIP3   OH252097   2.128   4.078   3.841  0.7376  0.1101  0.0739
 9301TIP3    H152098   2.083   3.999   3.812  1.8747 -0.1073 -1.2393
 9301TIP3    H252099   2.065   4.148   3.827  0.5826 -0.2537 -1.2143
 9302TIP3   OH252100   0.651   0.483   1.931 -0.1654  0.1673  0.2507
 9302TIP3    H152101   0.649   0.388   1.939 -0.7314  0.1979  0.5569
 9302TIP3    H252102   0.675   0.499   1.839 -0.7415 -0.2865  0.0120
 9303TIP3   OH252103   4.330   0.977   2.699  0.0209 -0.2345  0.2405
 9303TIP3    H152104   4.361   0.903   2.647 -2.3936 -1.3543  0.2791
 9303TIP3    H252105   4.286   1.034   2.636  0.6616  0.5008  0.4388
 9304TIP3   OH252106   1.181   4.675   2.852  0.1327 -0.2600  0.0304
 9304TIP3    H152107   1.275   4.688   2.840 -0.3203  0.8164 -3.2148
 9304TIP3    H252108   1.165   4.584   2.824 -0.0153  0.2389 -1.6432
 9305TIP3   OH252109   6.259   2.695   0.482  0.1572  0.5145 -0.3612
 9305TIP3    H152110   6.273   2.698   0.388 -0.4920  1.8026 -0.4359
 9305TIP3    H252111   6.308   2.618   0.511 -1.3303 -1.1256 -2.0041
 9306TIP3   OH252112   4.024   4.117   2.107 -0.0581  0.4209 -0.2158
 9306TIP3    H152113   4.109   4.080   2.128  0.5911  2.3784  0.8821
 9306TIP3    H252114   4.022   4.122   2.011  1.0194  0.2795 -0.2556
 9307TIP3   OH252115   1.987   2.010   2.401 -0.0554  0.5201 -0.4267
 9307TIP3    H152116   1.943   1.936   2.443 -0.3938 -0.7244 -2.8386
 9307TIP3    H252117   2.013   1.978   2.315  0.3039  3.0415 -1.3501
 9308TIP3   OH252118   2.546   0.282   2.234 -0.3795 -0.3300  0.5121
 9308TIP3    H152119   2.479   0.342   2.267  0.3094  0.1941  1.0049
 9308TIP3    H252120   2.617   0.339   2.206  0.1589 -0.9013  0.6911
 9309TIP3   OH252121   6.043   2.844   1.776  0.0853  0.1687  0.3065
 9309TIP3    H152122   5.986   2.872   1.705 -0.2972  1.2098  0.9987
 9309TIP3    H252123   5.996   2.773   1.819  0.5660 -0.8390 -0.7945
 9310TIP3   OH252124   3.794   1.396   3.861  0.0788 -0.3218  0.3863
 9310TIP3    H152125   3.822   1.460   3.796  1.1348 -0.2785  0.8481
 9310TIP3    H252126   3.700   1.408   3.869  0.2103  0.9551  0.2324
 9311TIP3   OH252127   5.909   6.133   1.146  0.1154 -0.0421 -0.3098
 9311TIP3    H152128   5.838   6.198   1.149 -0.7160 -0.9499  1.8830
 9311TIP3    H252129   5.955   6.145   1.229 -1.0463 -3.2018  0.9473
 9312TIP3   OH252130   0.512   3.896   2.765  0.4448 -0.0291  0.1526
 9312TIP3    H152131   0.491   3.803   2.768  1.3745 -0.2421  0.3391
 9312TIP3    H252132   0.604   3.899   2.738  0.5660  0.8115  0.6322
 9313TIP3   OH252133   2.507   6.404   1.644 -0.0116  0.3748 -0.0539
 9313TIP3    H152134   2.431   6.435   1.594  0.0207  0.9559  0.2454
 9313TIP3    H252135   2.572   6.473   1.632  0.4865 -0.1505 -0.3523
 9314TIP3   OH252136   2.616   1.469   2.150  0.4475 -0.7362 -0.4438
 9314TIP3    H152137   2.558   1.404   2.110  0.7090 -1.7890  0.7913
 9314TIP3    H252138   2.704   1.444   2.120  0.3412  0.5975 -1.9726
 9315TIP3   OH252139   6.235   0.241   1.812 -0.5523 -0.4095 -0.1916
 9315TIP3    H152140   6.299   0.218   1.745  0.3314 -0.7078  0.7181
 9315TIP3    H252141   6.161   0.276   1.764  0.6100  0.7244 -1.2535
 9316TIP3   OH252142   5.710   0.376   3.324  1.0455 -0.2144 -0.2117
 9316TIP3    H152143   5.760   0.336   3.395  1.7952  1.1589  0.0855
 9316TIP3    H252144   5.757   0.458   3.306  0.3090 -0.0788 -1.6359
 9317TIP3   OH252145   2.055   0.447   2.412 -0.8515  0.4164 -0.4437
 9317TIP3    H152146   1.987   0.402   2.362 -0.1255  0.0172 -1.0904
 9317TIP3    H252147   2.091   0.511   2.351  1.5021 -1.5014 -1.2228
 9318TIP3   OH252148   1.977   3.091   0.813  0.3429 -0.7061  0.7796
 9318TIP3    H152149   2.043   3.054   0.871  3.0004 -0.8641 -2.0876
 9318TIP3    H252150   1.921   3.016   0.790  1.0800 -1.2848  0.8414
 9319TIP3   OH252151   1.527   2.197   1.784 -0.4859 -0.2532  0.3649
 9319TIP3    H152152   1.603   2.217   1.729 -0.0941 -1.3042  0.4998
 9319TIP3    H252153   1.565   2.173   1.869 -1.0099 -0.1092  0.6447
 9320TIP3   OH252154   1.658   5.243   0.970  0.1756 -0.1387  0.0235
 9320TIP3    H152155   1.646   5.185   1.046  0.3583 -0.7709 -0.4229
 9320TIP3    H252156   1.569   5.270   0.947 -0.0982 -1.5857 -0.7816
 9321TIP3   OH252157   1.763   6.031   1.389 -0.2107  0.2161 -0.5037
 9321TIP3    H152158   1.820   6.026   1.465  1.0607  2.1422 -1.2630
 9321TIP3    H252159   1.742   5.939   1.369 -0.1892 -0.3653  1.8137
 9322TIP3   OH252160   5.875   5.481   1.000 -0.3316 -0.3320 -0.1766
 9322TIP3    H152161   5.790   5.497   1.042  0.1850  0.3151  0.6534
 9322TIP3    H252162   5.934   5.546   1.039  0.8507 -1.5837  0.2121
 9323TIP3   OH252163   2.360   5.617   1.854  0.1396  0.1191  0.5195
 9323TIP3    H152164   2.318   5.668   1.786 -0.0507 -0.0623  0.4989
 9323TIP3    H252165   2.326   5.528   1.842  0.9037 -0.1336  0.1965
 9324TIP3   OH252166   5.435   6.604   0.895  0.2725 -0.1166 -0.1172
 9324TIP3    H152167   5.400   6.679   0.944  0.9446  0.0468  0.1188
 9324TIP3    H252168   5.519   6.585   0.936  0.4007 -0.6016 -0.5869
 9325TIP3   OH252169   6.523   3.524   2.229  0.0421  0.0048  0.1524
 9325TIP3    H152170   6.591   3.590   2.215  0.1383 -0.6780 -3.8070
 9325TIP3    H252171   6.442   3.575   2.241  0.8123  0.7765  2.7392
 9326TIP3   OH252172   6.334   0.331   1.321  0.4479 -0.0504  0.0320
 9326TIP3    H152173   6.316   0.328   1.226  0.1621 -1.6745  0.1110
 9326TIP3    H252174   6.426   0.353   1.327  0.1773  1.3563 -0.5823
 9327TIP3   OH252175   0.157   3.946   2.377  0.1535 -0.0524 -0.2898
 9327TIP3    H152176   0.108   3.918   2.300  0.8377 -1.9459 -0.0912
 9327TIP3    H252177   0.241   3.978   2.343 -0.1931  0.7142 -0.4376
 9328TIP3   OH252178   2.538   3.730   3.108 -0.3751 -0.4487 -0.3197
 9328TIP3    H152179   2.540   3.682   3.191 -1.1891  0.3491  0.1835
 9328TIP3    H252180   2.446   3.756   3.098 -0.1716 -0.0251 -1.1717
 9329TIP3   OH252181   3.517   3.120   1.774 -0.0650 -0.3933 -0.4306
 9329TIP3    H152182   3.428   3.108   1.810 -0.8219 -1.7570 -2.5728
 9329TIP3    H252183   3.562   3.038   1.796  0.1742 -0.3172 -0.6377
 9330TIP3   OH252184   2.154   4.309   2.913  0.2710 -0.2880  0.2587
 9330TIP3    H152185   2.133   4.396   2.877  1.1744 -0.4312 -0.6270
 9330TIP3    H252186   2.248   4.300   2.901  0.5132 -0.6173  2.0956
 9331TIP3   OH252187   1.980   4.819   2.838 -0.0953 -0.0814  0.1221
 9331TIP3    H152188   1.888   4.818   2.865  0.7609 -2.3993  3.6167
 9331TIP3    H252189   2.016   4.898   2.879  0.5405 -2.1102  3.9954
 9332TIP3   OH252190   6.493   1.850   2.910 -0.7535 -0.3403  0.3121
 9332TIP3    H152191   6.560   1.905   2.951 -1.5496 -0.2420  1.5501
 9332TIP3    H252192   6.542   1.783   2.863  0.2161  0.0503  0.7453
 9333TIP3   OH252193   2.935   5.539   1.468 -0.4362 -0.3811  0.1672
 9333TIP3    H152194   2.957   5.454   1.430 -0.1055 -0.4178  0.4311
 9333TIP3    H252195   3.013   5.592   1.456 -1.3933  0.6507 -2.0431
 9334TIP3   OH252196   3.888   3.354   1.516  0.0486 -0.4744  0.2924
 9334TIP3    H152197   3.902   3.400   1.433 -0.3393  0.9248  0.9745
 9334TIP3    H252198   3.962   3.294   1.523 -1.3323 -2.6939 -2.3900
 9335TIP3   OH252199   4.015   6.557   3.117  0.0779  0.4354 -0.0660
 9335TIP3    H152200   4.031   6.563   3.022  1.7280 -1.9275 -0.0201
 9335TIP3    H252201   3.924   6.585   3.127 -0.1913  0.6271 -2.3715
 9336TIP3   OH252202   3.381   4.461   1.165  0.3607 -0.4872 -0.1676
 9336TIP3    H152203   3.372   4.490   1.255 -0.5772 -1.0655 -0.0569
 9336TIP3    H252204   3.324   4.384   1.158  0.5599 -0.5669 -1.1960
 9337TIP3   OH252205   2.963   1.376   1.660 -0.0550  0.1399 -0.2991
 9337TIP3    H152206   2.921   1.394   1.576  2.2951  1.0861 -1.3668
 9337TIP3    H252207   2.894   1.387   1.724 -1.7934 -0.0161 -2.0449
 9338TIP3   OH252208   2.910   0.042   2.330  0.3393 -0.4577 -0.8937
 9338TIP3    H152209   2.954   0.067   2.248  1.6611 -0.6039 -0.2553
 9338TIP3    H252210   2.824   0.011   2.302 -0.7988  3.1349 -1.9355
 9339TIP3   OH252211   4.915   5.809   3.033 -0.1646  0.0192  0.0491
 9339TIP3    H152212   4.882   5.723   3.008  1.1699 -0.6088  0.3868
 9339TIP3    H252213   4.842   5.869   3.014 -1.4442 -1.2912  0.6941
 9340TIP3   OH252214   6.354   2.401   1.902  0.0332 -0.0872 -0.5065
 9340TIP3    H152215   6.399   2.386   1.984 -2.1763 -2.0561  0.4602
 9340TIP3    H252216   6.381   2.329   1.845 -0.1071  0.0295 -0.7262
 9341TIP3   OH252217   1.862   6.498   1.734  0.1901 -0.2104  0.1848
 9341TIP3    H152218   1.949   6.508   1.772  0.1785 -1.2735  0.5369
 9341TIP3    H252219   1.801   6.517   1.805  0.1674 -1.8153  0.6421
 9342TIP3   OH252220   1.256   1.778   0.824  0.2465  0.3142 -0.3284
 9342TIP3    H152221   1.263   1.768   0.919 -1.0167  1.4687 -0.0841
 9342TIP3    H252222   1.271   1.871   0.808  0.3600  0.1450 -1.2506
 9343TIP3   OH252223   5.995   5.921   2.333  0.3091 -0.2001  0.9469
 9343TIP3    H152224   5.927   5.959   2.389 -0.9919 -2.0947  0.7318
 9343TIP3    H252225   5.986   5.968   2.250 -0.2736  0.0334  1.1399
 9344TIP3   OH252226   1.912   5.315   0.911  0.0147 -0.7801  0.2030
 9344TIP3    H152227   1.819   5.304   0.931 -0.2284  1.3847  0.4171
 9344TIP3    H252228   1.957   5.301   0.994 -0.2610 -0.2196  0.4469
 9345TIP3   OH252229   3.731   3.757   3.886  0.2083  0.5758  0.8532
 9345TIP3    H152230   3.781   3.753   3.805 -0.3435  2.7240  0.3503
 9345TIP3    H252231   3.770   3.690   3.942  0.7829 -0.7509 -1.0642
 9346TIP3   OH252232   5.827   4.798   1.559 -0.5693  0.6647  0.3703
 9346TIP3    H152233   5.820   4.704   1.577 -1.0508  0.4169 -0.9937
 9346TIP3    H252234   5.910   4.824   1.599 -0.8709 -0.1369  1.5709
 9347TIP3   OH252235   3.036   1.267   1.974  0.1350  0.0431  0.1595
 9347TIP3    H152236   3.101   1.237   1.911 -0.3011  3.1341 -2.0363
 9347TIP3    H252237   3.054   1.217   2.054  3.0736 -1.5037 -1.3095
 9348TIP3   OH252238   5.630   4.387   3.004 -0.5001 -0.3931 -0.4369
 9348TIP3    H152239   5.675   4.313   3.045  0.4433 -0.5650 -1.7164
 9348TIP3    H252240   5.649   4.461   3.062  1.7052 -0.4104 -1.0435
 9349TIP3   OH252241   5.734   6.275   4.014  0.3593 -0.0787 -0.3772
 9349TIP3    H152242   5.738   6.312   4.102  0.0444  0.1247 -0.4476
 9349TIP3    H252243   5.684   6.339   3.963 -0.5508 -0.7962 -0.4031
 9350TIP3   OH252244   6.344   2.462   0.629 -0.6729  0.9029  0.4897
 9350TIP3    H152245   6.264   2.453   0.681 -0.2093  0.2485  1.1040
 9350TIP3    H252246   6.414   2.467   0.693 -0.3526  3.5453  0.0356
 9351TIP3   OH252247   5.868   2.347   1.777 -0.2413  0.1848  0.4506
 9351TIP3    H152248   5.877   2.254   1.800  0.7126 -0.1932 -1.2543
 9351TIP3    H252249   5.958   2.378   1.767 -0.5225  0.4014 -2.1659
 9352TIP3   OH252250   2.935   6.026   3.696 -0.0184  0.6761 -0.0374
 9352TIP3    H152251   2.993   6.020   3.772 -2.3439  0.0798  1.8263
 9352TIP3    H252252   2.904   6.117   3.696  1.3656  1.1914 -1.4509
 9353TIP3   OH252253   6.561   4.874   2.528  0.0793 -0.1902  0.3618
 9353TIP3    H152254   6.487   4.931   2.551  1.2152  1.2246  0.7002
 9353TIP3    H252255   6.522   4.788   2.512 -1.6336  0.5307  0.4642
 9354TIP3   OH252256   5.382   1.225   2.384 -0.2688 -0.5183  0.0851
 9354TIP3    H152257   5.295   1.203   2.417 -0.7807 -0.2936 -1.0959
 9354TIP3    H252258   5.378   1.319   2.364  0.4509 -0.3589  0.6172
 9355TIP3   OH252259   0.071   2.424   2.266 -0.0360  0.0130  0.1258
 9355TIP3    H152260   0.093   2.516   2.282 -0.0875 -0.1885  1.4203
 9355TIP3    H252261   0.132   2.374   2.321  1.0532 -0.8212 -1.7298
 9356TIP3   OH252262   0.180   0.126   3.399  0.0216 -0.1270  0.0456
 9356TIP3    H152263   0.168   0.187   3.326  1.5292  0.0028 -0.1275
 9356TIP3    H252264   0.275   0.116   3.406 -0.1649 -1.8386  0.5911
 9357TIP3   OH252265   0.424   0.956   3.783  0.0963 -0.1412  0.2055
 9357TIP3    H152266   0.361   0.890   3.754  1.4050 -1.0615 -0.6904
 9357TIP3    H252267   0.387   1.039   3.754 -0.3431 -0.7283 -1.0031
 9358TIP3   OH252268   5.288   1.798   2.516 -0.4789  0.3237  0.2110
 9358TIP3    H152269   5.273   1.850   2.594  0.7020  0.3456  0.4525
 9358TIP3    H252270   5.213   1.740   2.510 -0.5916  0.3349  1.3587
 9359TIP3   OH252271   1.848   5.266   2.388 -0.3476 -0.0583 -0.0997
 9359TIP3    H152272   1.905   5.341   2.406  2.3353 -1.7447 -1.0857
 9359TIP3    H252273   1.892   5.192   2.431 -1.6698 -1.4942 -1.1312
 9360TIP3   OH252274   3.583   3.586   1.223 -0.4851 -0.3969 -0.4510
 9360TIP3    H152275   3.669   3.626   1.209  0.1032 -1.8152 -1.0694
 9360TIP3    H252276   3.569   3.590   1.317  0.1527  0.0381 -0.3695
 9361TIP3   OH252277   5.384   1.487   2.263  0.4106 -0.1743 -0.0187
 9361TIP3    H152278   5.418   1.523   2.345  0.9757  0.6025 -0.5860
 9361TIP3    H252279   5.458   1.438   2.226 -0.4681 -2.4112  0.9775
 9362TIP3   OH252280   2.124   6.091   1.749  0.4536 -0.3493  0.1175
 9362TIP3    H152281   2.203   6.056   1.791 -0.3582 -1.4356  0.7765
 9362TIP3    H252282   2.157   6.158   1.690  1.8877 -0.8088  0.3481
 9363TIP3   OH252283   0.258   3.859   1.991  0.4201  0.0981  0.4850
 9363TIP3    H152284   0.224   3.843   1.903 -2.0183  0.2196  1.3356
 9363TIP3    H252285   0.277   3.952   1.993  0.6063  0.0709  0.0490
 9364TIP3   OH252286   5.236   2.088   3.629  0.6886 -0.7761  0.0756
 9364TIP3    H152287   5.294   2.068   3.702  1.0523 -1.0704 -0.2889
 9364TIP3    H252288   5.229   2.183   3.629  0.6273 -0.7779  0.5385
 9365TIP3   OH252289   1.173   4.203   3.121  0.0590 -0.0645  0.3675
 9365TIP3    H152290   1.088   4.219   3.078  0.4480  1.6457  0.1610
 9365TIP3    H252291   1.164   4.116   3.159 -1.3209 -0.4701 -0.7727
 9366TIP3   OH252292   0.811   0.326   4.007 -1.1632  0.3368 -0.0059
 9366TIP3    H152293   0.882   0.311   4.069  0.7626  1.9035 -1.7066
 9366TIP3    H252294   0.738   0.354   4.062  0.2970  1.1741  1.6242
 9367TIP3   OH252295   4.504   5.413   2.483  0.1180 -0.0421  0.0669
 9367TIP3    H152296   4.486   5.343   2.420 -1.0372  0.8779 -0.6667
 9367TIP3    H252297   4.572   5.377   2.540  2.1912 -0.4781 -2.4672
 9368TIP3   OH252298   1.980   5.115   1.805  0.2671 -0.1730 -0.1424
 9368TIP3    H152299   1.887   5.105   1.828  0.0806 -0.7017 -1.0720
 9368TIP3    H252300   2.015   5.173   1.873 -0.7755  0.1607  0.1374
 9369TIP3   OH252301   2.861   1.957   2.878  0.3121 -0.1218  0.9586
 9369TIP3    H152302   2.933   2.004   2.920  0.4676 -1.1315  1.8536
 9369TIP3    H252303   2.782   1.999   2.913  0.4550 -0.1334  1.3015
 9370TIP3   OH252304   4.884   1.586   2.031 -0.1809 -0.3886  0.2173
 9370TIP3    H152305   4.805   1.624   1.993  0.4332  1.2282  0.4714
 9370TIP3    H252306   4.857   1.555   2.117 -0.3681  1.0237  0.6994
 9371TIP3   OH252307   6.421   5.062   0.593  0.3205 -0.0859  0.5189
 9371TIP3    H152308   6.461   5.145   0.616 -0.0344 -0.0462  1.0137
 9371TIP3    H252309   6.387   5.075   0.504  0.2413  0.3057  0.6066
 9372TIP3   OH252310   4.555   5.727   2.507  0.3627 -0.7125 -0.5331
 9372TIP3    H152311   4.498   5.799   2.477  1.1801 -0.5841 -1.8800
 9372TIP3    H252312   4.566   5.742   2.600  1.9236  1.9723 -1.0350
 9373TIP3   OH252313   0.399   0.728   1.770 -0.1850 -0.4615 -0.0341
 9373TIP3    H152314   0.471   0.724   1.833 -0.7793  0.3539  0.7216
 9373TIP3    H252315   0.424   0.799   1.710 -0.1106 -0.5339 -0.0890
 9374TIP3   OH252316   1.496   0.858   4.348 -0.1987 -0.4902 -0.1261
 9374TIP3    H152317   1.478   0.792   4.280  1.0483 -0.6097 -0.3589
 9374TIP3    H252318   1.589   0.879   4.337 -0.7092  1.8549 -0.5361
 9375TIP3   OH252319   5.204   5.541   0.725 -0.3205 -0.4744 -0.2559
 9375TIP3    H152320   5.178   5.632   0.741  0.4263 -0.6808  2.6279
 9375TIP3    H252321   5.123   5.491   0.736 -0.3776 -0.3324 -0.0213
 9376TIP3   OH252322   4.496   2.328   3.384 -0.0781  0.0156 -0.0786
 9376TIP3    H152323   4.552   2.375   3.324 -0.9569  0.7503 -0.3369
 9376TIP3    H252324   4.408   2.364   3.369 -0.3307  0.1636  1.5675
 9377TIP3   OH252325   1.804   5.086   2.730 -0.2295  0.0393 -0.2001
 9377TIP3    H152326   1.875   5.085   2.666  0.3318  0.1001  0.4100
 9377TIP3    H252327   1.725   5.073   2.678  0.4021 -2.3641 -0.6948
 9378TIP3   OH252328   0.632   0.480   1.375 -0.1839 -0.0763  0.3140
 9378TIP3    H152329   0.668   0.443   1.294  2.9751  1.3031  0.9159
 9378TIP3    H252330   0.538   0.469   1.367  0.1045 -1.2926 -2.8826
 9379TIP3   OH252331   3.524   2.999   2.887 -0.0743  0.1422  0.6296
 9379TIP3    H152332   3.521   2.989   2.792  1.9045  1.3890  0.3816
 9379TIP3    H252333   3.615   3.024   2.906 -0.8807  1.8139  2.6477
 9380TIP3   OH252334   1.354   0.681   1.730  0.1918  0.4197  0.7678
 9380TIP3    H152335   1.347   0.775   1.716 -0.5019  0.1901 -0.6416
 9380TIP3    H252336   1.448   0.662   1.729  0.3065  1.0087  0.3929
 9381TIP3   OH252337   1.635   1.557   3.075  0.0407  0.1136  0.9785
 9381TIP3    H152338   1.696   1.623   3.042 -0.0348 -0.5474 -0.5720
 9381TIP3    H252339   1.688   1.479   3.088 -0.3493 -0.3180  0.0993
 9382TIP3   OH252340   6.558   1.409   2.586  0.0753 -0.4165 -0.2129
 9382TIP3    H152341   6.639   1.461   2.591  1.4723 -2.4044 -0.7297
 9382TIP3    H252342   6.502   1.444   2.655  1.3109  1.1440  0.0452
 9383TIP3   OH252343   3.633   1.000   1.443  0.1066  0.0064  0.0255
 9383TIP3    H152344   3.556   1.040   1.403 -0.5752  0.1066  1.3867
 9383TIP3    H252345   3.663   0.936   1.379  0.1252  1.3742 -1.4040
 9384TIP3   OH252346   5.993   2.101   0.371  0.2360 -0.5109  0.0577
 9384TIP3    H152347   5.910   2.065   0.340 -0.1613 -0.3024  0.8668
 9384TIP3    H252348   5.987   2.195   0.352  0.1284 -0.4350  0.4687
 9385TIP3   OH252349   4.655   1.260   1.011  0.2306  0.0510  0.4870
 9385TIP3    H152350   4.622   1.251   1.101 -1.2262  0.3856  0.0009
 9385TIP3    H252351   4.595   1.209   0.958  1.7518 -1.1151 -0.1987
 9386TIP3   OH252352   3.170   3.570   0.804  0.1089 -0.3010 -0.3454
 9386TIP3    H152353   3.258   3.553   0.837  0.8127  1.3917 -1.2638
 9386TIP3    H252354   3.128   3.621   0.873  0.0406 -0.5748 -0.1797
 9387TIP3   OH252355   1.421   4.244   0.452 -0.2105  0.4044  0.5800
 9387TIP3    H152356   1.460   4.240   0.539 -0.8020 -1.7033  0.8194
 9387TIP3    H252357   1.482   4.196   0.396  1.1327  3.3485 -0.6489
 9388TIP3   OH252358   2.740   4.023   3.120 -0.0001 -0.1528 -0.4408
 9388TIP3    H152359   2.772   4.105   3.083 -1.0022  0.0040 -0.9963
 9388TIP3    H252360   2.789   4.013   3.201 -0.0059  1.1131 -0.2500
 9389TIP3   OH252361   4.768   6.047   2.266  0.3777 -0.2624 -0.4319
 9389TIP3    H152362   4.733   5.986   2.201 -0.0369  0.8510 -1.2843
 9389TIP3    H252363   4.860   6.059   2.240  0.6235 -0.9658  0.0902
 9390TIP3   OH252364   1.390   3.731   0.699  0.0961 -0.8443  0.1321
 9390TIP3    H152365   1.454   3.729   0.771 -0.7125 -1.5594  0.8567
 9390TIP3    H252366   1.393   3.643   0.663 -1.7024 -1.4274  1.3032
 9391TIP3   OH252367   4.131   5.812   2.674  0.2327 -0.2488  0.5944
 9391TIP3    H152368   4.174   5.873   2.733 -0.4113  0.7683  0.0523
 9391TIP3    H252369   4.105   5.866   2.599 -0.3328 -1.1947  0.0875
 9392TIP3   OH252370   6.398   4.043   1.040 -0.7431  0.2754 -0.5591
 9392TIP3    H152371   6.334   4.108   1.012 -0.7588  0.3854 -0.2689
 9392TIP3    H252372   6.427   4.002   0.959 -0.7504  0.6308 -0.7445
 9393TIP3   OH252373   0.631   3.556   0.511  0.1770 -0.3853 -0.5538
 9393TIP3    H152374   0.557   3.584   0.564  1.0956  1.2650 -0.0971
 9393TIP3    H252375   0.667   3.636   0.474  0.5787 -1.3337 -2.3629
 9394TIP3   OH252376   3.763   4.505   1.278  0.0386  0.0414 -0.1278
 9394TIP3    H152377   3.839   4.563   1.274  0.6910 -0.7632  0.2551
 9394TIP3    H252378   3.720   4.528   1.361  0.3976 -0.1482  0.1115
 9395TIP3   OH252379   6.286   2.907   0.640 -0.1654  0.3909 -0.4463
 9395TIP3    H152380   6.359   2.963   0.613 -0.9770  0.3961 -2.8505
 9395TIP3    H252381   6.277   2.844   0.569 -0.7056 -1.4520  1.1620
 9396TIP3   OH252382   6.441   6.271   3.256  0.3281 -0.2005  0.0637
 9396TIP3    H152383   6.459   6.343   3.317  0.6466  0.7063 -1.0525
 9396TIP3    H252384   6.346   6.272   3.246  0.4222  1.0985 -1.0856
 9397TIP3   OH252385   4.206   4.771   1.221  0.1554  0.1508 -0.3343
 9397TIP3    H152386   4.269   4.763   1.292  0.4061 -0.1147 -0.5831
 9397TIP3    H252387   4.242   4.838   1.163 -0.2223  0.6172 -0.0323
 9398TIP3   OH252388   0.400   1.944   3.548  0.0113  0.4202 -0.2390
 9398TIP3    H152389   0.466   1.993   3.597 -0.6079  1.1360 -0.1044
 9398TIP3    H252390   0.335   1.918   3.614  0.5515 -0.9833 -0.2287
 9399TIP3   OH252391   0.968   1.244   2.500 -0.5709 -0.2438 -0.8755
 9399TIP3    H152392   0.934   1.327   2.467 -0.1787  0.6205  0.7848
 9399TIP3    H252393   0.911   1.222   2.574  1.1316  0.1640  0.6275
 9400TIP3   OH252394   4.442   1.925   3.993  0.1158 -0.1508 -0.0165
 9400TIP3    H152395   4.405   1.899   3.909  1.7935  0.7522 -1.0959
 9400TIP3    H252396   4.415   1.856   4.053 -3.0969  0.3742 -0.6996
 9401TIP3   OH252397   5.031   0.021   0.793 -0.0572  0.2334 -0.2421
 9401TIP3    H152398   5.013   0.095   0.850  0.7721 -0.9576  1.6675
 9401TIP3    H252399   5.124   0.029   0.772  0.0637 -0.2991  0.0684
 9402TIP3   OH252400   5.024   2.558   1.769 -0.1277  0.9955 -0.8952
 9402TIP3    H152401   5.102   2.555   1.824 -0.4104 -1.9892 -0.4888
 9402TIP3    H252402   4.958   2.510   1.818 -1.3031  0.8347 -2.5365
 9403TIP3   OH252403   5.901   4.098   0.820  0.2319 -0.2081 -0.4756
 9403TIP3    H152404   5.816   4.139   0.805  0.2427 -0.3140 -0.8408
 9403TIP3    H252405   5.881   4.007   0.841  0.1436  0.2164  1.4232
 9404TIP3   OH252406   1.026   1.251   3.520  0.1723 -0.3623 -0.1400
 9404TIP3    H152407   1.026   1.339   3.484  0.6351 -0.7003 -0.9965
 9404TIP3    H252408   1.117   1.222   3.513  0.0485 -0.8588  0.2427
 9405TIP3   OH252409   5.236   0.303   2.282 -0.2454  0.2405 -0.0525
 9405TIP3    H152410   5.230   0.398   2.270  0.3515  0.2355 -0.4152
 9405TIP3    H252411   5.207   0.289   2.373  0.9960  0.9251  0.4720
 9406TIP3   OH252412   3.012   5.071   2.805 -0.3835 -0.2040  0.5003
 9406TIP3    H152413   3.086   5.044   2.861  0.0898 -0.9652 -0.4577
 9406TIP3    H252414   2.986   5.156   2.839  1.9816  0.8530 -0.1180
 9407TIP3   OH252415   3.043   4.855   1.237  0.1037 -0.3345  0.4623
 9407TIP3    H152416   2.949   4.842   1.254  0.3936 -1.4687  1.3729
 9407TIP3    H252417   3.054   4.950   1.232 -0.8081 -0.0964  2.2190
 9408TIP3   OH252418   1.010   2.756   0.456 -0.1607 -0.4275 -0.2945
 9408TIP3    H152419   1.051   2.840   0.437  1.2654 -0.7801  0.9971
 9408TIP3    H252420   0.939   2.777   0.517  1.3264 -0.3080  1.4545
 9409TIP3   OH252421   0.776   4.134   3.777 -0.8408  0.2130  0.6714
 9409TIP3    H152422   0.798   4.083   3.856 -0.1118 -0.6451 -0.0555
 9409TIP3    H252423   0.784   4.225   3.804  2.0765 -0.0419  0.9177
 9410TIP3   OH252424   1.995   4.649   3.527  0.0406  0.4239 -0.3548
 9410TIP3    H152425   2.082   4.688   3.526  0.3983 -0.3252  0.1386
 9410TIP3    H252426   2.007   4.561   3.489 -0.7916  0.8511 -1.7022
 9411TIP3   OH252427   5.920   4.038   4.296 -0.2734 -0.3594 -0.7483
 9411TIP3    H152428   5.828   4.047   4.320 -0.1066 -2.2444  0.8372
 9411TIP3    H252429   5.964   4.109   4.342 -0.7139 -0.5156 -0.0693
 9412TIP3   OH252430   5.694   4.724   4.705  0.1305 -0.4791  0.0369
 9412TIP3    H152431   5.629   4.787   4.734 -1.1081 -1.7041 -0.0084
 9412TIP3    H252432   5.778   4.770   4.716 -0.7275  1.2270 -0.1854
 9413TIP3   OH252433   2.087   5.658   1.648 -0.3858 -0.5044 -0.1017
 9413TIP3    H152434   2.003   5.623   1.678  0.7793 -1.4361  2.4138
 9413TIP3    H252435   2.141   5.581   1.633  0.3537  0.1013 -0.6365
 9414TIP3   OH252436   0.253   4.634   4.079 -0.4021 -0.1604  0.8293
 9414TIP3    H152437   0.221   4.722   4.057 -0.3228 -0.2583  0.3028
 9414TIP3    H252438   0.227   4.621   4.170 -1.6622 -0.1381  0.4982
 9415TIP3   OH252439   0.979   4.142   1.241 -0.3053 -0.4774  0.1038
 9415TIP3    H152440   0.958   4.061   1.194 -0.5564 -0.9067  0.9489
 9415TIP3    H252441   1.041   4.187   1.183 -1.5007 -0.4387 -1.1869
 9416TIP3   OH252442   5.394   5.874   3.443 -0.1702 -0.6563  0.1552
 9416TIP3    H152443   5.427   5.958   3.475  0.2924 -0.3157 -1.1462
 9416TIP3    H252444   5.473   5.821   3.428 -0.3180 -0.5524 -1.0561
 9417TIP3   OH252445   6.221   0.317   2.601  0.8351  0.2960 -0.4790
 9417TIP3    H152446   6.291   0.365   2.558 -0.1219  1.8118 -0.4102
 9417TIP3    H252447   6.146   0.376   2.599 -1.3625 -2.2439 -3.0675
 9418TIP3   OH252448   0.016   3.034   1.111 -0.1459 -0.0877  0.7787
 9418TIP3    H152449  -0.009   3.028   1.019  0.6821 -0.0952  0.5479
 9418TIP3    H252450   0.031   3.128   1.125 -1.1439  0.0287  1.1515
 9419TIP3   OH252451   2.003   0.254   1.720  0.2804 -0.3751  0.3509
 9419TIP3    H152452   2.026   0.345   1.703 -3.6751  1.3147  2.6258
 9419TIP3    H252453   1.952   0.228   1.644 -0.3694  0.0756  0.6270
 9420TIP3   OH252454   5.346   3.725   2.592 -0.1816  0.1410  0.3818
 9420TIP3    H152455   5.405   3.800   2.595  1.6091 -1.1644 -0.1426
 9420TIP3    H252456   5.341   3.703   2.499 -0.4006 -0.5920  0.5616
 9421TIP3   OH252457   6.432   2.304   3.900  0.7657  0.2838 -0.2327
 9421TIP3    H152458   6.402   2.252   3.826  0.6742  0.3822 -0.2651
 9421TIP3    H252459   6.410   2.252   3.978  0.8372  0.1928 -0.2732
 9422TIP3   OH252460   5.001   1.644   3.260 -0.0748  0.9925 -0.1050
 9422TIP3    H152461   5.034   1.554   3.263 -0.4350  0.7176  5.0025
 9422TIP3    H252462   4.909   1.634   3.234 -0.1262 -0.1898  0.4285
 9423TIP3   OH252463   3.002   4.103   1.263  0.3880  0.2103 -1.3289
 9423TIP3    H152464   2.965   4.015   1.250 -0.5987  0.5284 -0.7385
 9423TIP3    H252465   3.042   4.099   1.350 -1.6242  0.9791 -0.3118
 9424TIP3   OH252466   5.415   3.216   3.532  0.4204 -0.2532 -0.0566
 9424TIP3    H152467   5.413   3.225   3.437 -0.4466  0.4752  0.0079
 9424TIP3    H252468   5.330   3.178   3.554  0.4231  0.0214  0.4548
 9425TIP3   OH252469   0.004   3.748   0.789  0.4767 -0.2321  0.3555
 9425TIP3    H152470  -0.017   3.655   0.782 -1.9711  0.0889  2.1594
 9425TIP3    H252471   0.044   3.757   0.876  2.1703  0.2268 -0.4268
 9426TIP3   OH252472   5.666   5.314   1.412  0.3274 -0.0064  0.3082
 9426TIP3    H152473   5.631   5.286   1.327 -0.8731  0.0581  0.7629
 9426TIP3    H252474   5.657   5.409   1.413  1.4694  0.1210  0.0381
 9427TIP3   OH252475   6.220   6.117   3.476 -0.0405  0.5750  0.2121
 9427TIP3    H152476   6.294   6.073   3.432  0.5043 -0.5172  2.1156
 9427TIP3    H252477   6.142   6.075   3.439  0.3768  0.0124 -0.0411
 9428TIP3   OH252478   2.862   0.153   3.317  0.3107 -0.5330 -0.4792
 9428TIP3    H152479   2.792   0.150   3.250 -0.9775 -1.9460  0.8507
 9428TIP3    H252480   2.870   0.246   3.338  0.0251 -0.1656 -1.8623
 9429TIP3   OH252481   0.946   2.483   1.765  0.0373  0.1109  0.4251
 9429TIP3    H152482   0.992   2.502   1.684  0.4399  1.0747  0.8543
 9429TIP3    H252483   0.918   2.392   1.757 -0.1060  0.2500 -0.8712
 9430TIP3   OH252484   2.651   5.851   1.445 -0.1770  0.1515  0.1071
 9430TIP3    H152485   2.637   5.919   1.511  0.1462  0.7984 -0.4822
 9430TIP3    H252486   2.669   5.772   1.495 -1.2126  0.3457  0.8181
 9431TIP3   OH252487   5.250   0.419   4.551  0.2758 -0.0463 -0.4136
 9431TIP3    H152488   5.215   0.333   4.575 -0.9527  0.1689 -1.3241
 9431TIP3    H252489   5.172   0.472   4.533  1.0040  1.3401  0.3668
 9432TIP3   OH252490   0.633   1.720   3.847  0.3032  0.2558  0.0480
 9432TIP3    H152491   0.632   1.772   3.928  0.2254  2.7425 -1.4495
 9432TIP3    H252492   0.541   1.705   3.827  0.3135 -0.0655  0.2398
 9433TIP3   OH252493   2.361   2.111   2.604 -0.0687  0.2121 -0.3596
 9433TIP3    H152494   2.364   2.017   2.586  0.8742 -0.0880  1.2080
 9433TIP3    H252495   2.318   2.117   2.689  0.3028  1.1778 -0.2345
 9434TIP3   OH252496   0.683   2.578   3.158 -0.7405  0.2999 -0.0805
 9434TIP3    H152497   0.610   2.563   3.217 -0.5447 -0.3253  0.0144
 9434TIP3    H252498   0.645   2.574   3.071 -0.8139 -0.0759 -0.0331
 9435TIP3   OH252499   1.558   1.063   1.717 -0.2784 -0.3912  0.2930
 9435TIP3    H152500   1.507   0.999   1.667  0.0663 -0.1143 -0.4352
 9435TIP3    H252501   1.645   1.024   1.723  0.1983  0.4026 -0.9782
 9436TIP3   OH252502   4.679   0.563   1.741 -0.2875  0.1074  0.2586
 9436TIP3    H152503   4.606   0.516   1.701 -0.3367 -0.8940  1.4628
 9436TIP3    H252504   4.733   0.591   1.667 -3.0267  2.9532 -0.8632
 9437TIP3   OH252505   0.024   1.105   2.575 -0.3727 -0.7366 -0.0046
 9437TIP3    H152506  -0.017   1.191   2.561  0.2292 -0.6258 -1.2304
 9437TIP3    H252507   0.117   1.124   2.586 -0.1769 -1.2597 -0.6963
 9438TIP3   OH252508   3.011   3.264   2.783  0.2639  0.5116 -0.0116
 9438TIP3    H152509   2.977   3.219   2.706  0.1536 -1.0626  0.9083
 9438TIP3    H252510   2.933   3.288   2.833  0.3545  1.0030 -0.1053
 9439TIP3   OH252511   4.926   3.062   4.242  0.5394  0.4484 -0.3722
 9439TIP3    H152512   4.898   3.076   4.152  1.6663 -1.1955 -1.0303
 9439TIP3    H252513   4.869   2.993   4.275  0.9867  0.1122 -0.2834
 9440TIP3   OH252514   4.741   4.604   2.073 -0.6489  0.3114 -0.1972
 9440TIP3    H152515   4.696   4.541   2.017 -0.2932 -0.2854  0.1794
 9440TIP3    H252516   4.809   4.641   2.017 -1.8153  1.4891 -0.8844
 9441TIP3   OH252517   6.541   4.051   1.820 -0.3043  0.1760  0.1361
 9441TIP3    H152518   6.600   3.975   1.822 -1.1793 -0.5239  0.0773
 9441TIP3    H252519   6.593   4.121   1.781  0.9105 -0.0523  1.2730
 9442TIP3   OH252520   4.296   3.783   1.641 -0.0324 -0.3859 -0.4606
 9442TIP3    H152521   4.360   3.855   1.644  0.1381 -0.5316 -0.5525
 9442TIP3    H252522   4.347   3.705   1.663  0.1903 -0.7494 -2.1651
 9443TIP3   OH252523   0.889   4.635   3.089 -0.0077  0.1573  0.1600
 9443TIP3    H152524   0.803   4.678   3.084  0.1124  0.4982  0.8034
 9443TIP3    H252525   0.899   4.591   3.005 -1.1719 -0.5742  0.3676
 9444TIP3   OH252526   6.436   5.966   2.195 -0.4504 -0.1611 -0.1883
 9444TIP3    H152527   6.517   5.971   2.245 -1.1117  1.5162  0.8124
 9444TIP3    H252528   6.442   6.039   2.133 -0.0969 -1.5925 -1.9219
 9445TIP3   OH252529   5.284   5.242   0.735  0.4674  0.3015 -0.0162
 9445TIP3    H152530   5.255   5.198   0.655  0.4076 -0.0324  0.1878
 9445TIP3    H252531   5.291   5.334   0.710 -0.2306  0.3074 -0.2159
 9446TIP3   OH252532   1.462   1.275   3.307 -0.4260  0.4468 -0.4794
 9446TIP3    H152533   1.409   1.347   3.274 -1.3440 -0.0160 -0.0494
 9446TIP3    H252534   1.550   1.312   3.316 -0.7193  1.2946 -0.9763
 9447TIP3   OH252535   0.671   1.535   0.906 -0.0340 -0.4284  0.3697
 9447TIP3    H152536   0.642   1.623   0.881  0.4623  0.3063  2.1771
 9447TIP3    H252537   0.595   1.479   0.892 -0.6673  0.4783  0.1136
 9448TIP3   OH252538   4.033   2.567   1.797 -0.0637 -0.3588  0.6776
 9448TIP3    H152539   4.123   2.560   1.827  0.5912 -1.4889 -1.3703
 9448TIP3    H252540   3.996   2.480   1.811  0.2679 -0.9323 -1.6152
 9449TIP3   OH252541   1.120   5.842   3.431  1.4534 -0.3830  0.0769
 9449TIP3    H152542   1.074   5.917   3.394  1.3878 -1.0231 -1.1784
 9449TIP3    H252543   1.079   5.830   3.517 -0.1592 -0.4023 -0.6496
 9450TIP3   OH252544   5.726   0.568   1.408 -0.3674  0.4150 -0.0127
 9450TIP3    H152545   5.743   0.484   1.366 -0.9754  0.2427  0.0624
 9450TIP3    H252546   5.665   0.547   1.479 -1.2642  1.0404 -0.5659
 9451TIP3   OH252547   2.023   4.756   1.438 -0.2232 -0.4648 -0.2724
 9451TIP3    H152548   2.026   4.800   1.523 -0.4416 -0.4104 -0.2930
 9451TIP3    H252549   1.930   4.740   1.423 -0.1382 -1.0795 -0.1858
 9452TIP3   OH252550   4.754   4.358   3.864 -0.0173 -0.3062  0.0281
 9452TIP3    H152551   4.659   4.364   3.865  0.0012  1.2828  2.9212
 9452TIP3    H252552   4.783   4.447   3.848  1.0578 -0.8544 -1.3119
 9453TIP3   OH252553   1.322   0.149   2.316 -0.6047  0.4258 -0.0997
 9453TIP3    H152554   1.357   0.133   2.228 -1.7275  2.4427 -0.9743
 9453TIP3    H252555   1.283   0.236   2.311  0.7217  1.3227  2.8757
 9454TIP3   OH252556   2.018   5.067   1.346  0.0287 -0.0451 -0.0742
 9454TIP3    H152557   1.950   5.007   1.376 -0.4909  0.5239 -0.0870
 9454TIP3    H252558   2.037   5.121   1.423  1.7384 -1.3284  0.4601
 9455TIP3   OH252559   3.877   4.347   2.175 -0.1726  0.3471  0.4384
 9455TIP3    H152560   3.933   4.271   2.159 -0.4493  0.2807 -0.2625
 9455TIP3    H252561   3.803   4.334   2.115 -1.5406 -0.1861  2.1396
 9456TIP3   OH252562   0.399   3.651   1.794 -0.2124  0.0176 -0.3758
 9456TIP3    H152563   0.442   3.657   1.880  0.3247  1.8791 -0.7361
 9456TIP3    H252564   0.471   3.645   1.731 -0.4687  1.8805 -0.8944
 9457TIP3   OH252565   3.435   0.354   2.520  0.3922 -0.6663 -0.0198
 9457TIP3    H152566   3.480   0.327   2.599  0.8252  1.9466  0.7141
 9457TIP3    H252567   3.438   0.450   2.521 -2.1745 -0.4532 -1.7000
 9458TIP3   OH252568   4.955   6.259   2.988 -0.3412 -0.2809 -0.0335
 9458TIP3    H152569   4.957   6.273   3.083  0.1713  0.7704 -0.1914
 9458TIP3    H252570   4.933   6.166   2.979  0.2675 -0.5626  1.1265
 9459TIP3   OH252571   0.969   4.592   1.559 -0.3760 -0.3451 -0.6087
 9459TIP3    H152572   0.954   4.506   1.520 -3.0263 -0.0018 -0.5289
 9459TIP3    H252573   0.955   4.654   1.487 -1.2894  0.1192 -0.0456
 9460TIP3   OH252574   4.461   6.058   3.847  0.2891  0.2006 -0.1655
 9460TIP3    H152575   4.506   6.092   3.924 -3.6609 -0.3605  2.7070
 9460TIP3    H252576   4.521   5.992   3.811  3.0990  1.8402  1.1506
 9461TIP3   OH252577   4.985   0.255   3.615  0.5757  0.3424  0.0181
 9461TIP3    H152578   4.893   0.230   3.617  0.3247  1.1392  2.9404
 9461TIP3    H252579   5.000   0.286   3.526 -3.2579  4.5385  0.4750
 9462TIP3   OH252580   2.283   5.046   0.723 -0.1670 -0.5904  0.1066
 9462TIP3    H152581   2.296   4.982   0.793  0.5274  1.7236  2.2697
 9462TIP3    H252582   2.192   5.075   0.734  0.1313  0.2362  0.5364
 9463TIP3   OH252583   0.156   0.757   2.404 -0.4541  0.2122  0.2310
 9463TIP3    H152584   0.181   0.813   2.477 -0.7557 -0.5349  0.9222
 9463TIP3    H252585   0.199   0.673   2.422 -1.2425 -0.2495  0.0205
 9464TIP3   OH252586   4.648   4.370   2.903  0.2769 -0.1540  0.3114
 9464TIP3    H152587   4.573   4.429   2.901  1.2027  1.0437 -0.4167
 9464TIP3    H252588   4.678   4.366   2.812 -1.0949 -3.5927 -0.1314
 9465TIP3   OH252589   2.549   6.389   3.691 -0.2008  0.1195  0.4752
 9465TIP3    H152590   2.516   6.450   3.757  0.3031  1.8260 -0.7558
 9465TIP3    H252591   2.584   6.316   3.740 -0.2803  1.1118  2.0759
 9466TIP3   OH252592   0.440   0.064   3.433 -0.4011  0.8755  0.2697
 9466TIP3    H152593   0.453   0.067   3.338 -2.6093 -1.5259 -0.2363
 9466TIP3    H252594   0.527   0.052   3.469  0.2923 -0.2569 -1.6555
 9467TIP3   OH252595   2.523   5.338   1.587 -0.5085  0.2668  0.3855
 9467TIP3    H152596   2.540   5.308   1.677 -1.2732  0.0300  0.4544
 9467TIP3    H252597   2.567   5.423   1.582 -0.5652  0.3369  1.0199
 9468TIP3   OH252598   6.125   4.364   1.418 -0.2013  0.0405  0.3775
 9468TIP3    H152599   6.043   4.330   1.453 -1.5585  2.7278 -0.0188
 9468TIP3    H252600   6.161   4.418   1.488  1.2614 -1.0234  0.5170
 9469TIP3   OH252601   6.515   4.620   2.903 -0.3770  0.4108 -0.1873
 9469TIP3    H152602   6.600   4.587   2.875  0.2207  2.7666 -1.3935
 9469TIP3    H252603   6.469   4.543   2.938  2.7389 -0.6999  1.8774
 9470TIP3   OH252604   6.344   6.120   2.962 -0.4426 -0.1392 -0.6780
 9470TIP3    H152605   6.328   6.147   2.872 -2.8796 -0.1784 -0.3291
 9470TIP3    H252606   6.303   6.188   3.015 -1.0639 -1.2696  0.3487
 9471TIP3   OH252607   5.634   5.605   2.260 -0.5752  0.0792 -0.2072
 9471TIP3    H152608   5.602   5.546   2.191 -0.3978  0.7015 -0.8358
 9471TIP3    H252609   5.729   5.604   2.249 -0.5943  0.8280 -0.5286
 9472TIP3   OH252610   0.418   1.302   2.393  0.4079 -0.2453 -0.2572
 9472TIP3    H152611   0.390   1.393   2.379 -1.2759 -0.5805  0.6462
 9472TIP3    H252612   0.481   1.308   2.464 -1.6008  0.0469  1.6301
 9473TIP3   OH252613   3.018   0.755   2.851  0.0535 -0.1713  0.3821
 9473TIP3    H152614   3.083   0.685   2.845 -0.7276 -0.8642 -0.2275
 9473TIP3    H252615   2.934   0.711   2.845 -0.5899  0.4877  3.3392
 9474TIP3   OH252616   0.938   4.603   2.482 -0.1116  0.1456 -0.1088
 9474TIP3    H152617   0.915   4.638   2.568  0.3056  1.7088 -0.5916
 9474TIP3    H252618   0.879   4.648   2.421  0.3932 -0.0407 -0.7495
 9475TIP3   OH252619   3.454   4.952   3.017  0.7753  0.0435 -0.2249
 9475TIP3    H152620   3.431   4.931   2.926  1.5261 -1.5978 -0.0722
 9475TIP3    H252621   3.406   4.889   3.069  1.5708 -0.0465  0.4131
 9476TIP3   OH252622   5.712   2.956   2.115 -0.6760 -0.0037  0.1775
 9476TIP3    H152623   5.798   2.984   2.084 -1.7594  0.4083 -2.8760
 9476TIP3    H252624   5.657   3.034   2.108 -1.7012 -0.6926  0.2678
 9477TIP3   OH252625   2.597   0.926   2.307 -0.0608  0.2571 -0.4151
 9477TIP3    H152626   2.524   0.864   2.317  0.6952 -0.4161  1.3583
 9477TIP3    H252627   2.644   0.895   2.230  0.8525 -2.0563  0.9531
 9478TIP3   OH252628   4.835   1.079   2.678 -0.2467  0.6348  0.7376
 9478TIP3    H152629   4.826   1.002   2.735 -0.8909  1.0820  1.2504
 9478TIP3    H252630   4.919   1.066   2.634  0.0221  0.0252  1.4082
 9479TIP3   OH252631   0.797   5.366   0.779 -0.0577  0.3831  0.0095
 9479TIP3    H152632   0.855   5.401   0.712 -0.3324  0.9278  0.0521
 9479TIP3    H252633   0.774   5.278   0.747 -0.7801  0.9197 -0.9898
 9480TIP3   OH252634   1.755   1.830   4.345 -0.0430  0.0119  0.0326
 9480TIP3    H152635   1.787   1.903   4.292 -0.2209  1.1841  1.4558
 9480TIP3    H252636   1.702   1.872   4.413 -1.4008 -1.5685  0.0233
 9481TIP3   OH252637   2.099   1.477   1.982  0.5000  0.0915  1.1682
 9481TIP3    H152638   2.157   1.424   1.928  1.0777  0.3114  1.5687
 9481TIP3    H252639   2.080   1.422   2.058 -0.8964 -0.5055  0.4194
 9482TIP3   OH252640   4.043   5.882   1.507 -0.2231 -0.1448 -0.9281
 9482TIP3    H152641   4.130   5.842   1.506  0.3878  1.0991 -0.4075
 9482TIP3    H252642   3.989   5.822   1.558  0.7886 -0.0711  0.2679
 9483TIP3   OH252643   1.316   0.333   2.683 -0.3379 -0.7138  0.4553
 9483TIP3    H152644   1.377   0.392   2.639 -1.2310  0.7702  1.1358
 9483TIP3    H252645   1.371   0.262   2.717  0.6605 -0.6962 -1.0343
 9484TIP3   OH252646   6.268   5.075   4.753  0.7285  0.2255 -0.6509
 9484TIP3    H152647   6.324   5.005   4.719 -0.9482 -1.2066 -0.6777
 9484TIP3    H252648   6.203   5.089   4.684  0.6853  1.3781 -0.3831
 9485TIP3   OH252649   4.004   1.593   1.087 -0.7268  0.2786  0.2226
 9485TIP3    H152650   4.041   1.553   1.166  1.9280  1.6566 -0.2246
 9485TIP3    H252651   3.922   1.546   1.073 -0.3419 -1.3128  2.7010
 9486TIP3   OH252652   2.171   2.706   2.604 -0.4079 -0.7892 -0.3351
 9486TIP3    H152653   2.194   2.755   2.524 -1.0441 -1.1931 -0.7763
 9486TIP3    H252654   2.172   2.615   2.576 -0.8308 -0.9177  0.0724
 9487TIP3   OH252655   4.007   2.673   1.523 -0.0350  0.9727  0.6685
 9487TIP3    H152656   4.054   2.756   1.525  0.4709  0.7051  0.2581
 9487TIP3    H252657   4.038   2.625   1.600  2.2249 -0.1712 -0.8355
 9488TIP3   OH252658   1.147   3.292   0.935  0.4799 -0.0370  0.0527
 9488TIP3    H152659   1.169   3.275   0.843 -0.2079 -0.6012 -0.0185
 9488TIP3    H252660   1.189   3.376   0.955  1.3898 -0.3405 -0.5098
 9489TIP3   OH252661   1.930   3.441   1.857  0.4911 -0.2109  0.7354
 9489TIP3    H152662   1.920   3.366   1.797  0.2710 -0.0188  0.5317
 9489TIP3    H252663   1.984   3.503   1.808  0.6744 -0.2344  0.9057
 9490TIP3   OH252664   4.975   3.492   0.447 -0.0294  0.1316 -0.0861
 9490TIP3    H152665   5.049   3.433   0.434  0.7005  1.1241 -0.5894
 9490TIP3    H252666   5.015   3.576   0.471 -1.1058 -0.0076  2.4351
 9491TIP3   OH252667   2.063   2.142   3.265  0.3798 -0.1355  0.2867
 9491TIP3    H152668   1.974   2.170   3.245  0.6458  1.0531  0.6241
 9491TIP3    H252669   2.077   2.171   3.356  0.5594 -1.7807  0.8164
 9492TIP3   OH252670   5.864   2.857   2.544  0.1633 -0.5434  0.1739
 9492TIP3    H152671   5.948   2.879   2.584 -1.6315  0.4169  3.8128
 9492TIP3    H252672   5.826   2.790   2.601 -1.4241 -1.2596 -1.5932
 9493TIP3   OH252673   1.723   5.766   1.701  0.7437  0.0515 -0.2861
 9493TIP3    H152674   1.639   5.807   1.722  0.4668 -1.4235  1.8649
 9493TIP3    H252675   1.701   5.695   1.641  0.3342 -0.6609  0.6809
 9494TIP3   OH252676   6.111   6.011   2.031  0.6378  0.3376  0.0822
 9494TIP3    H152677   6.033   6.035   2.081 -0.4593  2.0086 -2.2117
 9494TIP3    H252678   6.145   6.095   2.000  1.5543 -0.5695 -1.4749
 9495TIP3   OH252679   5.058   1.382   3.200  0.0623  0.3948 -0.1728
 9495TIP3    H152680   5.065   1.357   3.108 -0.7487 -0.2360 -0.0777
 9495TIP3    H252681   5.103   1.312   3.247  0.0649  0.4673 -0.0681
 9496TIP3   OH252682   4.457   3.519   1.123 -0.4117  0.1566 -0.6717
 9496TIP3    H152683   4.382   3.464   1.146 -0.4008  0.0454 -0.9004
 9496TIP3    H252684   4.420   3.590   1.070 -0.4282  0.3812 -0.3660
 9497TIP3   OH252685   6.015   5.411   3.058 -0.8651 -0.2357 -0.2747
 9497TIP3    H152686   6.074   5.362   3.000  0.0717 -1.0215  1.2668
 9497TIP3    H252687   5.949   5.347   3.084 -0.6303 -0.2139  0.3952
 9498TIP3   OH252688   2.482   5.939   2.259 -0.2580 -0.0635 -0.5010
 9498TIP3    H152689   2.415   5.983   2.206  1.0679  1.7735 -0.7837
 9498TIP3    H252690   2.471   5.846   2.240 -1.3576  0.3572 -2.1691
 9499TIP3   OH252691   1.938   4.807   2.029 -0.5373 -0.5764 -0.0392
 9499TIP3    H152692   1.866   4.868   2.044  0.1986  0.1445  0.7281
 9499TIP3    H252693   1.996   4.852   1.968 -0.0908 -0.5923  0.3684
 9500TIP3   OH252694   0.627   0.290   0.669  0.1466  0.1530  0.7462
 9500TIP3    H152695   0.628   0.335   0.585 -0.5193 -1.2231 -0.0397
 9500TIP3    H252696   0.565   0.340   0.723  0.2507  0.7933  0.2812
 9501TIP3   OH252697   5.411   5.927   2.420 -0.5670 -1.0993  0.1254
 9501TIP3    H152698   5.380   5.840   2.442  1.1646 -1.8543 -0.2325
 9501TIP3    H252699   5.483   5.944   2.480 -2.3770  1.1655  1.8660
 9502TIP3   OH252700   0.630   5.860   0.488  0.3081 -0.2623 -0.5581
 9502TIP3    H152701   0.589   5.946   0.477 -1.2266 -0.5995  1.8747
 9502TIP3    H252702   0.573   5.800   0.441  0.6095 -0.1519 -1.0757
 9503TIP3   OH252703   4.838   2.954   1.555 -0.3925  0.4363 -0.1022
 9503TIP3    H152704   4.754   2.912   1.576  0.5190 -0.6437  1.6723
 9503TIP3    H252705   4.900   2.882   1.548  0.3900  1.2133 -1.5218
 9504TIP3   OH252706   5.497   6.180   4.719 -0.0323 -0.5705  0.7639
 9504TIP3    H152707   5.466   6.097   4.754  0.4464 -1.1183 -0.0806
 9504TIP3    H252708   5.531   6.227   4.795 -0.7258 -0.9473  1.3187
 9505TIP3   OH252709   0.427   2.590   0.585 -0.6486  0.0712 -0.0227
 9505TIP3    H152710   0.390   2.524   0.527 -1.1853 -1.9759  2.4820
 9505TIP3    H252711   0.352   2.621   0.636  0.0295  0.7324  0.5988
 9506TIP3   OH252712   1.539   3.694   2.557  0.1187 -0.5184 -0.1018
 9506TIP3    H152713   1.540   3.713   2.650  0.6569  0.8110 -0.3528
 9506TIP3    H252714   1.526   3.600   2.551 -1.3929 -0.4214  1.2700
 9507TIP3   OH252715   2.571   1.580   3.062 -0.0503 -0.4470  0.3111
 9507TIP3    H152716   2.500   1.640   3.039  0.0815 -0.8188 -1.2262
 9507TIP3    H252717   2.644   1.608   3.007  0.8792 -0.3370  1.5638
 9508TIP3   OH252718   0.757   3.023   0.867 -0.2755 -0.4506 -0.3565
 9508TIP3    H152719   0.704   2.945   0.851  0.7942 -1.3060  0.1123
 9508TIP3    H252720   0.813   3.030   0.790 -0.9102  0.3184 -0.7507
 9509TIP3   OH252721   3.378   0.835   0.714 -0.2430  0.1500 -0.3079
 9509TIP3    H152722   3.300   0.793   0.677 -1.4551  1.8144  0.2086
 9509TIP3    H252723   3.359   0.929   0.708  0.9884  0.5526  1.4056
 9510TIP3   OH252724   4.565   3.928   1.683  0.0860 -0.0322  0.2127
 9510TIP3    H152725   4.524   4.002   1.638  1.0974  0.6140  0.3191
 9510TIP3    H252726   4.625   3.968   1.745 -1.4836 -0.8818  2.4162
 9511TIP3   OH252727   5.903   4.333   2.725  0.4086 -0.1971 -0.2840
 9511TIP3    H152728   5.888   4.238   2.724  0.0868 -0.1846  1.1678
 9511TIP3    H252729   5.947   4.349   2.809 -1.8889  1.2357  0.7431
 9512TIP3   OH252730   1.283   2.441   3.046 -0.4952  0.1316 -0.2669
 9512TIP3    H152731   1.314   2.379   2.980  1.8899  0.0673  0.7931
 9512TIP3    H252732   1.357   2.449   3.107 -3.2472 -1.5523  3.7148
 9513TIP3   OH252733   1.389   2.139   2.957  0.3767  0.3501 -0.1378
 9513TIP3    H152734   1.421   2.110   2.872  0.8581 -0.6312  0.3670
 9513TIP3    H252735   1.306   2.183   2.938 -0.2709 -1.1723 -0.9493
 9514TIP3   OH252736   2.297   2.349   3.898  0.6197  0.0076  0.2398
 9514TIP3    H152737   2.220   2.332   3.952  0.3938 -0.1270 -0.1245
 9514TIP3    H252738   2.370   2.346   3.960  0.2310  1.2482  0.7801
 9515TIP3   OH252739   5.823   6.606   2.254 -0.1601  0.1605 -0.1350
 9515TIP3    H152740   5.811   6.682   2.311  1.0122  1.0005 -0.9694
 9515TIP3    H252741   5.756   6.615   2.186 -2.7120 -1.7478  1.9284
 9516TIP3   OH252742   4.411   0.329   2.235  0.1929 -0.7119  0.5634
 9516TIP3    H152743   4.389   0.250   2.187 -1.0675 -0.4904  0.7514
 9516TIP3    H252744   4.418   0.397   2.167 -0.5025 -0.6215  0.5800
 9517TIP3   OH252745   0.161   1.378   0.804  0.2875  0.5603  0.2027
 9517TIP3    H152746   0.139   1.318   0.733  1.1449 -0.7124  0.9478
 9517TIP3    H252747   0.121   1.461   0.780 -1.3095 -0.4212 -0.6705
 9518TIP3   OH252748   5.833   6.095   2.493 -0.0264 -0.1260 -0.0286
 9518TIP3    H152749   5.851   6.169   2.436 -0.4662 -0.5533 -0.7388
 9518TIP3    H252750   5.830   6.132   2.581 -2.1353  1.0592 -0.5391
 9519TIP3   OH252751   2.803   4.514   2.561  0.0167  0.1647  0.0571
 9519TIP3    H152752   2.803   4.540   2.469 -0.7653  0.2919  0.0901
 9519TIP3    H252753   2.887   4.469   2.573  0.2299  0.3648 -0.6538
 9520TIP3   OH252754   1.018   2.071   2.065 -0.1909 -0.0761  0.1781
 9520TIP3    H152755   1.024   2.135   2.136  0.4079  1.5722 -1.2844
 9520TIP3    H252756   1.095   2.088   2.011 -0.6861 -1.2141 -0.9346
 9521TIP3   OH252757   6.183   2.899   2.533 -0.0063  0.1691  0.1566
 9521TIP3    H152758   6.132   2.930   2.459 -0.8447 -0.8556  0.2651
 9521TIP3    H252759   6.274   2.907   2.506 -0.2812  0.5184 -0.6854
 9522TIP3   OH252760   0.164   2.981   2.669 -0.7212  0.3431  0.0636
 9522TIP3    H152761   0.253   2.968   2.702 -1.1455  0.4495  1.2724
 9522TIP3    H252762   0.113   2.911   2.709 -1.3214  0.7008 -0.0646
 9523TIP3   OH252763   5.080   0.717   2.088 -0.3230 -0.3459 -0.2183
 9523TIP3    H152764   5.008   0.778   2.074  0.1763  0.0730 -0.9512
 9523TIP3    H252765   5.153   0.752   2.037  0.3649 -0.8436  0.3984
 9524TIP3   OH252766   2.617   4.608   3.186 -0.2902  0.5000 -0.5109
 9524TIP3    H152767   2.683   4.658   3.234  0.0358  0.8519 -1.2966
 9524TIP3    H252768   2.668   4.553   3.126 -0.6700 -0.3516 -0.0607
 9525TIP3   OH252769   5.186   5.187   2.264 -0.1934 -0.1646 -0.5079
 9525TIP3    H152770   5.198   5.101   2.305  0.3908 -0.6627 -1.6905
 9525TIP3    H252771   5.275   5.224   2.259 -0.2641 -0.0858 -1.2607
 9526TIP3   OH252772   0.937   5.887   3.755 -0.2103 -1.0865  0.1237
 9526TIP3    H152773   1.009   5.857   3.809 -0.6775  1.2226  2.2188
 9526TIP3    H252774   0.967   5.971   3.720 -2.4052  0.8537  2.5289
 9527TIP3   OH252775   1.472   3.905   2.379  0.1455  0.2921  0.3647
 9527TIP3    H152776   1.540   3.898   2.312  1.3900 -0.4920  1.6523
 9527TIP3    H252777   1.479   3.823   2.429 -2.4048 -0.2500 -0.0286
 9528TIP3   OH252778   5.163   5.565   2.701  0.3135  0.1521  0.3508
 9528TIP3    H152779   5.180   5.561   2.795  0.2949 -2.9451  0.3299
 9528TIP3    H252780   5.068   5.554   2.694  0.4691 -1.2318 -0.0051
 9529TIP3   OH252781   1.119   3.101   3.176 -0.0912 -0.1472 -0.3334
 9529TIP3    H152782   1.139   3.014   3.143 -1.1786  0.0555 -1.5937
 9529TIP3    H252783   1.046   3.088   3.237  0.7378 -0.2896  0.6547
 9530TIP3   OH252784   2.450   3.263   1.503 -0.3028  0.2307 -0.0951
 9530TIP3    H152785   2.481   3.173   1.511  1.1768  0.4835 -2.0344
 9530TIP3    H252786   2.434   3.291   1.592 -1.4342 -2.1456  0.5280
 9531TIP3   OH252787   2.079   2.379   1.944 -0.5353  0.1015  0.1562
 9531TIP3    H152788   2.012   2.406   1.881 -0.3804  1.5391  0.5553
 9531TIP3    H252789   2.108   2.461   1.985  0.1774 -0.6729  1.2849
 9532TIP3   OH252790   1.361   3.213   3.324 -0.0758 -0.3230  0.1549
 9532TIP3    H152791   1.359   3.195   3.230 -1.3723 -2.0477  0.4727
 9532TIP3    H252792   1.367   3.126   3.365  2.4881  0.4466  1.6673
 9533TIP3   OH252793   5.506   3.727   2.182  0.2464  0.5084 -0.0431
 9533TIP3    H152794   5.586   3.745   2.231 -0.8632 -2.3974  3.2000
 9533TIP3    H252795   5.535   3.677   2.106  1.6277  0.9588  0.1609
 9534TIP3   OH252796   0.033   2.377   3.780 -0.2551 -0.0492  0.7529
 9534TIP3    H152797   0.057   2.293   3.741  0.3058  0.0906  0.7811
 9534TIP3    H252798  -0.051   2.361   3.823 -0.6759 -0.3108 -0.1456
 9535TIP3   OH252799   5.380   2.630   0.442 -0.2294  0.3611  0.1246
 9535TIP3    H152800   5.324   2.673   0.378  0.2395 -1.2449 -1.4492
 9535TIP3    H252801   5.331   2.552   0.468  0.2353  0.2071  0.5544
 9536TIP3   OH252802   3.270   0.922   1.990 -0.2847  0.3414 -0.4139
 9536TIP3    H152803   3.364   0.931   2.006 -0.5929  0.4699  1.5801
 9536TIP3    H252804   3.237   1.012   1.992 -0.3535  0.3828 -2.0508
 9537TIP3   OH252805   3.120   4.812   2.923  0.1111  0.7683  0.2177
 9537TIP3    H152806   3.136   4.872   2.995 -1.6525  1.0776  0.3930
 9537TIP3    H252807   3.181   4.840   2.855  0.9335  1.2614  1.1311
 9538TIP3   OH252808   6.170   0.515   1.463 -0.8053 -0.6739  0.5669
 9538TIP3    H152809   6.221   0.444   1.422 -0.9106 -0.0122 -0.7482
 9538TIP3    H252810   6.096   0.470   1.505 -0.2896 -1.4389  0.6853
 9539TIP3   OH252811   1.308   3.433   0.716 -0.0138 -0.5931 -0.0972
 9539TIP3    H152812   1.387   3.396   0.675  0.5030 -0.2402  0.5659
 9539TIP3    H252813   1.244   3.437   0.644  1.5237  2.0012 -1.4758
 9540TIP3   OH252814   0.927   2.203   2.753  0.0784  0.3892 -0.2518
 9540TIP3    H152815   0.882   2.122   2.778 -0.2584  0.5940 -0.1945
 9540TIP3    H252816   0.944   2.193   2.659 -0.1616  0.3483 -0.2911
 9541TIP3   OH252817   6.412   3.216   3.303 -0.1320  0.5563 -0.4342
 9541TIP3    H152818   6.386   3.137   3.350 -1.6937  0.3304 -1.5724
 9541TIP3    H252819   6.382   3.288   3.359  0.0764  0.3196 -0.0203
 9542TIP3   OH252820   0.311   0.929   3.154 -0.3572 -0.3984  0.4055
 9542TIP3    H152821   0.298   0.901   3.244  0.8763 -0.8840  0.4424
 9542TIP3    H252822   0.226   0.967   3.129 -1.2527 -1.7664  1.2053
 9543TIP3   OH252823   6.398   1.329   1.691 -0.3836  0.0331 -0.1752
 9543TIP3    H152824   6.451   1.394   1.646 -1.9784  1.3300 -0.2866
 9543TIP3    H252825   6.420   1.340   1.784  0.7121 -0.5934 -0.3392
 9544TIP3   OH252826   5.632   5.889   2.606 -0.3355  0.2040 -0.2800
 9544TIP3    H152827   5.641   5.872   2.699  2.5150 -2.2303 -0.8489
 9544TIP3    H252828   5.703   5.949   2.584 -1.1892  1.0397 -0.8852
 9545TIP3   OH252829   3.955   1.374   2.169  0.6237  0.2178 -0.3138
 9545TIP3    H152830   3.988   1.463   2.157  1.9428 -0.4640 -2.3229
 9545TIP3    H252831   4.027   1.325   2.209  0.2748 -0.1643 -0.1403
 9546TIP3   OH252832   6.157   5.901   3.731  0.6033  0.3970 -0.1912
 9546TIP3    H152833   6.118   5.896   3.644  0.2191  1.6110 -0.1166
 9546TIP3    H252834   6.092   5.861   3.789  0.7376 -0.1616 -0.4208
 9547TIP3   OH252835   5.598   4.614   3.166 -0.2275 -0.1013 -0.4466
 9547TIP3    H152836   5.629   4.678   3.102 -0.9098  0.7755  0.0817
 9547TIP3    H252837   5.508   4.640   3.186 -0.0121 -0.2945  0.9249
 9548TIP3   OH252838   4.207   1.459   1.960  0.1954 -0.6328 -0.3266
 9548TIP3    H152839   4.275   1.458   2.028  0.0102 -0.7296 -0.1400
 9548TIP3    H252840   4.142   1.522   1.992 -0.2720 -1.2522 -0.0339
 9549TIP3   OH252841   0.370   2.026   0.813  0.5544 -0.0505 -0.0352
 9549TIP3    H152842   0.382   2.019   0.718  2.1652  0.2293  0.1183
 9549TIP3    H252843   0.320   2.106   0.826  0.6510  0.1101 -0.6330
 9550TIP3   OH252844   5.594   1.911   3.684  0.3069  0.0612  0.5549
 9550TIP3    H152845   5.628   1.897   3.773  2.1491  1.4281  0.1201
 9550TIP3    H252846   5.601   2.006   3.670 -0.6922 -0.0340 -0.7759
 9551TIP3   OH252847   5.530   6.158   0.493 -0.0798  0.3416 -0.5565
 9551TIP3    H152848   5.472   6.116   0.557  1.2456 -0.5515  0.1020
 9551TIP3    H252849   5.548   6.089   0.429  1.3332  0.1745 -0.0049
 9552TIP3   OH252850   6.247   3.517   1.089 -0.6142 -0.3832  0.3418
 9552TIP3    H152851   6.204   3.519   1.174 -1.0881  0.9903  0.0925
 9552TIP3    H252852   6.322   3.576   1.099 -0.4066 -0.5747 -0.0643
 9553TIP3   OH252853   2.495   5.480   0.329 -0.0738  0.5028 -0.7173
 9553TIP3    H152854   2.474   5.401   0.378  2.2202  1.1637  1.5805
 9553TIP3    H252855   2.569   5.455   0.273  0.9175  1.0663  0.3072
 9554TIP3   OH252856   6.498   4.996   3.850  0.8864  0.8244 -0.3438
 9554TIP3    H152857   6.525   5.054   3.922 -0.2053 -0.6704  1.3360
 9554TIP3    H252858   6.559   4.922   3.856 -1.0459 -0.7527  1.0568
 9555TIP3   OH252859   0.948   4.857   1.103  0.3573 -0.2788 -0.2827
 9555TIP3    H152860   0.869   4.865   1.050  0.8408  0.2743 -0.9439
 9555TIP3    H252861   0.975   4.766   1.092 -0.5552 -0.6605  0.5027
 9556TIP3   OH252862   4.760   2.449   2.866 -0.1250  0.4660  0.1838
 9556TIP3    H152863   4.818   2.505   2.816 -1.3384  2.1245  0.5565
 9556TIP3    H252864   4.757   2.488   2.953 -3.1279  1.5319 -0.2898
 9557TIP3   OH252865   1.175   2.263   2.835  0.0227  0.0028  0.1262
 9557TIP3    H152866   1.219   2.273   2.750 -0.4648  1.9204  0.0570
 9557TIP3    H252867   1.087   2.232   2.813  0.3294 -0.8437  0.0503
 9558TIP3   OH252868   1.697   5.253   0.607 -0.1885 -0.3171 -0.4169
 9558TIP3    H152869   1.715   5.302   0.526 -0.3058  0.4274 -0.0008
 9558TIP3    H252870   1.768   5.279   0.666 -1.3097  0.8707  0.4650
 9559TIP3   OH252871   4.025   3.882   1.060 -0.1604 -0.2303 -0.0670
 9559TIP3    H152872   4.103   3.827   1.055  0.9197  1.2169  0.1164
 9559TIP3    H252873   4.023   3.928   0.976 -0.0766  0.6619  0.4045
 9560TIP3   OH252874   0.325   4.130   2.722  0.1882 -0.1279 -0.4014
 9560TIP3    H152875   0.385   4.055   2.719  0.2987 -0.0056 -1.5041
 9560TIP3    H252876   0.311   4.153   2.630 -0.9178  0.3509 -0.1268
 9561TIP3   OH252877   3.955   0.107   2.687  0.2245  0.1916  0.4833
 9561TIP3    H152878   3.929   0.072   2.602 -0.3323 -0.8976  1.0863
 9561TIP3    H252879   3.900   0.185   2.699  0.1531  0.2236 -0.0615
 9562TIP3   OH252880   4.022   1.819   3.246 -0.0480  0.5312  0.7515
 9562TIP3    H152881   4.116   1.835   3.250 -0.0653  1.1545 -0.7621
 9562TIP3    H252882   4.013   1.724   3.249  0.7218  0.4078 -0.4255
 9563TIP3   OH252883   5.551   3.542   0.603  0.6584  0.2324 -0.5147
 9563TIP3    H152884   5.639   3.537   0.640 -0.1216  0.8332  1.5688
 9563TIP3    H252885   5.509   3.613   0.651 -0.8529  0.2284 -1.7516
 9564TIP3   OH252886   5.268   4.373   1.292  0.1002 -0.0236 -0.3978
 9564TIP3    H152887   5.340   4.318   1.261  0.7359  0.1626  0.7071
 9564TIP3    H252888   5.222   4.399   1.212 -0.2520 -2.1802 -0.9563
 9565TIP3   OH252889   4.257   4.110   2.850  0.6035  0.1737  0.2113
 9565TIP3    H152890   4.271   4.016   2.848  0.6527  0.1920 -0.6954
 9565TIP3    H252891   4.171   4.123   2.812  0.9169  0.5422 -0.4010
 9566TIP3   OH252892   6.404   0.618   1.589  0.3159 -0.0172  0.0610
 9566TIP3    H152893   6.312   0.594   1.595  0.5938 -1.6172 -1.3458
 9566TIP3    H252894   6.447   0.567   1.657  0.1814  0.7174  0.7069
 9567TIP3   OH252895   4.657   2.305   3.699 -0.1156  0.0605  0.7293
 9567TIP3    H152896   4.634   2.231   3.756  0.0297 -0.7374 -0.2280
 9567TIP3    H252897   4.644   2.382   3.754  0.4908 -0.7117  2.0086
 9568TIP3   OH252898   3.320   3.551   0.472 -0.2802  0.1054 -0.1395
 9568TIP3    H152899   3.284   3.635   0.503 -0.3087 -0.3113  1.0266
 9568TIP3    H252900   3.291   3.488   0.538  0.8456 -0.6005 -0.2971
 9569TIP3   OH252901   6.040   6.105   0.905 -0.0216 -0.5635 -0.2882
 9569TIP3    H152902   5.996   6.189   0.892  0.3280 -0.4892 -1.0524
 9569TIP3    H252903   6.014   6.078   0.993 -1.3224 -0.3602 -0.5850
 9570TIP3   OH252904   2.429   6.015   0.463  0.4486  0.4605  0.4625
 9570TIP3    H152905   2.468   5.946   0.410 -0.5840  0.0624  0.2109
 9570TIP3    H252906   2.369   5.970   0.522  0.9797  0.9805  1.4432
 9571TIP3   OH252907   1.315   5.303   3.409 -0.3099 -0.1039 -0.0389
 9571TIP3    H152908   1.247   5.256   3.361 -0.5528 -1.0779  1.2079
 9571TIP3    H252909   1.286   5.395   3.405 -0.6019 -0.2263 -1.2470
 9572TIP3   OH252910   0.178   4.225   2.434 -0.3538 -0.3127 -0.3345
 9572TIP3    H152911   0.184   4.131   2.445  1.1241 -0.1481  0.6677
 9572TIP3    H252912   0.127   4.238   2.354  0.0703 -1.9672 -0.8957
 9573TIP3   OH252913   5.453   0.442   3.224 -0.2022 -0.4551 -0.2466
 9573TIP3    H152914   5.527   0.396   3.264  1.8940  1.6702 -1.4154
 9573TIP3    H252915   5.419   0.498   3.293  0.7199  0.1486 -0.2673
 9574TIP3   OH252916   2.378   1.930   0.847 -0.4354 -0.1120  0.2402
 9574TIP3    H152917   2.436   1.966   0.780 -0.5715  0.1276  0.2493
 9574TIP3    H252918   2.294   1.971   0.830  0.2916  2.8680  2.7481
 9575TIP3   OH252919   5.280   0.076   2.754 -0.0152 -0.2848  0.1169
 9575TIP3    H152920   5.309   0.070   2.663  1.4657 -0.6748  0.5810
 9575TIP3    H252921   5.361   0.071   2.805 -0.9280 -1.9529  1.5240
 9576TIP3   OH252922   0.617   1.522   3.631  0.0733  0.0173  0.6189
 9576TIP3    H152923   0.675   1.454   3.665 -0.4868 -0.8984 -0.2006
 9576TIP3    H252924   0.612   1.587   3.701 -0.4340 -1.4377  1.9936
 9577TIP3   OH252925   1.468   2.986   1.357 -0.6081 -0.3070 -0.1962
 9577TIP3    H152926   1.394   3.039   1.387 -0.6693 -0.8276  0.6105
 9577TIP3    H252927   1.426   2.909   1.317 -0.5878 -1.9790  2.7015
 9578TIP3   OH252928   2.606   4.471   1.880  0.0224  0.0644 -0.0060
 9578TIP3    H152929   2.533   4.533   1.886 -0.4422 -0.3541 -1.0061
 9578TIP3    H252930   2.667   4.498   1.948 -0.7848  0.8076  0.4369
 9579TIP3   OH252931   2.283   0.442   2.722 -0.2249 -0.1768 -0.2204
 9579TIP3    H152932   2.195   0.411   2.702 -1.2617  1.9474  0.8247
 9579TIP3    H252933   2.330   0.363   2.750 -2.5324 -0.9878  1.6733
 9580TIP3   OH252934   2.411   4.503   1.124 -0.7980  0.4240  0.4136
 9580TIP3    H152935   2.456   4.486   1.207 -1.1784  0.1727  0.5702
 9580TIP3    H252936   2.330   4.546   1.149 -0.2714  1.6576  0.0716
 9581TIP3   OH252937   4.502   1.165   0.793  0.2522 -0.2180  0.0185
 9581TIP3    H152938   4.432   1.137   0.851  1.0570 -1.1591  0.5678
 9581TIP3    H252939   4.499   1.102   0.720  0.6793 -0.4196  0.1715
 9582TIP3   OH252940   2.465   3.810   1.340  0.6118  0.3325  0.2048
 9582TIP3    H152941   2.375   3.807   1.306  1.0321 -0.2370 -0.9250
 9582TIP3    H252942   2.465   3.749   1.413  0.2203 -0.1251 -0.1689
 9583TIP3   OH252943   6.091   3.030   3.131 -0.4118 -1.0402 -0.3961
 9583TIP3    H152944   6.101   3.088   3.055 -0.4224  0.8422  0.9697
 9583TIP3    H252945   6.063   3.088   3.202 -0.0945 -2.6810  1.1408
 9584TIP3   OH252946   4.696   1.133   3.494  1.0476  0.1984  0.2234
 9584TIP3    H152947   4.688   1.050   3.448  0.8131 -0.6027  1.6807
 9584TIP3    H252948   4.718   1.196   3.425 -0.8943 -0.6442 -1.2374
 9585TIP3   OH252949   3.603   3.748   1.477  0.1941  0.0191 -0.0888
 9585TIP3    H152950   3.612   3.676   1.540  0.3125  0.0224 -0.1017
 9585TIP3    H252951   3.676   3.806   1.497  0.1820  0.0631 -0.1745
 9586TIP3   OH252952   2.675   6.195   3.169  0.0435 -0.6015 -0.3818
 9586TIP3    H152953   2.592   6.168   3.129  0.0706  0.3553 -1.1389
 9586TIP3    H252954   2.735   6.122   3.152 -0.4192 -0.9427 -0.5692
 9587TIP3   OH252955   3.269   3.669   2.455 -0.1826 -0.6799 -0.6580
 9587TIP3    H152956   3.181   3.650   2.490 -0.1136 -0.3697 -0.3024
 9587TIP3    H252957   3.254   3.732   2.385 -0.2340 -0.5281 -0.5114
 9588TIP3   OH252958   4.602   1.198   2.623  0.4078  0.1585 -0.3551
 9588TIP3    H152959   4.689   1.158   2.626 -0.0981 -1.1993 -1.8538
 9588TIP3    H252960   4.577   1.210   2.715  1.9733  0.1269  0.0944
 9589TIP3   OH252961   6.493   1.788   1.318 -0.1325  0.6075 -0.0748
 9589TIP3    H152962   6.463   1.821   1.403 -0.5996  2.5457 -0.9500
 9589TIP3    H252963   6.587   1.776   1.329 -0.4129 -0.6622  1.1679
 9590TIP3   OH252964   6.194   0.745   3.456  0.8817  0.1598 -0.1804
 9590TIP3    H152965   6.231   0.781   3.537  0.7687  0.2099 -0.1494
 9590TIP3    H252966   6.189   0.820   3.397  0.4318  0.2478 -0.0377
 9591TIP3   OH252967   2.451   3.617   1.521 -0.2538 -0.2198  0.6766
 9591TIP3    H152968   2.448   3.651   1.611 -0.0555  0.4094  0.4520
 9591TIP3    H252969   2.498   3.534   1.528 -1.5173 -0.9051  1.3707
 9592TIP3   OH252970   3.208   0.646   1.526 -0.3143 -0.6826  0.5956
 9592TIP3    H152971   3.115   0.625   1.532 -1.0452  1.2711 -1.7753
 9592TIP3    H252972   3.226   0.699   1.604 -1.7201  0.4432  0.2102
 9593TIP3   OH252973   2.302   6.432   3.259 -0.0582  0.2672 -0.1343
 9593TIP3    H152974   2.213   6.466   3.252 -0.7443 -1.4004  0.1325
 9593TIP3    H252975   2.317   6.422   3.353  0.3626  0.4309 -0.1843
 9594TIP3   OH252976   0.814   5.057   1.264 -0.2941  0.2888 -0.5502
 9594TIP3    H152977   0.876   4.988   1.241 -1.1264 -0.1692 -1.5450
 9594TIP3    H252978   0.833   5.128   1.202 -0.2935  0.4290 -0.3903
 9595TIP3   OH252979   3.183   3.649   1.526 -0.0104 -0.5931 -0.1827
 9595TIP3    H152980   3.181   3.598   1.445 -0.8460  1.2036 -1.3777
 9595TIP3    H252981   3.192   3.740   1.496  0.5472  0.0557  1.7964
 9596TIP3   OH252982   0.322   4.540   2.790  0.1421 -0.3716  0.1318
 9596TIP3    H152983   0.411   4.518   2.762  0.3768  0.3338  0.3059
 9596TIP3    H252984   0.269   4.530   2.710  0.6936  0.9804 -0.4353
 9597TIP3   OH252985   4.889   3.016   2.045 -0.2412 -0.0343 -0.2627
 9597TIP3    H152986   4.983   3.025   2.026 -0.2063  1.8559  0.6256
 9597TIP3    H252987   4.886   2.971   2.129 -0.2185 -1.8306 -1.1780
 9598TIP3   OH252988   5.151   5.976   3.343 -0.4352  0.2253  0.5078
 9598TIP3    H152989   5.194   5.943   3.422 -0.3075  0.3550  0.4929
 9598TIP3    H252990   5.065   5.932   3.342  0.1821 -1.0291 -0.1445
 9599TIP3   OH252991   1.724   2.565   0.742  0.0940 -0.0581 -0.0353
 9599TIP3    H152992   1.665   2.626   0.698  0.9084  1.0452  0.3448
 9599TIP3    H252993   1.729   2.490   0.684  1.7973  1.6614 -2.3280
 9600TIP3   OH252994   0.235   2.254   0.830 -0.3477  0.0066  0.1573
 9600TIP3    H152995   0.201   2.313   0.898 -2.1747 -0.1104 -0.6096
 9600TIP3    H252996   0.204   2.291   0.748  0.0759 -1.0002 -0.4768
 9601TIP3   OH252997   1.662   3.298   2.891 -0.6283  0.3819 -0.8122
 9601TIP3    H152998   1.601   3.370   2.874 -1.0121  0.4808  0.8441
 9601TIP3    H252999   1.661   3.246   2.810 -0.8081  1.8831 -1.8094
 9602TIP3   OH253000   5.421   1.072   3.010  0.1565  0.0115 -0.5726
 9602TIP3    H153001   5.355   1.068   3.079  1.0182 -2.7671  0.2216
 9602TIP3    H253002   5.504   1.078   3.056  0.6939 -0.9530 -1.3896
 9603TIP3   OH253003   5.609   0.195   0.369 -0.1428  0.6423 -0.2086
 9603TIP3    H153004   5.617   0.290   0.358  0.4426  0.3644 -2.8622
 9603TIP3    H253005   5.519   0.175   0.345  0.1564  0.3814 -1.1433
 9604TIP3   OH253006   2.945   0.877   1.801  0.7656  0.0308  0.2978
 9604TIP3    H153007   2.888   0.820   1.750 -1.0852  0.7979  1.3921
 9604TIP3    H253008   2.960   0.953   1.746 -1.6426  1.0916  0.9672
 9605TIP3   OH253009   5.755   4.962   4.164 -0.6264  0.1587  0.6035
 9605TIP3    H153010   5.801   4.911   4.097 -0.6054 -0.5331  1.1326
 9605TIP3    H253011   5.663   4.941   4.151 -0.6717  0.4511  0.4433
 9606TIP3   OH253012   4.874   5.623   2.667  0.1455 -0.4224 -0.1398
 9606TIP3    H153013   4.798   5.653   2.717  0.6868  1.5017 -0.3940
 9606TIP3    H253014   4.844   5.624   2.576 -0.4427 -2.7031 -0.0443
 9607TIP3   OH253015   1.850   3.898   1.290 -0.7087 -0.2235  0.2211
 9607TIP3    H153016   1.886   3.835   1.354 -1.4761  0.3444  1.2322
 9607TIP3    H253017   1.884   3.867   1.206 -1.1091 -2.0504  0.6684
 9608TIP3   OH253018   6.157   4.274   4.202 -0.5626 -0.3522 -0.4690
 9608TIP3    H153019   6.242   4.243   4.234 -0.6737 -0.4001 -0.2139
 9608TIP3    H253020   6.101   4.275   4.280 -0.9833 -0.9673 -0.7561
 9609TIP3   OH253021   0.745   3.117   3.961  0.1030 -0.4458  0.7050
 9609TIP3    H153022   0.657   3.085   3.982  0.5555 -0.9572  1.9104
 9609TIP3    H253023   0.796   3.037   3.942  0.8471 -0.3572  2.1982
 9610TIP3   OH253024   1.183   6.404   2.573 -0.1125 -0.2226 -0.2567
 9610TIP3    H153025   1.203   6.428   2.483  0.4270  0.5311  0.0489
 9610TIP3    H253026   1.136   6.480   2.608 -0.5912 -0.6360  0.0137
 9611TIP3   OH253027   2.399   5.281   0.799  0.4532  0.4476  0.0156
 9611TIP3    H153028   2.333   5.323   0.743  0.9049 -0.0941 -0.9334
 9611TIP3    H253029   2.383   5.187   0.790  0.9422  0.3319  0.3061
 9612TIP3   OH253030   4.531   0.948   2.941  0.0570 -0.2737  0.3241
 9612TIP3    H153031   4.619   0.927   2.908 -0.0406 -2.1845  1.1554
 9612TIP3    H253032   4.475   0.945   2.864  0.6747  0.6995 -0.1731
 9613TIP3   OH253033   1.481   5.329   3.065 -0.5765  0.9123  0.0818
 9613TIP3    H153034   1.484   5.277   2.984 -0.6294  3.2415 -1.5152
 9613TIP3    H253035   1.458   5.417   3.035  0.3432  2.0646  2.5658
 9614TIP3   OH253036   6.561   3.691   3.277  0.2039 -0.0177 -0.7133
 9614TIP3    H153037   6.542   3.633   3.351  0.9046  0.4980 -0.1127
 9614TIP3    H253038   6.574   3.777   3.317 -1.4883  0.7185 -1.6498
 9615TIP3   OH253039   6.124   6.062   4.992  0.0081  0.6129  0.0745
 9615TIP3    H153040   6.050   6.052   4.931  0.3350 -0.5119 -0.1628
 9615TIP3    H253041   6.122   6.154   5.017 -0.8271  0.8401 -0.7641
 9616TIP3   OH253042   6.408   4.472   3.793 -0.1284 -0.4449  0.4959
 9616TIP3    H153043   6.350   4.399   3.813 -0.9388 -0.0471 -0.3447
 9616TIP3    H253044   6.358   4.527   3.733  0.6380  0.5705  0.7627
 9617TIP3   OH253045   2.632   0.417   3.051  0.2874  0.6808  0.4370
 9617TIP3    H153046   2.543   0.452   3.041  0.3458  0.7578  0.1863
 9617TIP3    H253047   2.639   0.396   3.144  0.0956  0.9176  0.5060
 9618TIP3   OH253048   3.210   3.905   2.279 -0.2076 -0.1131 -0.1534
 9618TIP3    H153049   3.285   3.904   2.219 -0.4880 -1.3046 -0.5171
 9618TIP3    H253050   3.137   3.871   2.226 -1.1528  1.5404  0.0285
 9619TIP3   OH253051   3.219   5.720   0.691  0.2572 -0.6174 -0.0971
 9619TIP3    H153052   3.210   5.703   0.597 -1.9983 -1.9269  0.2858
 9619TIP3    H253053   3.129   5.730   0.722  0.9735  0.2031  1.8812
 9620TIP3   OH253054   5.131   5.024   1.036 -0.2986  0.1063 -0.2899
 9620TIP3    H153055   5.117   5.043   0.943  2.3318 -2.0141 -1.2494
 9620TIP3    H253056   5.108   4.931   1.045 -0.8245  0.3579  1.2767
 9621TIP3   OH253057   2.982   2.258   2.859 -0.0858  0.0154  0.0494
 9621TIP3    H153058   2.990   2.201   2.936 -0.0657 -0.3525 -0.2181
 9621TIP3    H253059   3.057   2.234   2.804 -0.7825 -0.6165 -0.6524
 9622TIP3   OH253060   3.992   4.528   2.497 -0.4114 -0.5011 -0.0140
 9622TIP3    H153061   4.018   4.509   2.407  0.9343 -3.4247  0.8431
 9622TIP3    H253062   4.060   4.586   2.531  0.2953 -1.1520 -0.2911
 9623TIP3   OH253063   1.679   6.602   3.633  0.4716 -0.0384  0.1019
 9623TIP3    H153064   1.707   6.692   3.650  0.8158 -0.3753  1.4671
 9623TIP3    H253065   1.761   6.555   3.615  0.1705  0.1785 -2.0787
 9624TIP3   OH253066   3.389   4.573   2.092 -0.1774  0.0227 -0.0904
 9624TIP3    H153067   3.407   4.658   2.052  0.0050 -0.8286 -1.9200
 9624TIP3    H253068   3.461   4.517   2.063 -1.0637 -1.1368 -0.1312
 9625TIP3   OH253069   0.390   2.006   1.868 -0.2399 -0.9050 -0.0033
 9625TIP3    H153070   0.374   2.092   1.905 -0.9359 -0.0919 -2.0765
 9625TIP3    H253071   0.318   1.992   1.806  0.0867 -2.8006 -0.0209
 9626TIP3   OH253072   2.329   0.496   1.709 -0.3167  0.2414  0.4128
 9626TIP3    H153073   2.241   0.493   1.672 -0.8020  1.1028  1.4410
 9626TIP3    H253074   2.356   0.405   1.717 -1.0279 -0.0193 -0.1012
 9627TIP3   OH253075   2.046   0.220   0.859  0.1633 -0.0275 -0.1559
 9627TIP3    H153076   1.980   0.157   0.888  0.7001 -1.2390 -1.4432
 9627TIP3    H253077   1.997   0.285   0.810 -0.2431 -0.1662  0.0606
 9628TIP3   OH253078   4.788   3.929   1.903  0.5569  0.4219  0.1345
 9628TIP3    H153079   4.869   3.892   1.938 -0.2030 -0.1860  1.3464
 9628TIP3    H253080   4.731   3.940   1.980  0.1185  2.5512 -0.4097
 9629TIP3   OH253081   3.501   4.792   2.014  0.4329 -0.2063 -0.5400
 9629TIP3    H153082   3.502   4.832   2.101 -0.0939 -1.4761  0.0800
 9629TIP3    H253083   3.564   4.842   1.963 -0.2913  1.4762  0.1543
 9630TIP3   OH253084   1.613   0.289   1.340  0.0834  0.2143 -0.0300
 9630TIP3    H153085   1.628   0.372   1.295 -0.7444  0.2874 -0.1873
 9630TIP3    H253086   1.592   0.227   1.270  1.2664 -0.2800  0.0312
 9631TIP3   OH253087   6.221   4.359   3.389  0.5412 -0.4167 -0.6499
 9631TIP3    H153088   6.297   4.335   3.442  0.4278 -0.0987 -0.3367
 9631TIP3    H253089   6.224   4.299   3.314 -0.1322 -1.9109  0.4529
 9632TIP3   OH253090   6.240   2.051   2.326  0.8176 -0.1145  0.1109
 9632TIP3    H153091   6.216   2.143   2.340  0.5215 -0.1069 -0.4324
 9632TIP3    H253092   6.180   2.003   2.384 -0.6583 -0.1023 -1.3438
 9633TIP3   OH253093   1.932   0.639   0.758 -0.0607 -0.0055  0.1627
 9633TIP3    H153094   1.912   0.545   0.753  1.8888 -0.4808  0.2588
 9633TIP3    H253095   1.973   0.650   0.844 -3.4860  1.6914  1.7513
 9634TIP3   OH253096   6.503   4.434   1.391  0.3665 -0.3933 -0.2897
 9634TIP3    H153097   6.575   4.494   1.369  0.2793  0.8711  2.4358
 9634TIP3    H253098   6.452   4.427   1.310  1.1826  2.0930 -1.1085
 9635TIP3   OH253099   5.890   5.410   3.910  0.0175 -0.2598 -0.3636
 9635TIP3    H153100   5.816   5.469   3.899  0.6623  0.7067  0.2793
 9635TIP3    H253101   5.865   5.352   3.982 -0.2485 -0.1487 -0.3673
 9636TIP3   OH253102   1.434   5.177   4.371  0.1668  0.0431  0.1842
 9636TIP3    H153103   1.465   5.123   4.298 -1.0693  1.0410 -1.0999
 9636TIP3    H253104   1.504   5.169   4.437  2.6219  1.2014 -2.0948
 9637TIP3   OH253105   0.460   4.954   0.947 -0.0779  0.2721 -0.0835
 9637TIP3    H153106   0.437   4.893   0.877 -0.2456 -0.9684  1.0125
 9637TIP3    H253107   0.445   5.041   0.910 -0.0875 -0.3539 -1.5948
 9638TIP3   OH253108   5.637   2.466   2.993 -0.2520  0.0970  0.0802
 9638TIP3    H153109   5.590   2.382   2.994 -0.0511 -0.0127  0.7026
 9638TIP3    H253110   5.608   2.510   3.073  2.1212 -0.7690  1.5141
 9639TIP3   OH253111   4.803   0.856   3.249 -0.1328  0.0718  0.2454
 9639TIP3    H153112   4.717   0.825   3.222 -1.2040  1.0371  2.3277
 9639TIP3    H253113   4.828   0.798   3.322  0.2139  0.8178  0.7301
 9640TIP3   OH253114   2.659   1.185   3.343 -0.1830 -0.3448 -0.1474
 9640TIP3    H153115   2.638   1.125   3.272 -0.2377  0.9463 -1.2738
 9640TIP3    H253116   2.593   1.254   3.336 -0.6670 -0.5774  1.6769
 9641TIP3   OH253117   5.218   5.552   4.370  0.5175  0.2530 -0.7959
 9641TIP3    H153118   5.203   5.492   4.443  1.0357  0.7731 -0.2539
 9641TIP3    H253119   5.196   5.501   4.292 -1.6779  0.2255 -0.1976
 9642TIP3   OH253120   0.687   0.963   3.900 -0.0274  0.1343 -0.1812
 9642TIP3    H153121   0.699   1.028   3.969  2.5390 -0.1642 -0.2702
 9642TIP3    H253122   0.593   0.944   3.901 -0.1796  0.6623  2.7174
 9643TIP3   OH253123   5.411   5.353   3.838 -0.6299  0.4744  0.0523
 9643TIP3    H153124   5.331   5.344   3.890  0.0404  0.3513  1.0952
 9643TIP3    H253125   5.480   5.369   3.903  0.2177  0.4258 -0.8127
 9644TIP3   OH253126   5.144   0.980   3.866  0.8075  0.0227 -0.1614
 9644TIP3    H153127   5.219   0.934   3.903  1.3375 -1.1646 -2.4847
 9644TIP3    H253128   5.143   1.065   3.910  3.3830 -0.0174  0.1147
 9645TIP3   OH253129   0.515   5.137   0.585  0.5574 -0.5930 -0.1175
 9645TIP3    H153130   0.447   5.072   0.569  1.3191 -1.4181 -0.0938
 9645TIP3    H253131   0.470   5.209   0.629  0.2189 -2.4757  2.9017
 9646TIP3   OH253132   1.311   4.098   0.792  0.4302  0.3164  0.1772
 9646TIP3    H153133   1.317   4.046   0.872 -1.2311  1.6992  1.2585
 9646TIP3    H253134   1.400   4.128   0.776  0.7306  0.2910  1.6992
 9647TIP3   OH253135   4.298   4.222   0.960 -0.4019 -0.2267 -0.4610
 9647TIP3    H153136   4.350   4.256   0.887 -1.9875 -1.4586 -2.2566
 9647TIP3    H253137   4.230   4.288   0.974 -0.3622 -0.1998 -0.3954
 9648TIP3   OH253138   2.447   0.567   0.789  1.1710  0.2790 -0.0186
 9648TIP3    H153139   2.379   0.524   0.841  0.0464  0.0191 -1.6432
 9648TIP3    H253140   2.529   0.535   0.826  0.7105  3.1016  4.2573
 9649TIP3   OH253141   0.561   2.540   2.921 -0.0219 -0.0374  0.6258
 9649TIP3    H153142   0.551   2.446   2.909  2.5317 -0.2090 -0.9303
 9649TIP3    H253143   0.542   2.577   2.834  1.4805  0.5885  0.5343
 9650TIP3   OH253144   0.767   3.781   0.402 -0.6058 -0.0572  0.8832
 9650TIP3    H153145   0.813   3.758   0.321 -0.5923 -2.0578  1.4092
 9650TIP3    H253146   0.789   3.873   0.416 -0.1323  0.1789 -1.0577
 9651TIP3   OH253147   5.465   4.164   1.709  0.5143  0.2359 -0.6169
 9651TIP3    H153148   5.429   4.243   1.670  0.2833  0.1727 -0.5346
 9651TIP3    H253149   5.417   4.092   1.667  0.0258  0.1764  0.0070
 9652TIP3   OH253150   0.292   2.866   0.975 -0.0714  0.3610 -0.1030
 9652TIP3    H153151   0.322   2.834   1.060  0.5754  1.0647 -0.0594
 9652TIP3    H253152   0.260   2.955   0.993  1.5978  1.1539 -0.8657
 9653TIP3   OH253153   5.457   6.102   2.234 -0.3991 -0.1602 -0.4312
 9653TIP3    H153154   5.550   6.081   2.239 -0.5681 -0.7727  0.3537
 9653TIP3    H253155   5.414   6.033   2.285 -1.3297 -0.1748 -1.2049
 9654TIP3   OH253156   5.124   5.710   2.053  0.0243  0.0742  0.6563
 9654TIP3    H153157   5.133   5.671   1.966  1.3265 -0.7891  1.1304
 9654TIP3    H253158   5.034   5.692   2.079 -0.3487  0.2556 -0.4650
 9655TIP3   OH253159   6.583   5.618   1.236 -0.0051  0.1691  0.7158
 9655TIP3    H153160   6.515   5.658   1.290  1.0933 -0.3842  2.6134
 9655TIP3    H253161   6.560   5.525   1.233 -0.3078  0.2591 -0.2083
 9656TIP3   OH253162   1.363   4.524   3.130  0.2651  0.5566 -0.2486
 9656TIP3    H153163   1.345   4.461   3.061  3.2373  0.1111 -0.7799
 9656TIP3    H253164   1.387   4.604   3.084  0.3371  0.8597  0.3025
 9657TIP3   OH253165   5.908   4.268   1.529  0.5106 -0.1258  0.7106
 9657TIP3    H153166   5.918   4.212   1.606  1.5246  1.0296  1.4508
 9657TIP3    H253167   5.870   4.349   1.563 -1.0298 -0.3542 -0.3555
 9658TIP3   OH253168   1.960   5.506   2.401 -0.2954  0.4340  0.1292
 9658TIP3    H153169   1.915   5.535   2.321 -0.4035  2.4748  0.8592
 9658TIP3    H253170   2.028   5.571   2.415  0.8274 -0.8454  0.8013
 9659TIP3   OH253171   3.770   0.054   3.120  0.1162 -0.1987 -0.0005
 9659TIP3    H153172   3.752   0.100   3.202  0.1621 -0.3217  0.0784
 9659TIP3    H253173   3.684   0.025   3.089  0.0236  0.4034 -0.3238
 9660TIP3   OH253174   5.541   5.415   2.040  0.0343  0.8053  0.1168
 9660TIP3    H153175   5.453   5.387   2.067  0.5893  0.8691  2.1289
 9660TIP3    H253176   5.600   5.353   2.080  0.9365  0.1226 -2.0896
 9661TIP3   OH253177   4.696   3.501   2.276 -0.3047  0.4596 -0.0077
 9661TIP3    H153178   4.702   3.574   2.214  1.2989  0.5635  0.2123
 9661TIP3    H253179   4.721   3.425   2.224  0.9060  0.5259  0.4519
 9662TIP3   OH253180   5.516   0.086   2.865 -0.0284 -0.1039  0.2162
 9662TIP3    H153181   5.604   0.114   2.838  0.4153 -1.9683 -0.4513
 9662TIP3    H253182   5.526   0.062   2.957  0.1357 -0.2224  0.1683
 9663TIP3   OH253183   3.110   3.791   1.985 -0.1033 -0.0387 -0.0129
 9663TIP3    H153184   3.015   3.788   1.988 -0.1135  0.5708  0.6105
 9663TIP3    H253185   3.134   3.745   1.905 -0.9318  0.0224 -0.2964
 9664TIP3   OH253186   1.306   3.807   1.678  0.4674 -0.3217 -0.1003
 9664TIP3    H153187   1.333   3.898   1.675  0.7530 -0.4199 -0.5226
 9664TIP3    H253188   1.217   3.807   1.641 -0.4400  0.1054  1.9408
 9665TIP3   OH253189   3.418   1.350   1.998  0.2949 -0.3941  0.9847
 9665TIP3    H153190   3.360   1.415   2.035  0.9289 -1.0287  3.2291
 9665TIP3    H253191   3.443   1.386   1.913 -2.6262  0.2867  0.3074
 9666TIP3   OH253192   4.620   5.516   2.857 -0.2741  0.3074  0.1183
 9666TIP3    H153193   4.548   5.572   2.831 -1.0965 -0.5479  0.5038
 9666TIP3    H253194   4.599   5.430   2.819 -0.2722 -0.3434  1.5282
 9667TIP3   OH253195   6.430   5.390   5.072  0.3660  0.2203  0.6178
 9667TIP3    H153196   6.475   5.352   4.997  1.4414 -0.2063  1.4558
 9667TIP3    H253197   6.337   5.388   5.048  0.5855 -0.9878 -0.2258
 9668TIP3   OH253198   3.027   5.594   2.258 -0.5733 -0.0364  0.1605
 9668TIP3    H153199   3.026   5.561   2.169  0.1947  1.4710 -0.4551
 9668TIP3    H253200   2.946   5.562   2.297  0.8609 -4.0150  0.2422
 9669TIP3   OH253201   5.496   4.722   3.948  0.2899  0.1521 -0.0438
 9669TIP3    H153202   5.476   4.755   4.036  0.4943  0.4869 -0.1204
 9669TIP3    H253203   5.411   4.696   3.912  0.4230 -2.0706  1.0665
 9670TIP3   OH253204   3.320   4.910   2.777 -0.0763  0.5364  0.6135
 9670TIP3    H153205   3.305   5.000   2.746 -0.1614  0.2609 -0.1734
 9670TIP3    H253206   3.337   4.860   2.697  0.6836 -0.0155  1.1114
 9671TIP3   OH253207   4.018   3.438   0.451 -0.2441  0.2601  0.1356
 9671TIP3    H153208   3.983   3.366   0.503  0.8782  0.0647  0.6561
 9671TIP3    H253209   4.094   3.399   0.406  0.4106  1.1208  0.4729
 9672TIP3   OH253210   4.158   5.064   2.238  0.2628  0.2746  0.4031
 9672TIP3    H153211   4.095   5.077   2.167  0.6179  0.1874  0.0694
 9672TIP3    H253212   4.243   5.080   2.198  0.5317 -0.6123  0.5850
 9673TIP3   OH253213   5.787   1.058   3.431  0.5173  0.6742  0.4958
 9673TIP3    H153214   5.774   0.975   3.386  0.3821 -0.2936  2.2298
 9673TIP3    H253215   5.700   1.098   3.433  0.1033 -0.2334  1.6421
 9674TIP3   OH253216   5.783   1.522   2.324 -0.0396  0.0298  0.3169
 9674TIP3    H153217   5.702   1.473   2.342 -1.3676  2.3563  1.1374
 9674TIP3    H253218   5.850   1.479   2.377 -0.0279 -3.4675 -2.1580
 9675TIP3   OH253219   0.149   4.019   3.343 -0.5367  0.2520 -0.4883
 9675TIP3    H153220   0.122   4.083   3.277  0.1247  1.0290 -0.0367
 9675TIP3    H253221   0.226   4.059   3.384 -0.2169 -0.7684 -0.0738
 9676TIP3   OH253222   0.632   5.705   1.973 -0.5780 -0.4715 -0.5143
 9676TIP3    H153223   0.616   5.610   1.975 -0.0651 -0.5589  0.8113
 9676TIP3    H253224   0.571   5.738   1.908 -1.1716 -1.6468 -0.5927
 9677TIP3   OH253225   4.359   2.234   2.754  0.2171  0.3708 -0.1678
 9677TIP3    H153226   4.428   2.170   2.740  0.0428  0.0394  0.4173
 9677TIP3    H253227   4.360   2.250   2.849 -2.9838 -2.5553  0.5943
 9678TIP3   OH253228   3.559   1.450   1.795 -0.6570 -0.5520  0.0148
 9678TIP3    H153229   3.495   1.457   1.724 -1.1920  0.4558  0.5712
 9678TIP3    H253230   3.624   1.387   1.763 -0.4827  0.4311 -1.6611
 9679TIP3   OH253231   3.093   0.994   2.298 -0.3926  0.1414 -0.5048
 9679TIP3    H153232   3.054   0.951   2.375 -1.9742  0.5293 -1.0562
 9679TIP3    H253233   3.048   0.955   2.223  0.8146  0.0981 -1.2247
 9680TIP3   OH253234   4.794   6.208   0.918  0.0467  0.2076 -0.2106
 9680TIP3    H153235   4.797   6.297   0.954 -0.2042  0.3870 -0.6259
 9680TIP3    H253236   4.823   6.152   0.990 -0.4552  0.5632  0.2732
 9681TIP3   OH253237   5.589   1.587   1.412 -0.1641  0.0058  0.1080
 9681TIP3    H153238   5.664   1.572   1.470  1.5002  0.2577 -1.8812
 9681TIP3    H253239   5.554   1.500   1.394 -1.1175 -0.0473  1.8991
 9682TIP3   OH253240   3.225   2.300   1.852 -0.2659  0.3732  0.0660
 9682TIP3    H153241   3.222   2.227   1.790 -0.6386  1.0179 -0.6934
 9682TIP3    H253242   3.135   2.329   1.860  0.1468  2.2471 -1.4906
 9683TIP3   OH253243   2.325   2.046   1.947 -0.1893  0.0888  0.2347
 9683TIP3    H153244   2.408   2.086   1.921 -0.3078 -0.7888 -1.7078
 9683TIP3    H253245   2.349   1.969   1.998  0.0845  1.4022  2.1667
 9684TIP3   OH253246   4.574   6.519   2.573  0.7697 -0.3492 -0.3305
 9684TIP3    H153247   4.556   6.501   2.666  1.3940  1.4560  0.1885
 9684TIP3    H253248   4.511   6.588   2.550  1.7432  0.4191 -0.7443
 9685TIP3   OH253249   3.594   5.538   2.876  0.3726  0.5260  0.1534
 9685TIP3    H153250   3.511   5.526   2.831 -0.2033  1.6637  0.8676
 9685TIP3    H253251   3.576   5.604   2.943  1.2117 -0.9941  1.9949
 9686TIP3   OH253252   6.359   6.253   4.310 -0.0259 -0.2890  0.6248
 9686TIP3    H153253   6.293   6.222   4.372 -0.4646 -0.3739  0.1188
 9686TIP3    H253254   6.386   6.339   4.344  0.9917 -1.0556  1.8785
 9687TIP3   OH253255   1.879   5.549   1.787 -0.0546  0.3140 -0.1178
 9687TIP3    H153256   1.887   5.517   1.877 -3.7145 -0.9392 -0.0781
 9687TIP3    H253257   1.836   5.634   1.795 -1.4929 -0.3286 -0.6670
 9688TIP3   OH253258   0.213   4.317   2.936  0.2403  0.2374  0.1021
 9688TIP3    H153259   0.257   4.397   2.909 -0.0470  0.2265 -0.4324
 9688TIP3    H253260   0.253   4.248   2.883  0.1450  0.1048  0.1989
 9689TIP3   OH253261   5.098   0.046   0.351  0.0013  0.3042  0.1218
 9689TIP3    H153262   5.029   0.107   0.324  0.8505  1.6842  0.8962
 9689TIP3    H253263   5.051  -0.034   0.376 -1.3105  1.1448  0.4842
 9690TIP3   OH253264   5.123   2.584   2.025 -0.5455  0.1513 -0.0908
 9690TIP3    H153265   5.114   2.675   2.054 -0.4870  0.4704 -1.0386
 9690TIP3    H253266   5.115   2.532   2.105  0.6340  1.0515  0.6520
 9691TIP3   OH253267   3.694   0.669   0.681 -0.3034 -0.5515  0.0552
 9691TIP3    H153268   3.782   0.657   0.645 -0.6061 -1.7151 -0.3400
 9691TIP3    H253269   3.660   0.581   0.690 -0.8495 -0.1924  1.7151
 9692TIP3   OH253270   3.306   6.474   4.322 -0.2270  0.2917 -0.0450
 9692TIP3    H153271   3.338   6.391   4.356  1.3577  0.6486 -0.5841
 9692TIP3    H253272   3.214   6.476   4.346 -0.0133 -1.0936  0.9881
 9693TIP3   OH253273   5.604   2.021   3.190  0.3256  0.6686  0.0959
 9693TIP3    H153274   5.560   2.039   3.107 -1.9764  1.4388  1.3813
 9693TIP3    H253275   5.548   1.957   3.234  1.3846  0.4224  1.1489
 9694TIP3   OH253276   3.693   3.285   0.888  0.3386  0.2130 -0.1627
 9694TIP3    H153277   3.687   3.367   0.839  1.8258  0.7678  0.5070
 9694TIP3    H253278   3.612   3.281   0.939  0.7243  1.8773  0.6606
 9695TIP3   OH253279   2.654   1.318   3.601 -0.0299  0.0819  0.9721
 9695TIP3    H153280   2.637   1.274   3.518 -0.6115  1.2729  0.4308
 9695TIP3    H253281   2.568   1.323   3.644  0.1699 -0.0215  1.3888
 9696TIP3   OH253282   0.640   4.811   2.085 -0.3039 -0.0031  0.4149
 9696TIP3    H153283   0.658   4.743   2.019 -0.1874  0.6393 -0.2350
 9696TIP3    H253284   0.552   4.841   2.065  0.3863  1.4543 -0.6303
 9697TIP3   OH253285   5.444   5.382   3.320 -0.4224  0.3565 -0.1601
 9697TIP3    H153286   5.399   5.467   3.327 -2.1054 -0.4979  0.0558
 9697TIP3    H253287   5.440   5.345   3.408  1.2323  0.4666 -0.0129
 9698TIP3   OH253288   5.157   0.322   3.381 -0.6249  0.2131 -0.0651
 9698TIP3    H153289   5.076   0.346   3.336 -3.1067 -0.2262  3.6445
 9698TIP3    H253290   5.182   0.401   3.428  1.0542  0.2708 -1.0008
 9699TIP3   OH253291   5.655   1.393   2.562 -0.5381  0.4584 -0.3561
 9699TIP3    H153292   5.697   1.308   2.575  0.4165  1.1888  1.7584
 9699TIP3    H253293   5.589   1.398   2.631  0.2878  1.9186  0.3764
 9700TIP3   OH253294   4.836   0.869   1.355 -0.2125  0.2423  0.0316
 9700TIP3    H153295   4.871   0.856   1.443 -0.3566  0.3089  0.0989
 9700TIP3    H253296   4.821   0.964   1.350 -0.5304  0.1927  0.0584
 9701TIP3   OH253297   0.659   4.282   1.811  0.0124  0.0971  0.1647
 9701TIP3    H153298   0.657   4.298   1.717 -0.5969 -0.7515  0.0225
 9701TIP3    H253299   0.726   4.215   1.824 -0.6157 -0.5415  0.1967
 9702TIP3   OH253300   4.861   6.218   0.530 -0.2172  0.5267 -0.0787
 9702TIP3    H153301   4.797   6.170   0.583  0.6050  0.3055  0.7405
 9702TIP3    H253302   4.927   6.247   0.593 -0.4485  2.3556 -0.6109
 9703TIP3   OH253303   2.658   5.278   0.648 -0.0211  0.2041  0.9814
 9703TIP3    H153304   2.618   5.288   0.735 -0.9159 -0.8948  0.7292
 9703TIP3    H253305   2.584   5.278   0.588  0.5283  0.1154  0.2948
 9704TIP3   OH253306   3.122   2.189   2.628 -0.3654  0.5413 -0.2295
 9704TIP3    H153307   3.207   2.199   2.585 -0.5176 -0.5750 -0.8388
 9704TIP3    H253308   3.077   2.122   2.577  0.3532 -2.6963  2.9319
 9705TIP3   OH253309   3.036   6.328   3.123 -0.0395  0.1093  0.2317
 9705TIP3    H153310   2.992   6.264   3.067  1.4695  0.8516 -1.9478
 9705TIP3    H253311   2.990   6.323   3.206 -2.1345 -1.3913 -0.9239
 9706TIP3   OH253312   0.950   5.830   1.100 -0.2271 -0.3962 -0.1263
 9706TIP3    H153313   0.937   5.736   1.085 -1.0653 -0.1314 -1.2120
 9706TIP3    H253314   0.894   5.872   1.035 -1.1282  0.8720  1.3972
 9707TIP3   OH253315   2.561   1.115   0.536  0.0561 -0.0620 -0.4097
 9707TIP3    H153316   2.522   1.193   0.494  0.4736  0.7564  0.6749
 9707TIP3    H253317   2.541   1.043   0.476 -3.3938  0.2325  0.1974
 9708TIP3   OH253318   3.417   2.632   2.530  0.1837  0.5222 -0.2952
 9708TIP3    H153319   3.458   2.713   2.561  0.9105  1.0805 -2.5530
 9708TIP3    H253320   3.330   2.659   2.501 -0.0480  0.2440  0.1412
 9709TIP3   OH253321   1.198   3.890   3.476  0.4424  0.9416  0.2805
 9709TIP3    H153322   1.154   3.805   3.475 -0.0462  1.1124  2.4758
 9709TIP3    H253323   1.289   3.870   3.498  0.9206  0.8130 -1.6743
 9710TIP3   OH253324   6.417   3.046   2.481 -0.3346  0.1718  0.2674
 9710TIP3    H153325   6.499   3.061   2.434 -0.4568 -0.4940 -0.1732
 9710TIP3    H253326   6.350   3.082   2.423 -0.4893 -0.6885 -0.0987
 9711TIP3   OH253327   0.729   1.292   1.705  0.5318  0.2336  0.5126
 9711TIP3    H153328   0.731   1.211   1.757 -0.4153  0.6682  1.2445
 9711TIP3    H253329   0.779   1.355   1.758  0.1979  0.4726  0.5424
 9712TIP3   OH253330   2.985   0.867   1.494  0.2439  0.6274  0.1403
 9712TIP3    H153331   2.952   0.793   1.545  2.7954 -1.4486 -0.9682
 9712TIP3    H253332   2.962   0.944   1.546 -0.7185 -1.0826  2.4298
 9713TIP3   OH253333   4.576   1.406   1.925 -0.4688  1.0188  0.2613
 9713TIP3    H153334   4.553   1.405   1.832 -0.1417  1.8120  0.1659
 9713TIP3    H253335   4.540   1.325   1.959  1.8344 -0.7265 -1.1498
 9714TIP3   OH253336   2.139   3.311   0.813 -0.2030  0.7017 -0.2948
 9714TIP3    H153337   2.112   3.234   0.763  0.6663 -1.7375  2.7213
 9714TIP3    H253338   2.160   3.277   0.900  2.4457  4.0103  0.5528
 9715TIP3   OH253339   4.014   4.121   2.621 -0.0313 -0.4213  0.5236
 9715TIP3    H153340   3.924   4.139   2.596  0.8979  0.5658 -2.6314
 9715TIP3    H253341   4.021   4.026   2.620 -0.4248 -0.4964 -2.1482
 9716TIP3   OH253342   5.415   3.848   3.443 -0.4139  0.2183  0.0825
 9716TIP3    H153343   5.468   3.830   3.521  0.4067  2.7619  0.1999
 9716TIP3    H253344   5.400   3.762   3.404  0.5182 -0.9571  2.1669
 9717TIP3   OH253345   1.375   1.516   1.020  0.1578 -0.1941  0.3029
 9717TIP3    H153346   1.447   1.577   1.036  0.2519 -0.2412  0.0594
 9717TIP3    H253347   1.344   1.492   1.108  0.8099 -0.6156  0.4260
 9718TIP3   OH253348   0.684   3.957   2.023 -0.3574  0.2156 -0.5357
 9718TIP3    H153349   0.667   3.901   1.948 -0.8599 -0.1939 -0.1177
 9718TIP3    H253350   0.732   4.032   1.987 -0.7491  0.1078 -1.2877
 9719TIP3   OH253351   5.780   3.409   3.329  0.2116 -0.7194 -0.5464
 9719TIP3    H153352   5.773   3.502   3.305  0.2513 -0.7796 -0.7904
 9719TIP3    H253353   5.784   3.410   3.425  0.5260 -0.4481 -0.5595
 9720TIP3   OH253354   0.921   0.120   2.450 -0.5045 -0.3249  0.1590
 9720TIP3    H153355   0.862   0.174   2.398 -0.6684  0.6033  1.2790
 9720TIP3    H253356   0.982   0.082   2.386  0.1287  1.8236 -0.5767
 9721TIP3   OH253357   5.840   4.452   0.744 -0.2436 -0.5753 -0.3353
 9721TIP3    H153358   5.817   4.539   0.775 -0.3144  0.7735 -3.6959
 9721TIP3    H253359   5.936   4.452   0.740 -0.2674 -0.1098 -1.4918
 9722TIP3   OH253360   2.774   3.190   1.538 -0.3578 -0.0012  0.6278
 9722TIP3    H153361   2.702   3.128   1.552  1.5090 -2.7687 -0.9588
 9722TIP3    H253362   2.851   3.144   1.573  1.4572  0.4478 -2.4514
 9723TIP3   OH253363   4.627   3.064   1.940  0.8273  0.4705 -0.3013
 9723TIP3    H153364   4.720   3.083   1.945  0.9825  0.1183 -1.4872
 9723TIP3    H253365   4.617   2.979   1.982  0.9319  0.8003  0.4007
 9724TIP3   OH253366   4.331   3.813   2.332 -0.3571  0.0898  0.0485
 9724TIP3    H153367   4.261   3.814   2.266  0.1411  1.2362 -0.4976
 9724TIP3    H253368   4.333   3.902   2.366 -0.4364 -0.4248  1.4666
 9725TIP3   OH253369   3.252   0.171   1.820  0.1985 -0.1352 -0.1232
 9725TIP3    H153370   3.229   0.176   1.727 -0.2500  0.8321  0.0199
 9725TIP3    H253371   3.173   0.135   1.862  0.8807 -1.8906 -0.2602
 9726TIP3   OH253372   1.011   3.450   2.897  0.0084  0.3495 -0.7173
 9726TIP3    H153373   1.096   3.415   2.922  0.5605  0.8910 -1.7539
 9726TIP3    H253374   0.949   3.381   2.919  0.7759 -0.2440 -0.3854
 9727TIP3   OH253375   6.026   3.030   4.406  0.6889  0.5145 -0.4390
 9727TIP3    H153376   6.017   3.058   4.497  1.5833  2.3441 -0.8643
 9727TIP3    H253377   5.950   3.069   4.362 -0.5846 -1.6069 -0.2700
 9728TIP3   OH253378   0.359   3.184   1.441 -0.5861  0.3470  0.1295
 9728TIP3    H153379   0.389   3.177   1.350 -1.3287 -2.2818  0.0222
 9728TIP3    H253380   0.264   3.194   1.434 -0.8791 -1.7888  0.6031
 9729TIP3   OH253381   1.505   6.158   2.576  0.1566  0.3942  0.1152
 9729TIP3    H153382   1.497   6.074   2.531  1.6511  0.5903 -0.5728
 9729TIP3    H253383   1.592   6.156   2.616  0.3906  1.7650 -0.2557
 9730TIP3   OH253384   5.479   0.387   1.183 -0.8684 -0.1958  0.2260
 9730TIP3    H153385   5.486   0.318   1.248 -0.9640 -0.9426 -0.5287
 9730TIP3    H253386   5.570   0.408   1.159 -0.8562 -0.7033 -0.1898
 9731TIP3   OH253387   1.469   2.423   2.106  0.6821 -0.5544 -0.2953
 9731TIP3    H153388   1.539   2.363   2.131  1.1400 -0.8835 -2.2188
 9731TIP3    H253389   1.513   2.506   2.090  0.1101  0.2343  1.9079
 9732TIP3   OH253390   1.164   0.959   1.893 -0.3117 -0.2888 -0.0181
 9732TIP3    H153391   1.109   0.895   1.848 -0.4556 -0.0105 -0.2398
 9732TIP3    H253392   1.120   0.973   1.977 -2.7722  2.7724 -1.6056
 9733TIP3   OH253393   1.448   0.266   0.574 -0.2594  0.2261  0.0907
 9733TIP3    H153394   1.407   0.351   0.563 -0.7977  0.0603  0.6953
 9733TIP3    H253395   1.394   0.222   0.640  0.2471 -0.4248  0.0873
 9734TIP3   OH253396   1.788   1.436   1.088 -0.3869  0.1066 -1.0479
 9734TIP3    H153397   1.790   1.445   1.184  0.2204  1.8969 -1.1905
 9734TIP3    H253398   1.741   1.354   1.073  1.8536 -1.6789  0.8552
 9735TIP3   OH253399   5.221   1.140   3.188 -0.4639  0.0907 -0.3598
 9735TIP3    H153400   5.220   1.103   3.277  0.3746 -1.9382 -1.1231
 9735TIP3    H253401   5.133   1.126   3.155 -0.3690 -0.5507 -0.3589
 9736TIP3   OH253402   5.243   0.430   3.038  0.0816  0.1347 -0.1722
 9736TIP3    H153403   5.307   0.453   3.105  0.3241  0.8193 -0.6248
 9736TIP3    H253404   5.160   0.461   3.073  0.2736  0.8926 -0.3778
 9737TIP3   OH253405   0.530   2.998   4.071 -0.4337 -0.4078  0.3691
 9737TIP3    H153406   0.522   2.934   4.142 -1.3494 -0.1447  0.5141
 9737TIP3    H253407   0.444   3.000   4.030  0.3098 -1.1605 -1.3060
 9738TIP3   OH253408   3.374   2.956   2.377 -0.3281  0.2381 -0.2622
 9738TIP3    H153409   3.302   2.909   2.420 -0.6397  1.0809  0.1673
 9738TIP3    H253410   3.387   2.910   2.294  0.7309 -1.8414  0.9959
 9739TIP3   OH253411   2.800   5.907   2.844  0.8082 -0.1439 -0.5836
 9739TIP3    H153412   2.853   5.849   2.790 -0.3869 -1.5004 -0.3786
 9739TIP3    H253413   2.784   5.857   2.924 -1.7100 -0.3302 -1.1015
 9740TIP3   OH253414   4.159   5.313   1.196  0.1225 -0.1409  0.0606
 9740TIP3    H153415   4.147   5.255   1.120 -1.9467 -1.4439  1.2794
 9740TIP3    H253416   4.161   5.254   1.271 -1.8224  1.3233  1.3448
 9741TIP3   OH253417   0.460   3.654   2.653 -0.0210  0.4522  0.1295
 9741TIP3    H153418   0.437   3.561   2.655  0.9128  0.2045 -0.0864
 9741TIP3    H253419   0.385   3.697   2.611 -0.6258 -0.1451  0.5815
 9742TIP3   OH253420   6.329   4.899   4.352  0.3702 -0.8872  0.0844
 9742TIP3    H153421   6.367   4.969   4.404  1.6677 -0.8912 -0.7996
 9742TIP3    H253422   6.236   4.898   4.376  0.6352  0.1119  1.2230
 9743TIP3   OH253423   3.098   2.366   2.322 -0.3692  0.3647  0.5665
 9743TIP3    H153424   3.163   2.306   2.357  1.2808  2.1176  0.6362
 9743TIP3    H253425   3.060   2.320   2.247  1.3244 -0.4930  0.2082
 9744TIP3   OH253426   2.504   0.667   1.576  0.3659  0.0488 -0.2644
 9744TIP3    H153427   2.427   0.649   1.629  1.3749  0.0027  1.2493
 9744TIP3    H253428   2.471   0.677   1.487 -1.6933  2.3311  0.6533
 9745TIP3   OH253429   0.456   0.366   3.051  0.2708 -0.0265 -0.2788
 9745TIP3    H153430   0.428   0.396   2.964  1.7672  2.3491 -0.0414
 9745TIP3    H253431   0.551   0.381   3.052  0.3578 -0.5116  1.5777
 9746TIP3   OH253432   3.659   4.731   3.576 -0.8828 -0.1158 -0.0765
 9746TIP3    H153433   3.623   4.782   3.648 -1.7145 -0.6922 -0.0652
 9746TIP3    H253434   3.741   4.696   3.610  0.5538  2.4593 -0.6084
 9747TIP3   OH253435   1.843   2.054   4.202  0.2559  0.2353 -0.8108
 9747TIP3    H153436   1.899   2.037   4.126  1.7452  1.7266 -0.1021
 9747TIP3    H253437   1.858   2.146   4.222 -1.7182  0.4005  0.0366
 9748TIP3   OH253438   2.226   5.401   3.933 -0.4871  0.5099 -0.1739
 9748TIP3    H153439   2.131   5.409   3.920 -0.6242 -0.5580  0.1301
 9748TIP3    H253440   2.238   5.316   3.975  0.5940  0.7315 -0.0011
 9749TIP3   OH253441   3.484   4.532   3.428 -0.1638  0.3082 -0.1572
 9749TIP3    H153442   3.507   4.579   3.508 -1.6268  0.1272  0.4108
 9749TIP3    H253443   3.567   4.498   3.395  0.4375  0.1683  1.4251
 9750TIP3   OH253444   3.931   5.733   1.239  0.2150 -0.2248 -0.1222
 9750TIP3    H153445   3.952   5.825   1.228  1.7790 -0.5960 -0.4305
 9750TIP3    H253446   3.967   5.710   1.325 -1.0325 -0.3226  0.3897
 9751TIP3   OH253447   3.195   5.385   2.222  0.4168  0.1248 -0.2865
 9751TIP3    H153448   3.151   5.470   2.229 -0.9621 -0.4760 -1.3246
 9751TIP3    H253449   3.129   5.322   2.251  0.4078 -0.8361 -2.2472
 9752TIP3   OH253450   1.262   2.678   0.632  0.3747  0.3433 -0.0478
 9752TIP3    H153451   1.266   2.583   0.643  0.0613 -0.2152 -3.5178
 9752TIP3    H253452   1.176   2.694   0.593  0.3133  2.1014  0.7087
 9753TIP3   OH253453   2.568   2.508   1.300  0.2318  0.0618  0.0814
 9753TIP3    H153454   2.537   2.500   1.209 -1.9443 -0.0371  0.7726
 9753TIP3    H253455   2.657   2.541   1.292  0.2795 -0.4338 -2.1124
 9754TIP3   OH253456   4.876   3.126   1.778  0.0526 -0.8599 -0.6940
 9754TIP3    H153457   4.893   3.070   1.854 -0.7512  0.0693  0.1990
 9754TIP3    H253458   4.880   3.066   1.704  0.0150 -1.9614  0.1541
 9755TIP3   OH253459   5.749   3.673   3.261 -0.0458 -0.1136  0.8547
 9755TIP3    H153460   5.716   3.749   3.213 -2.5449 -2.1121 -0.9046
 9755TIP3    H253461   5.723   3.688   3.352 -0.4514  1.1347  0.5460
 9756TIP3   OH253462   4.302   3.407   3.621 -0.3465 -0.4470  0.5941
 9756TIP3    H153463   4.237   3.338   3.609 -1.4425  0.8327 -1.3789
 9756TIP3    H253464   4.266   3.461   3.691  0.0794 -1.3523  1.5341
 9757TIP3   OH253465   5.852   4.294   2.066 -0.6461  0.2263 -0.4488
 9757TIP3    H153466   5.772   4.242   2.077  0.4995 -1.3877  0.5541
 9757TIP3    H253467   5.915   4.256   2.127  0.6197  2.0738 -0.5302
 9758TIP3   OH253468   4.206   1.873   1.923 -0.6300  0.4830 -0.1616
 9758TIP3    H153469   4.288   1.823   1.915 -0.4042  0.8145  0.0486
 9758TIP3    H253470   4.190   1.907   1.835  1.4423  3.5011  0.4577
 9759TIP3   OH253471   0.097   3.217   1.394  0.2730 -0.3676  0.0169
 9759TIP3    H153472   0.079   3.260   1.310 -0.5378 -0.5227  0.1040
 9759TIP3    H253473   0.068   3.281   1.460  0.0341 -0.6247  0.1620
 9760TIP3   OH253474   1.081   5.227   3.069 -0.3819 -0.3411 -0.1171
 9760TIP3    H153475   1.105   5.225   3.162 -0.5840 -0.4159 -0.0651
 9760TIP3    H253476   0.985   5.224   3.070 -0.4284  0.7597 -0.2928
 9761TIP3   OH253477   2.720   4.553   2.263 -0.3985  0.5587 -0.2568
 9761TIP3    H153478   2.716   4.648   2.253 -0.6313  0.4192 -1.7209
 9761TIP3    H253479   2.630   4.528   2.284  0.3006  0.9943  4.5673
 9762TIP3   OH253480   3.286   4.114   0.872 -0.2423  0.0028  0.2128
 9762TIP3    H153481   3.286   4.197   0.824 -0.4255 -0.1907 -0.1297
 9762TIP3    H253482   3.288   4.139   0.964 -0.3364  0.3876  0.1128
 9763TIP3   OH253483   1.281   3.862   2.003 -0.2474  0.1945  0.2928
 9763TIP3    H153484   1.336   3.787   1.980 -1.0630 -0.4565  0.4106
 9763TIP3    H253485   1.275   3.860   2.098 -1.2532 -0.3336  0.2379
 9764TIP3   OH253486   5.248   2.564   1.555 -0.4949  0.1577  0.0152
 9764TIP3    H153487   5.208   2.480   1.532  0.9579 -0.2928 -1.0898
 9764TIP3    H253488   5.281   2.552   1.644 -0.8931 -0.1984  0.1176
 9765TIP3   OH253489   5.817   0.092   0.857 -0.0560  0.0818 -0.8584
 9765TIP3    H153490   5.740   0.053   0.816  0.3648  0.3006 -1.8806
 9765TIP3    H253491   5.825   0.178   0.817  0.0875  0.5100  0.0535
 9766TIP3   OH253492   4.256   5.501   0.901  0.2629 -0.5458  0.2138
 9766TIP3    H153493   4.172   5.490   0.948  0.5943 -3.5677  0.2903
 9766TIP3    H253494   4.252   5.438   0.830  1.1567  1.6669 -1.9225
 9767TIP3   OH253495   3.219   1.750   3.852  0.3308 -0.5482  0.2078
 9767TIP3    H153496   3.308   1.728   3.825  1.4707  0.5214  2.7956
 9767TIP3    H253497   3.177   1.665   3.867  1.2360 -1.0567 -0.0618
 9768TIP3   OH253498   6.058   6.518   2.464  0.3416  0.1731  0.1553
 9768TIP3    H153499   6.035   6.458   2.535 -1.4623 -0.7827 -1.1797
 9768TIP3    H253500   6.026   6.603   2.493 -0.3717 -0.2079  0.5144
 9769TIP3   OH253501   3.018   0.406   3.037 -0.1644  0.5582  0.6185
 9769TIP3    H153502   3.028   0.447   2.951 -0.4039 -0.6692 -0.0164
 9769TIP3    H253503   3.068   0.462   3.096  0.5905  1.0334 -0.4426
 9770TIP3   OH253504   3.162   1.809   2.140  0.3689 -0.1033 -0.6390
 9770TIP3    H153505   3.221   1.796   2.214  0.2105 -0.5990 -0.5976
 9770TIP3    H253506   3.198   1.884   2.093 -0.1406  0.9210  0.5581
 9771TIP3   OH253507   4.460   3.135   0.432  0.1794  0.1901 -0.4378
 9771TIP3    H153508   4.479   3.056   0.482  0.6036 -0.0905 -1.0329
 9771TIP3    H253509   4.537   3.148   0.377 -0.5134  0.1518 -1.4484
 9772TIP3   OH253510   3.837   2.562   3.385  0.5966 -0.0078 -0.4737
 9772TIP3    H153511   3.837   2.535   3.477  0.8746  0.5787 -0.3013
 9772TIP3    H253512   3.788   2.492   3.340  0.6762 -0.4242  0.0762
 9773TIP3   OH253513   6.258   2.096   3.983 -0.1357 -0.3808  0.2776
 9773TIP3    H153514   6.275   2.019   3.929  0.0847 -0.9718  1.1730
 9773TIP3    H253515   6.235   2.061   4.069 -0.9758  0.5305  0.4473
 9774TIP3   OH253516   6.474   6.475   4.867  0.4034 -0.1228 -0.2185
 9774TIP3    H153517   6.500   6.501   4.779 -1.1556 -1.2342 -1.0483
 9774TIP3    H253518   6.383   6.448   4.859  0.1279  0.0081  1.8053
 9775TIP3   OH253519   3.933   6.431   1.072 -0.3086 -0.3637  0.6756
 9775TIP3    H153520   3.867   6.476   1.020  1.4062  0.5872 -0.7851
 9775TIP3    H253521   3.912   6.338   1.062 -1.8344 -0.0775  0.8879
 9776TIP3   OH253522   1.628   2.890   1.740 -0.1134 -0.0059 -0.6032
 9776TIP3    H153523   1.596   2.925   1.656 -0.7853  0.8171 -0.0228
 9776TIP3    H253524   1.636   2.967   1.796 -0.7957 -0.6751  0.4468
 9777TIP3   OH253525   5.781   0.724   1.144  0.4892 -0.2407 -0.0412
 9777TIP3    H153526   5.798   0.778   1.222  1.7674  1.3256 -1.3377
 9777TIP3    H253527   5.734   0.782   1.084 -0.6362 -1.4795 -0.4246
 9778TIP3   OH253528   1.306   5.032   2.592  0.5810 -0.8525 -0.0492
 9778TIP3    H153529   1.255   4.958   2.558  0.7845 -0.7663 -0.5501
 9778TIP3    H253530   1.242   5.087   2.637  0.4765 -1.4847  0.5978
 9779TIP3   OH253531   5.777   4.722   3.815  0.0981 -0.1754 -0.4530
 9779TIP3    H153532   5.692   4.761   3.836  0.2911  0.0308 -0.0601
 9779TIP3    H253533   5.759   4.628   3.808  0.1393 -0.3278  1.2253
 9780TIP3   OH253534   2.912   3.099   2.273  0.3287 -0.5756 -0.2032
 9780TIP3    H153535   2.938   3.178   2.320 -1.7540  0.9872 -1.5309
 9780TIP3    H253536   2.966   3.100   2.194  0.2683 -0.4347 -0.2435
 9781TIP3   OH253537   5.270   3.077   2.775 -0.8909 -0.1161  0.6672
 9781TIP3    H153538   5.182   3.090   2.740 -1.0469  0.9784  1.4364
 9781TIP3    H253539   5.280   3.144   2.842  1.3114  1.1652 -0.8317
 9782TIP3   OH253540   5.411   1.600   3.725  0.1869 -0.0496  0.4411
 9782TIP3    H153541   5.369   1.622   3.642  1.6498 -1.0489 -0.6123
 9782TIP3    H253542   5.345   1.548   3.771 -0.0939 -0.8495 -0.7966
 9783TIP3   OH253543   3.027   4.098   2.191  0.9729 -0.0432 -0.5222
 9783TIP3    H153544   3.019   4.193   2.177 -1.2632  0.3173  2.2943
 9783TIP3    H253545   3.105   4.089   2.246  1.4741  0.0698 -1.1950
 9784TIP3   OH253546   2.213   5.411   1.669  0.0186 -0.2651 -0.5855
 9784TIP3    H153547   2.265   5.364   1.735 -0.4493  2.2530  1.7701
 9784TIP3    H253548   2.142   5.351   1.648  1.4273 -2.0391 -0.5412
 9785TIP3   OH253549   5.509   3.450   2.306  0.0260 -0.0221  0.0007
 9785TIP3    H153550   5.572   3.488   2.245 -0.4774 -0.1137 -0.5752
 9785TIP3    H253551   5.423   3.474   2.271 -0.2875 -0.9798  0.0819
 9786TIP3   OH253552   4.009   0.548   2.653  0.2951 -0.1503 -0.2918
 9786TIP3    H153553   4.041   0.605   2.723  1.0491  0.1786 -0.8982
 9786TIP3    H253554   3.960   0.606   2.595 -1.5753 -0.6620  0.6768
 9787TIP3   OH253555   5.424   6.427   3.408  0.3175 -0.2169  0.2426
 9787TIP3    H153556   5.502   6.462   3.451  0.4982  0.1470 -0.3546
 9787TIP3    H253557   5.359   6.420   3.477  0.5808  0.4093  0.5657
 9788TIP3   OH253558   5.269   1.745   1.191  0.0260 -0.3418  0.2566
 9788TIP3    H153559   5.293   1.657   1.160 -0.2769 -0.2055 -0.3836
 9788TIP3    H253560   5.208   1.777   1.125 -0.1185  0.2250  0.6641
 9789TIP3   OH253561   0.608   4.718   3.030 -0.1886  0.0165 -0.3186
 9789TIP3    H153562   0.638   4.785   3.092  1.5151  0.6780 -1.7793
 9789TIP3    H253563   0.601   4.764   2.946 -0.4775 -1.3012 -1.0425
 9790TIP3   OH253564   5.914   3.704   1.606 -0.4965 -0.3644  0.1602
 9790TIP3    H153565   5.879   3.729   1.520 -0.1207  1.5233  0.5203
 9790TIP3    H253566   5.905   3.608   1.608 -0.5700 -0.4584 -1.9465
 9791TIP3   OH253567   1.216   1.106   2.273 -0.3700 -0.0543  0.2747
 9791TIP3    H153568   1.306   1.111   2.305  0.1492  0.4262 -1.1635
 9791TIP3    H253569   1.213   1.170   2.202 -1.8996  0.0313  0.3966
 9792TIP3   OH253570   2.856   3.765   2.758  0.5742  0.5138  0.3450
 9792TIP3    H153571   2.807   3.687   2.732  0.3072  0.7906  0.0103
 9792TIP3    H253572   2.840   3.774   2.852 -0.4020  0.8659  0.1538
 9793TIP3   OH253573   2.283   1.662   3.178  0.6397  0.2453  0.1386
 9793TIP3    H153574   2.307   1.746   3.139  0.4582 -0.2844 -1.1431
 9793TIP3    H253575   2.356   1.642   3.237 -0.2521  2.2512  2.0724
 9794TIP3   OH253576   1.113   1.157   3.886  0.3386  0.4761  0.2852
 9794TIP3    H153577   1.064   1.239   3.894  0.5811  0.7397 -0.8246
 9794TIP3    H253578   1.092   1.109   3.966 -0.2183  1.3969  0.7081
 9795TIP3   OH253579   6.391   3.647   1.384 -0.4307 -0.4878  0.3727
 9795TIP3    H153580   6.312   3.597   1.366 -0.6468 -0.8952  2.2462
 9795TIP3    H253581   6.361   3.728   1.424  0.0347 -1.9414  4.1336
 9796TIP3   OH253582   5.912   5.127   0.540  0.1802  0.3149  0.1475
 9796TIP3    H153583   5.913   5.045   0.588 -1.1019  0.8152  1.0711
 9796TIP3    H253584   5.828   5.167   0.562  1.3822  2.5664  0.9139
 9797TIP3   OH253585   1.867   3.612   2.664  0.2520 -0.4508  0.3186
 9797TIP3    H153586   1.838   3.539   2.609 -1.5920  0.5010 -0.0278
 9797TIP3    H253587   1.904   3.570   2.741  1.9271 -1.8078 -1.1186
 9798TIP3   OH253588   6.202   0.985   2.540  0.1317 -0.6439 -0.5713
 9798TIP3    H153589   6.275   0.953   2.487  0.3222 -0.2973 -0.5214
 9798TIP3    H253590   6.233   1.068   2.576 -1.1197  0.7566 -2.4840
 9799TIP3   OH253591   5.568   2.747   3.111  0.9271 -0.6270 -0.4095
 9799TIP3    H153592   5.562   2.796   3.028  0.4156 -1.1350 -0.6814
 9799TIP3    H253593   5.479   2.715   3.126  1.2162 -1.3283 -0.1472
 9800TIP3   OH253594   2.626   2.674   2.104 -0.1517  0.1045  0.5740
 9800TIP3    H153595   2.613   2.597   2.049  1.9632 -0.0690  0.2374
 9800TIP3    H253596   2.616   2.642   2.193  0.7751 -0.6002  0.4417
 9801TIP3   OH253597   3.781   1.228   0.555 -0.4163 -0.0655  0.2535
 9801TIP3    H153598   3.774   1.275   0.638 -1.4876  0.0973  0.0865
 9801TIP3    H253599   3.751   1.139   0.574 -0.2858 -0.1353  0.1331
 9802TIP3   OH253600   0.486   1.342   3.151  0.3869  0.4572  0.3977
 9802TIP3    H153601   0.394   1.349   3.124  0.1293  0.9576  1.3516
 9802TIP3    H253602   0.509   1.432   3.176  1.7773  0.7849 -1.7882
 9803TIP3   OH253603   1.951   0.860   0.610  0.0826 -0.1075  0.5199
 9803TIP3    H153604   1.986   0.834   0.525  2.4095  0.0078  1.3650
 9803TIP3    H253605   1.945   0.779   0.660 -0.7516 -0.1015  0.4436
 9804TIP3   OH253606   1.799   1.530   2.699  1.1505  0.3575 -0.1161
 9804TIP3    H153607   1.895   1.525   2.703  1.0732 -1.4077  0.2113
 9804TIP3    H253608   1.771   1.512   2.789  0.5175  3.4798  0.4545
 9805TIP3   OH253609   0.765   1.069   1.886  0.7144 -0.2121 -0.0558
 9805TIP3    H153610   0.749   0.996   1.945  2.4841 -0.2848  0.3829
 9805TIP3    H253611   0.858   1.088   1.895  0.3665  1.9248 -0.3795
 9806TIP3   OH253612   2.395   2.547   1.868  0.1381 -0.2190  0.0402
 9806TIP3    H153613   2.333   2.562   1.798 -1.5457 -2.3239  0.9916
 9806TIP3    H253614   2.350   2.577   1.947  1.0790 -0.0212  0.5171
 9807TIP3   OH253615   4.779   0.459   2.045 -0.1739  0.1439  0.5693
 9807TIP3    H153616   4.860   0.417   2.072 -1.0206 -1.1937  1.1537
 9807TIP3    H253617   4.732   0.391   1.995 -0.5091  1.2026 -0.6149
 9808TIP3   OH253618   4.134   4.774   1.967  0.2189 -0.0776  0.6573
 9808TIP3    H153619   4.074   4.738   1.902  0.5666  1.3883 -0.5255
 9808TIP3    H253620   4.077   4.820   2.029  0.0165  0.3099  0.1945
 9809TIP3   OH253621   0.641   0.027   0.714 -0.1050  0.5755  0.2479
 9809TIP3    H153622   0.648   0.120   0.691  1.1203  0.4342 -0.0226
 9809TIP3    H253623   0.547   0.011   0.724 -0.4250  1.4978 -1.1150
 9810TIP3   OH253624   6.248   4.297   3.914 -0.1008 -0.3260  0.2506
 9810TIP3    H153625   6.219   4.236   3.982 -0.7535 -0.2831  0.0136
 9810TIP3    H253626   6.198   4.377   3.931 -0.0463 -0.2184 -0.1037
 9811TIP3   OH253627   5.565   3.686   1.746 -0.0676  0.1049  0.3019
 9811TIP3    H153628   5.548   3.656   1.657 -3.1576 -0.0014  0.8094
 9811TIP3    H253629   5.553   3.781   1.742 -0.2466  0.0948  0.6275
 9812TIP3   OH253630   4.897   5.626   1.317  0.3956  0.0281 -0.4224
 9812TIP3    H153631   4.847   5.568   1.375  0.4832 -1.0712 -1.4258
 9812TIP3    H253632   4.871   5.715   1.344 -0.0352 -0.4649  0.8701
 9813TIP3   OH253633   3.636   2.853   1.857 -0.0234 -0.1335 -0.5114
 9813TIP3    H153634   3.727   2.863   1.831  0.9046 -0.6875  2.2063
 9813TIP3    H253635   3.614   2.763   1.834  0.4062 -0.2702 -0.3847
 9814TIP3   OH253636   5.435   6.531   3.703 -0.0869 -0.5826 -0.0818
 9814TIP3    H153637   5.420   6.618   3.667 -0.4584  0.4691  2.3745
 9814TIP3    H253638   5.347   6.498   3.722  0.0135  0.8951  3.9703
 9815TIP3   OH253639   3.333   6.334   0.880 -0.0289  0.2847 -0.3105
 9815TIP3    H153640   3.297   6.365   0.796 -1.6581  0.9324  0.5877
 9815TIP3    H253641   3.265   6.353   0.944  0.2670 -2.1674  0.8570
 9816TIP3   OH253642   4.807   0.364   0.758 -0.1124 -0.2507  0.5244
 9816TIP3    H153643   4.857   0.326   0.830  1.4595 -0.1257 -0.4436
 9816TIP3    H253644   4.756   0.434   0.798  0.1876 -0.6441  1.6220
 9817TIP3   OH253645   3.607   4.768   3.307  0.2840 -0.2089 -0.3302
 9817TIP3    H153646   3.628   4.707   3.378  0.8619 -0.5754 -0.7930
 9817TIP3    H253647   3.588   4.851   3.350  1.6392 -0.1526  0.2135
 9818TIP3   OH253648   4.626   0.206   3.130 -0.1308 -0.2547 -0.0898
 9818TIP3    H153649   4.698   0.145   3.144  0.6195  0.8255  0.9803
 9818TIP3    H253650   4.588   0.220   3.217  0.4059  1.5727 -0.0942
 9819TIP3   OH253651   5.143   2.169   1.429  0.1171 -0.0249  0.3792
 9819TIP3    H153652   5.115   2.243   1.482 -0.1579  0.4463 -0.4071
 9819TIP3    H253653   5.078   2.100   1.448 -0.3838  0.3722  0.1393
 9820TIP3   OH253654   0.874   3.652   1.108 -0.2042  0.4910  0.0563
 9820TIP3    H153655   0.808   3.594   1.068  2.1966 -1.1152 -1.8483
 9820TIP3    H253656   0.881   3.620   1.198 -1.1269 -0.1048 -0.0589
 9821TIP3   OH253657   1.259   5.710   2.047  0.2012  0.1457  0.1420
 9821TIP3    H153658   1.227   5.793   2.012 -0.1120 -0.0284  0.0084
 9821TIP3    H253659   1.353   5.722   2.056 -0.0143  0.9893  1.4063
 9822TIP3   OH253660   3.200   2.210   1.292  0.0682  0.0282 -0.2427
 9822TIP3    H153661   3.184   2.286   1.347 -0.4729 -0.2246 -0.0413
 9822TIP3    H253662   3.113   2.181   1.264  0.0952 -1.5770  1.1481
 9823TIP3   OH253663   5.117   6.201   1.600  0.4010 -0.0517 -0.8577
 9823TIP3    H153664   5.125   6.293   1.573  0.2697 -0.1984 -1.4055
 9823TIP3    H253665   5.184   6.190   1.667  1.4084  0.0705 -1.8118
 9824TIP3   OH253666   4.997   4.359   2.878  0.1928 -0.6763 -0.3556
 9824TIP3    H153667   4.921   4.372   2.821  0.8776  2.3277 -0.7607
 9824TIP3    H253668   4.960   4.348   2.965 -0.7760  0.9745 -0.5043
 9825TIP3   OH253669   1.573   5.331   2.484 -0.0462  0.0494 -1.1328
 9825TIP3    H153670   1.544   5.415   2.448 -0.1748  0.5261  0.0122
 9825TIP3    H253671   1.661   5.319   2.450  0.5077  1.3375 -0.2520
 9826TIP3   OH253672   0.567   2.424   3.399 -0.9828 -0.7958 -0.0517
 9826TIP3    H153673   0.480   2.461   3.387 -0.1756  1.8395  1.4238
 9826TIP3    H253674   0.576   2.411   3.493 -0.2754 -2.4397 -0.3130
 9827TIP3   OH253675   6.424   1.780   1.589  0.5984  0.0663  0.1428
 9827TIP3    H153676   6.422   1.805   1.681  0.4355  0.1730  0.1110
 9827TIP3    H253677   6.433   1.684   1.590  0.6693  0.0740  0.2676
 9828TIP3   OH253678   1.114   4.272   1.998  0.1419  0.1038  0.4059
 9828TIP3    H153679   1.077   4.350   2.039 -0.7935  0.2326 -0.6407
 9828TIP3    H253680   1.080   4.199   2.050 -0.0526  0.3345  0.6044
 9829TIP3   OH253681   1.515   3.600   1.574 -0.1804  0.7597  0.4401
 9829TIP3    H153682   1.516   3.505   1.560 -0.9441  0.7823  0.1732
 9829TIP3    H253683   1.439   3.615   1.630 -0.4313  1.2711 -0.0240
 9830TIP3   OH253684   4.939   6.300   1.296 -0.0812  0.0758 -0.2083
 9830TIP3    H153685   5.017   6.334   1.340 -0.1330 -0.4834  0.3326
 9830TIP3    H253686   4.918   6.366   1.230 -0.7332  1.6128  1.4295
 9831TIP3   OH253687   6.135   4.999   3.200 -0.5287  0.1181 -0.5956
 9831TIP3    H153688   6.120   5.064   3.132  0.2976  0.4023 -0.5167
 9831TIP3    H253689   6.079   4.925   3.175 -0.7307  0.4755 -1.2231
 9832TIP3   OH253690   3.284   5.145   0.787  0.3486 -0.0851 -0.4153
 9832TIP3    H153691   3.204   5.197   0.801  0.0262 -0.9528  1.2235
 9832TIP3    H253692   3.252   5.056   0.771  0.9676 -0.2102 -1.0030
 9833TIP3   OH253693   6.476   6.326   2.446  0.2338  0.2719 -0.2434
 9833TIP3    H153694   6.438   6.409   2.479  0.6846 -0.1706  1.5220
 9833TIP3    H253695   6.405   6.286   2.397 -0.2717  1.3196 -0.4106
 9834TIP3   OH253696   5.025   6.439   2.146 -0.1933  0.2594  0.0839
 9834TIP3    H153697   5.037   6.381   2.071  0.3732 -1.6767  1.6108
 9834TIP3    H253698   5.108   6.435   2.193  0.0992  2.8339 -0.0458
 9835TIP3   OH253699   4.637   5.130   1.803  0.7276 -0.2814 -0.0217
 9835TIP3    H153700   4.656   5.049   1.851 -0.9985 -0.6330  0.1305
 9835TIP3    H253701   4.609   5.101   1.716 -1.2287  0.0372  0.4669
 9836TIP3   OH253702   3.881   0.761   2.497  0.5251  0.3206  0.0631
 9836TIP3    H153703   3.826   0.712   2.436  0.5871  0.2220  0.0850
 9836TIP3    H253704   3.823   0.825   2.537  0.4317  0.2302  0.0713
 9837TIP3   OH253705   5.133   5.826   2.495 -0.0727 -0.4543  0.5719
 9837TIP3    H153706   5.046   5.799   2.523  0.2767 -0.5029  1.6897
 9837TIP3    H253707   5.153   5.768   2.421 -0.6331 -1.0572  0.8751
 9838TIP3   OH253708   0.144   0.283   3.129 -0.1856 -0.2353  0.4627
 9838TIP3    H153709   0.139   0.376   3.152 -2.0170 -0.2562  0.3355
 9838TIP3    H253710   0.052   0.256   3.121  0.3118 -2.1337  0.7910
 9839TIP3   OH253711   2.934   6.336   3.377  0.1677 -0.2069  0.5107
 9839TIP3    H153712   2.846   6.352   3.411  0.6323 -2.2842  3.0313
 9839TIP3    H253713   2.981   6.419   3.392 -1.4317  1.1247 -1.4284
 9840TIP3   OH253714   3.287   3.828   0.900  0.2513 -0.1255  0.1453
 9840TIP3    H153715   3.242   3.804   0.820  0.1913 -1.5534  0.5780
 9840TIP3    H253716   3.323   3.915   0.883  1.0893 -0.8026 -1.7918
 9841TIP3   OH253717   1.683   0.277   2.606 -0.0828 -0.0011  0.3263
 9841TIP3    H153718   1.740   0.309   2.675  2.3133 -0.6828 -1.1974
 9841TIP3    H253719   1.658   0.189   2.635  0.3376 -0.0202  0.6421
 9842TIP3   OH253720   4.839   4.225   2.109 -0.6802  0.3556  0.1769
 9842TIP3    H153721   4.768   4.286   2.088 -0.2580  0.5120 -0.8338
 9842TIP3    H253722   4.794   4.147   2.140 -1.3899 -0.0416 -1.7064
 9843TIP3   OH253723   4.862   3.822   3.147 -0.6800 -0.0181  0.0541
 9843TIP3    H153724   4.941   3.870   3.122 -0.3977 -0.3177  0.3520
 9843TIP3    H253725   4.796   3.890   3.161 -0.7335  0.1766 -1.0630
 9844TIP3   OH253726   0.225   2.984   0.663  0.3681  0.4720 -0.3719
 9844TIP3    H153727   0.312   3.023   0.661  0.1750  0.9024 -0.4707
 9844TIP3    H253728   0.180   3.024   0.589  0.2932 -0.2345 -0.7188
 9845TIP3   OH253729   2.465   4.122   3.498  0.1106  0.6171  0.0387
 9845TIP3    H153730   2.553   4.137   3.534 -0.0222 -0.6917  0.9471
 9845TIP3    H253731   2.463   4.029   3.477 -0.5257  0.9412 -1.5124
 9846TIP3   OH253732   1.332   5.873   0.764 -0.1231  1.1387 -0.5810
 9846TIP3    H153733   1.384   5.821   0.703  0.9418  1.9494 -0.3958
 9846TIP3    H253734   1.380   5.956   0.772 -1.1316  1.6820  0.0642
 9847TIP3   OH253735   6.554   4.015   2.813  0.0269 -0.5758  0.0487
 9847TIP3    H153736   6.631   3.999   2.867  0.4382 -0.3781 -0.4702
 9847TIP3    H253737   6.480   3.985   2.866  0.4498 -0.6505  0.5977
 9848TIP3   OH253738   2.519   4.247   1.695  0.3251 -0.0010 -0.1215
 9848TIP3    H153739   2.512   4.300   1.615  0.4047 -0.8067 -0.6748
 9848TIP3    H253740   2.516   4.311   1.766 -0.3488  0.6907 -0.7433
 9849TIP3   OH253741   1.118   2.723   2.519  0.1740  0.0772  0.4147
 9849TIP3    H153742   1.054   2.793   2.509  0.3318  0.2288  0.4686
 9849TIP3    H253743   1.116   2.676   2.436 -0.5918 -0.4124  0.6865
 9850TIP3   OH253744   5.755   5.095   3.707  1.1150  0.0908 -0.1995
 9850TIP3    H153745   5.702   5.044   3.769 -0.4263  2.5452  0.6819
 9850TIP3    H253746   5.844   5.088   3.740  0.6014 -0.2254  1.1980
 9851TIP3   OH253747   6.083   1.103   3.100 -0.2788  0.8374 -0.1520
 9851TIP3    H153748   6.161   1.155   3.081  0.5840 -0.5756 -0.6556
 9851TIP3    H253749   6.062   1.059   3.018  2.5235 -4.0712  1.3422
 9852TIP3   OH253750   3.883   0.339   3.140  0.2505  0.3705 -0.0863
 9852TIP3    H153751   3.795   0.373   3.159  0.3529  0.3798  0.3987
 9852TIP3    H253752   3.877   0.303   3.052  0.2218  1.9137 -0.7439
 9853TIP3   OH253753   4.685   0.558   1.394 -0.1171  0.1939 -0.1519
 9853TIP3    H153754   4.755   0.598   1.445 -1.1545  0.5898  1.0352
 9853TIP3    H253755   4.664   0.477   1.441 -1.8901  1.1450  0.8128
 9854TIP3   OH253756   6.062   4.063   4.034 -0.0513 -0.2902 -0.0107
 9854TIP3    H153757   6.156   4.051   4.051  0.0987  1.4496  0.5654
 9854TIP3    H253758   6.021   4.058   4.120 -0.3497  0.0519 -0.1295
 9855TIP3   OH253759   4.115   4.526   1.371 -0.1222  0.3823  0.0797
 9855TIP3    H153760   4.092   4.435   1.390 -0.4330  0.4633  0.0802
 9855TIP3    H253761   4.062   4.549   1.295 -0.6846  0.8397  0.6049
 9856TIP3   OH253762   5.879   0.006   3.799 -0.2210  0.7287 -0.3739
 9856TIP3    H153763   5.904  -0.006   3.708  0.2342 -0.6884 -0.0905
 9856TIP3    H253764   5.814  -0.063   3.815  0.4111  0.3342  0.6041
 9857TIP3   OH253765   3.754   3.212   3.302 -0.6365 -0.2444 -0.3723
 9857TIP3    H153766   3.729   3.295   3.260  0.7147 -0.1158 -0.9880
 9857TIP3    H253767   3.829   3.235   3.358 -0.4646 -0.9819 -0.2874
 9858TIP3   OH253768   6.437   1.387   0.649 -0.2218  0.1018  0.4147
 9858TIP3    H153769   6.466   1.299   0.626 -1.0240  0.5629 -2.8996
 9858TIP3    H253770   6.514   1.428   0.689  1.3556 -1.0159 -1.3124
 9859TIP3   OH253771   1.890   3.121   1.241 -0.0537 -0.1474  0.1930
 9859TIP3    H153772   1.922   3.087   1.324 -0.6965  1.2454  1.0478
 9859TIP3    H253773   1.940   3.201   1.226 -2.4779  1.6661  1.1883
 9860TIP3   OH253774   1.239   0.430   2.223  0.4280 -0.9071 -0.0155
 9860TIP3    H153775   1.208   0.503   2.275 -1.0793 -1.5453  0.0513
 9860TIP3    H253776   1.257   0.468   2.137 -1.2636 -0.5965 -0.2637
 9861TIP3   OH253777   0.112   4.208   4.512 -0.4529 -0.1742  0.3758
 9861TIP3    H153778   0.058   4.265   4.457 -0.0794 -2.7239 -2.9982
 9861TIP3    H253779   0.051   4.166   4.571 -1.4888  0.0696 -0.4979
 9862TIP3   OH253780   3.708   5.568   1.389 -0.3660  0.2213  0.4837
 9862TIP3    H153781   3.707   5.473   1.378  1.2547  0.4060 -1.9115
 9862TIP3    H253782   3.671   5.603   1.308  1.2470  1.6386  0.2850
 9863TIP3   OH253783   2.343   0.792   2.235  0.2636  0.0757  0.2055
 9863TIP3    H153784   2.271   0.828   2.288  0.6674  1.6542 -0.2704
 9863TIP3    H253785   2.343   0.845   2.156  2.9233  1.1767  0.8385
 9864TIP3   OH253786   6.263   1.239   0.817 -0.5541 -0.6941 -0.4868
 9864TIP3    H153787   6.275   1.334   0.806 -0.6191 -0.3578  1.8151
 9864TIP3    H253788   6.274   1.203   0.729  2.1808  1.1582 -1.0373
 9865TIP3   OH253789   3.162   1.920   4.058  0.1195  0.2905 -0.3502
 9865TIP3    H153790   3.199   1.871   3.984 -1.3573  0.2012 -1.0749
 9865TIP3    H253791   3.084   1.962   4.022 -1.2455 -0.5859  1.3886
 9866TIP3   OH253792   6.034   1.714   1.946 -0.2746 -0.6232 -0.3824
 9866TIP3    H153793   6.020   1.773   1.873 -2.3719 -0.3697  0.1526
 9866TIP3    H253794   6.000   1.629   1.915 -0.3841 -0.7170 -0.0130
 9867TIP3   OH253795   5.714   6.372   1.258 -0.1178 -0.3138  0.1350
 9867TIP3    H153796   5.637   6.373   1.202 -0.2778  0.0040  0.3624
 9867TIP3    H253797   5.705   6.449   1.315  0.2215 -0.4310  0.3549
 9868TIP3   OH253798   3.122   0.936   1.087 -0.1688  0.0563 -0.4131
 9868TIP3    H153799   3.166   0.901   1.165 -0.9771  0.0761  0.0639
 9868TIP3    H253800   3.070   0.862   1.054  0.5197 -0.0908 -1.2117
 9869TIP3   OH253801   5.304   2.462   4.143 -0.5450  0.1042  0.3488
 9869TIP3    H153802   5.400   2.470   4.142 -0.3796 -1.6680 -0.1678
 9869TIP3    H253803   5.276   2.525   4.210  0.8643  1.5368 -0.3382
 9870TIP3   OH253804   1.633   4.823   1.605  0.6186  0.0054  0.6196
 9870TIP3    H153805   1.703   4.791   1.662  1.6645 -0.8626 -1.0471
 9870TIP3    H253806   1.592   4.894   1.654  2.6998  0.5786  1.6511
 9871TIP3   OH253807   6.178   1.356   3.829  0.1559 -0.7477  0.2159
 9871TIP3    H153808   6.194   1.278   3.775  0.7811 -0.9795  0.7209
 9871TIP3    H253809   6.089   1.345   3.862 -0.0556 -0.8406 -0.3737
 9872TIP3   OH253810   2.780   6.302   1.810 -0.0739  0.3507 -0.2877
 9872TIP3    H153811   2.856   6.327   1.757 -0.1982  0.9938 -0.1687
 9872TIP3    H253812   2.713   6.279   1.746  0.4596 -1.0078 -0.3985
 9873TIP3   OH253813   5.985   4.683   1.906  0.1717 -0.3303 -0.4760
 9873TIP3    H153814   5.924   4.612   1.890  0.2878 -0.5363 -0.0105
 9873TIP3    H253815   5.943   4.737   1.973 -0.5460  0.8159 -1.8074
 9874TIP3   OH253816   2.128   0.012   1.797  0.3975  0.0315 -0.5935
 9874TIP3    H153817   2.062   0.079   1.776  1.1882  0.5592 -1.4733
 9874TIP3    H253818   2.192   0.058   1.851 -0.2727 -0.6519  0.8256
 9875TIP3   OH253819   4.902   5.151   3.448 -0.3241  0.2236 -0.2482
 9875TIP3    H153820   4.981   5.150   3.394 -0.0292 -0.3619  0.1851
 9875TIP3    H253821   4.864   5.063   3.437  0.0897 -0.1367  0.9868
 9876TIP3   OH253822   0.687   0.741   1.422  0.3458 -0.4282 -0.1016
 9876TIP3    H153823   0.656   0.655   1.394 -0.3112  0.2667 -1.6324
 9876TIP3    H253824   0.609   0.787   1.452  0.5879 -0.1568  0.1211
 9877TIP3   OH253825   0.791   6.166   3.707  0.4507 -0.0145 -0.3177
 9877TIP3    H153826   0.886   6.171   3.715  0.3746  0.6986  0.2517
 9877TIP3    H253827   0.776   6.101   3.638  1.3805  0.6508 -1.1887
 9878TIP3   OH253828   5.473   0.622   1.790 -0.6161  0.2780  0.4592
 9878TIP3    H153829   5.420   0.689   1.747 -0.9851 -0.2882  0.0167
 9878TIP3    H253830   5.551   0.669   1.820 -0.6386  0.8079 -0.2781
 9879TIP3   OH253831   6.067   2.213   1.962  0.0749  0.6279  0.9605
 9879TIP3    H153832   6.023   2.139   1.922 -1.1130  2.4309 -1.3251
 9879TIP3    H253833   6.114   2.255   1.890  1.6391  1.5130  2.4041
 9880TIP3   OH253834   5.593   6.571   0.618  0.5020  0.3149 -0.2859
 9880TIP3    H153835   5.550   6.535   0.541  2.1268 -0.2317 -0.9781
 9880TIP3    H253836   5.616   6.494   0.671 -0.0327  0.6437  0.4372
 9881TIP3   OH253837   6.218   5.341   2.785  0.0663 -0.1750 -0.4196
 9881TIP3    H153838   6.267   5.421   2.765  0.6725 -0.2975  0.5475
 9881TIP3    H253839   6.281   5.270   2.772  0.5681 -0.2569  2.0103
 9882TIP3   OH253840   5.327   4.687   3.117 -0.1695  0.3454  0.3487
 9882TIP3    H153841   5.311   4.745   3.043  1.4615 -0.8761 -1.0620
 9882TIP3    H253842   5.245   4.639   3.129 -1.1777  2.0978  0.8403
 9883TIP3   OH253843   4.355   6.250   4.404 -0.1444  0.0820  0.4243
 9883TIP3    H153844   4.416   6.291   4.465  0.1117 -0.2580  0.3992
 9883TIP3    H253845   4.280   6.309   4.402  0.8232  1.3389 -0.7392
 9884TIP3   OH253846   2.774   0.552   4.092 -0.0053 -0.0392  0.5233
 9884TIP3    H153847   2.859   0.519   4.063  0.3677  1.4146 -0.1250
 9884TIP3    H253848   2.747   0.613   4.024 -1.3153 -0.0457  0.9998
 9885TIP3   OH253849   1.296   5.284   1.433 -0.1443  0.0410  0.2770
 9885TIP3    H153850   1.324   5.195   1.412  0.2196  0.2535 -0.1665
 9885TIP3    H253851   1.201   5.279   1.441 -0.2360 -0.1737 -0.8351
 9886TIP3   OH253852   4.514   4.191   1.616  0.4702  0.2023 -0.0292
 9886TIP3    H153853   4.438   4.186   1.558  0.7432  1.5108 -0.5141
 9886TIP3    H253854   4.582   4.231   1.563  0.4269  2.3816  1.4567
 9887TIP3   OH253855   4.197   6.105   1.476  0.6069  0.1710  0.2745
 9887TIP3    H153856   4.153   6.020   1.484  2.9746 -1.0750  0.9561
 9887TIP3    H253857   4.208   6.117   1.381  0.4565 -0.3849  0.1803
 9888TIP3   OH253858   4.475   2.577   2.133 -0.4546 -0.3293  0.1456
 9888TIP3    H153859   4.531   2.574   2.211  2.0150 -0.4436 -1.5044
 9888TIP3    H253860   4.430   2.492   2.133  0.2203 -0.7045  0.9834
 9889TIP3   OH253861   2.818   6.236   1.037  0.1046  0.2991 -0.3572
 9889TIP3    H153862   2.828   6.239   1.132  0.5974  0.3316 -0.4032
 9889TIP3    H253863   2.758   6.308   1.017  1.2587  1.3389 -0.2090
 9890TIP3   OH253864   2.901   4.410   1.232  0.2700 -0.0584 -1.0337
 9890TIP3    H153865   2.971   4.474   1.244 -0.7710  0.7309  1.7890
 9890TIP3    H253866   2.930   4.332   1.280 -0.0883 -0.3237 -1.2376
 9891TIP3   OH253867   5.851   0.077   0.520  0.4943  0.1443 -0.2501
 9891TIP3    H153868   5.802   0.061   0.600  0.6130  1.1691  0.0348
 9891TIP3    H253869   5.786   0.109   0.458  0.6644  0.7499 -0.1144
 9892TIP3   OH253870   4.732   3.818   2.325 -0.2062  0.3940 -0.6617
 9892TIP3    H153871   4.669   3.828   2.396  0.4843 -2.9675  0.6093
 9892TIP3    H253872   4.680   3.819   2.245 -1.9073 -1.7952  0.3214
 9893TIP3   OH253873   0.301   3.296   1.051 -0.1734 -0.1295  0.0794
 9893TIP3    H153874   0.355   3.304   0.972 -0.7601 -1.0006 -0.4303
 9893TIP3    H253875   0.289   3.386   1.081  1.0102  0.1259 -0.1642
 9894TIP3   OH253876   4.473   1.775   2.797 -0.4018 -0.2617  0.0133
 9894TIP3    H153877   4.517   1.859   2.782 -1.7528  0.4293 -0.2078
 9894TIP3    H253878   4.384   1.788   2.764 -1.2169 -1.1401  1.7290
 9895TIP3   OH253879   5.304   1.802   3.887 -0.5172 -0.0571 -0.3620
 9895TIP3    H153880   5.366   1.775   3.819 -1.6379  2.0848 -2.4162
 9895TIP3    H253881   5.219   1.802   3.842 -1.3054  1.4490  1.0138
 9896TIP3   OH253882   3.247   4.740   1.851 -0.0440 -0.0524  0.1982
 9896TIP3    H153883   3.330   4.743   1.899  1.6530  1.3769 -2.5537
 9896TIP3    H253884   3.206   4.825   1.868 -0.2052 -0.1667  0.3765
 9897TIP3   OH253885   2.157   3.803   1.536  0.0359  0.7963  0.0762
 9897TIP3    H153886   2.073   3.829   1.575 -0.5403 -0.3151 -0.3403
 9897TIP3    H253887   2.145   3.818   1.442  0.1434  0.2621 -0.0285
 9898TIP3   OH253888   0.701   6.380   2.776  0.1271 -0.5626 -0.0028
 9898TIP3    H153889   0.652   6.319   2.722 -1.2578 -0.3452  0.9627
 9898TIP3    H253890   0.723   6.452   2.718 -1.8972 -0.0293 -0.1600
 9899TIP3   OH253891   3.487   0.057   1.221  0.3845 -0.0441  0.2602
 9899TIP3    H153892   3.521  -0.011   1.280  0.6534 -1.5282 -1.5147
 9899TIP3    H253893   3.392   0.055   1.234  0.2136 -1.9125 -0.8419
 9900TIP3   OH253894   4.278   5.817   0.946  0.1391 -0.3423 -0.0749
 9900TIP3    H153895   4.308   5.727   0.952 -1.2586 -0.7506  2.2136
 9900TIP3    H253896   4.317   5.861   1.022  0.9801  1.0858 -1.2680
 9901TIP3   OH253897   2.371   2.229   0.821 -0.0318 -0.0429 -0.4223
 9901TIP3    H153898   2.383   2.323   0.831  2.8067 -0.1705 -1.5102
 9901TIP3    H253899   2.424   2.206   0.744 -0.0636 -2.6024  0.2165
 9902TIP3   OH253900   5.093   5.431   4.111 -0.5916  0.4058 -0.4755
 9902TIP3    H153901   5.148   5.375   4.057 -3.1168 -1.6884 -1.0901
 9902TIP3    H253902   5.039   5.479   4.048 -2.3349 -0.7513  0.0541
 9903TIP3   OH253903   3.254   3.404   1.878  0.5318  0.6230 -0.3476
 9903TIP3    H153904   3.329   3.425   1.934 -0.2765 -0.9420  1.4806
 9903TIP3    H253905   3.230   3.486   1.836  1.8856  1.6394  0.7917
 9904TIP3   OH253906   4.691   5.783   1.181  0.0593  0.5737  0.3857
 9904TIP3    H153907   4.666   5.748   1.266  2.9435 -0.3808  0.9298
 9904TIP3    H253908   4.668   5.714   1.119  1.4528 -0.4109  0.9088
 9905TIP3   OH253909   1.550   1.878   2.921 -0.3587  0.4238  0.3065
 9905TIP3    H153910   1.554   1.951   2.983 -0.9001  0.9290 -0.2534
 9905TIP3    H253911   1.482   1.820   2.956 -3.1411  2.3462 -1.5307
 9906TIP3   OH253912   4.288   2.457   4.483  0.0646 -0.1544  0.3168
 9906TIP3    H153913   4.238   2.514   4.425  1.9446 -0.5530 -1.8057
 9906TIP3    H253914   4.334   2.397   4.425  1.4972 -1.0571  2.2698
 9907TIP3   OH253915   2.611   6.580   2.231  0.0052  0.6319  0.1679
 9907TIP3    H153916   2.666   6.564   2.153 -1.1586 -0.8944 -0.4018
 9907TIP3    H253917   2.630   6.505   2.288 -1.0415  0.3690  0.1937
 9908TIP3   OH253918   0.572   5.506   0.555  0.1635 -0.4091  0.0509
 9908TIP3    H153919   0.668   5.501   0.556  0.1026 -1.7983  0.7563
 9908TIP3    H253920   0.550   5.558   0.633  0.4023  2.4692 -1.6612
 9909TIP3   OH253921   6.409   2.742   2.089  0.0593  0.8191 -0.1522
 9909TIP3    H153922   6.414   2.673   2.155  3.1523  2.0516  1.0744
 9909TIP3    H253923   6.448   2.704   2.010 -1.4660  0.1175 -0.6086
 9910TIP3   OH253924   1.566   0.760   1.334  0.4389  0.2963  0.6040
 9910TIP3    H153925   1.495   0.822   1.320  2.4793  2.4089 -1.1840
 9910TIP3    H253926   1.630   0.809   1.386  1.4962 -0.8319  0.3995
 9911TIP3   OH253927   4.813   2.409   1.861  0.1058 -0.3552  0.4858
 9911TIP3    H153928   4.859   2.325   1.861  1.3734  0.3171  0.9675
 9911TIP3    H253929   4.776   2.417   1.949 -1.5515 -1.1951 -0.0991
 9912TIP3   OH253930   5.388   1.520   3.399  0.7024  0.4340  0.1008
 9912TIP3    H153931   5.372   1.466   3.477 -2.0327 -0.1261 -0.7393
 9912TIP3    H253932   5.399   1.456   3.328 -0.4359  0.9517 -0.5583
 9913TIP3   OH253933   5.748   4.583   1.000  0.2055  0.0650  0.2797
 9913TIP3    H153934   5.766   4.653   0.937  3.9704 -1.0925 -0.1946
 9913TIP3    H253935   5.807   4.600   1.073 -0.4376 -1.3832  1.1948
 9914TIP3   OH253936   1.288   1.386   2.453 -0.3378 -0.3504 -0.3632
 9914TIP3    H153937   1.197   1.361   2.467 -0.4905 -0.0638 -0.8416
 9914TIP3    H253938   1.334   1.303   2.441 -0.2536 -0.6147  1.3983
 9915TIP3   OH253939   3.811   3.272   2.690 -0.2963  0.1164  0.3879
 9915TIP3    H153940   3.738   3.333   2.706  0.8534  0.9700  2.9302
 9915TIP3    H253941   3.797   3.201   2.752  0.8069  0.0935  0.6305
 9916TIP3   OH253942   1.359   3.289   2.347 -0.0954  0.0844 -0.2750
 9916TIP3    H153943   1.380   3.383   2.346  1.2336 -0.1691  0.6883
 9916TIP3    H253944   1.346   3.268   2.440  0.2244 -0.8035 -0.4208
 9917TIP3   OH253945   6.481   1.279   3.536 -0.2959 -0.9200  0.0226
 9917TIP3    H153946   6.486   1.242   3.624  0.8222  0.1220  0.4188
 9917TIP3    H253947   6.403   1.336   3.538  0.0108 -0.5150  0.4931
 9918TIP3   OH253948   4.208   5.689   2.898  0.3498  0.5394 -0.3486
 9918TIP3    H153949   4.210   5.593   2.898 -0.9356  0.4500  1.8979
 9918TIP3    H253950   4.171   5.712   2.812 -0.8693 -1.0497 -0.2818
 9919TIP3   OH253951   6.065   4.911   1.376 -0.0274  0.4387 -0.6129
 9919TIP3    H153952   5.994   4.930   1.437 -0.3114 -1.5838 -0.2139
 9919TIP3    H253953   6.140   4.891   1.433 -0.5113 -2.2896 -0.7670
 9920TIP3   OH253954   1.920   5.852   2.315 -0.4940  0.2173 -0.2187
 9920TIP3    H153955   1.833   5.816   2.329 -1.0594  1.5205 -0.1909
 9920TIP3    H253956   1.946   5.821   2.229 -0.3719 -1.3288  0.3411
 9921TIP3   OH253957   0.303   2.399   2.455 -0.0846  0.0654 -0.5283
 9921TIP3    H153958   0.280   2.319   2.504 -0.9871 -0.3539 -1.5954
 9921TIP3    H253959   0.380   2.432   2.500  0.0258 -1.1463  0.2455
 9922TIP3   OH253960   5.320   3.806   0.719  0.1155 -0.0379 -0.1102
 9922TIP3    H153961   5.320   3.783   0.812  2.0775 -0.3323 -0.1444
 9922TIP3    H253962   5.412   3.822   0.698 -0.1262 -1.1338 -2.2939
 9923TIP3   OH253963   0.249   0.600   2.833  0.0314 -0.6564  0.2137
 9923TIP3    H153964   0.181   0.533   2.832  0.3896 -1.0243 -0.4979
 9923TIP3    H253965   0.323   0.560   2.786 -0.0783  0.5738 -1.0739
 9924TIP3   OH253966   2.768   1.313   2.912 -0.3088 -0.2458  0.0883
 9924TIP3    H153967   2.703   1.377   2.883 -1.0210 -0.8627  0.2753
 9924TIP3    H253968   2.852   1.356   2.899 -0.5750 -0.3571 -2.6373
 9925TIP3   OH253969   4.638   2.707   1.010 -0.0450 -0.1299  0.6055
 9925TIP3    H153970   4.668   2.621   1.039  0.9296  0.4283  1.3449
 9925TIP3    H253971   4.602   2.747   1.089  0.1164  0.3886  0.4203
 9926TIP3   OH253972   4.580   4.613   2.406 -0.2460 -0.2303  0.2152
 9926TIP3    H153973   4.509   4.554   2.429 -0.5636 -0.2029 -0.6472
 9926TIP3    H253974   4.541   4.673   2.341  0.5028 -0.0962 -0.1192
 9927TIP3   OH253975   0.552   2.582   0.845  0.7852  0.5870 -0.5373
 9927TIP3    H153976   0.522   2.601   0.756 -1.8085 -0.2591  0.0777
 9927TIP3    H253977   0.599   2.499   0.837  1.3699  0.9772 -1.2538
 9928TIP3   OH253978   3.347   2.488   3.430 -0.2308 -0.4429  0.6234
 9928TIP3    H153979   3.431   2.475   3.384 -0.3118 -0.8814  0.5895
 9928TIP3    H253980   3.362   2.564   3.486  0.0109 -0.1677  0.1928
 9929TIP3   OH253981   2.179   2.070   2.802 -0.1088 -0.4662  0.3048
 9929TIP3    H153982   2.094   2.029   2.791 -0.4521 -0.0090  1.1251
 9929TIP3    H253983   2.223   2.018   2.870  0.5466 -1.1144 -0.6007
 9930TIP3   OH253984   3.802   3.717   0.796 -0.3014  0.4705 -0.4395
 9930TIP3    H153985   3.809   3.696   0.703 -2.6254  0.3237 -0.6447
 9930TIP3    H253986   3.885   3.688   0.833  0.8914  0.9996 -2.5259
 9931TIP3   OH253987   0.004   1.140   1.756 -0.2303  0.5576 -0.3495
 9931TIP3    H153988   0.050   1.069   1.711  0.6817  0.6625  0.3831
 9931TIP3    H253989   0.005   1.212   1.693  0.4231  0.4832 -0.4412
 9932TIP3   OH253990   2.595   2.444   1.027  0.7236 -0.4999 -0.0083
 9932TIP3    H153991   2.571   2.527   0.985  2.9216  0.4755  0.5565
 9932TIP3    H253992   2.686   2.430   1.002  0.3526 -2.8845 -0.2462
 9933TIP3   OH253993   0.210   5.113   2.088 -0.1933  0.4393 -0.2131
 9933TIP3    H153994   0.171   5.116   2.175 -1.6225  0.9468 -0.8353
 9933TIP3    H253995   0.194   5.200   2.052  1.8142  0.7654 -0.4074
 9934TIP3   OH253996   1.344   3.960   1.068 -0.7110  0.0239  0.1169
 9934TIP3    H153997   1.343   3.871   1.104  0.5919 -0.0314  0.0666
 9934TIP3    H253998   1.330   4.016   1.144  3.3442 -0.0204  1.1354
 9935TIP3   OH253999   1.602   1.412   2.003 -0.3954 -0.3945  0.9520
 9935TIP3    H154000   1.603   1.364   1.920 -0.2825  1.0343  0.0910
 9935TIP3    H254001   1.690   1.450   2.010 -0.5930 -0.0073  1.4257
 9936TIP3   OH254002   1.646   1.617   2.478 -0.5003  0.2738  0.4980
 9936TIP3    H154003   1.555   1.620   2.508 -0.8480 -1.4797 -0.2360
 9936TIP3    H254004   1.691   1.563   2.544 -0.7048 -1.4369 -0.6957
 9937TIP3   OH254005   6.035   6.272   3.689 -0.2029 -0.0767 -0.0272
 9937TIP3    H154006   6.001   6.229   3.767 -0.3422  0.6486  0.3187
 9937TIP3    H254007   6.126   6.243   3.684 -0.1911 -0.1187  0.4061
 9938TIP3   OH254008   2.064   1.969   1.953 -0.0150 -0.2764 -0.2617
 9938TIP3    H154009   2.142   1.994   1.904 -0.2243 -0.1390 -0.5279
 9938TIP3    H254010   2.088   1.886   1.995  0.8106  0.5443  0.9393
 9939TIP3   OH254011   0.833   2.345   3.033 -0.0853  0.2917  0.1684
 9939TIP3    H154012   0.771   2.294   2.982 -0.8673  1.0416  0.3390
 9939TIP3    H254013   0.785   2.369   3.112  1.2411 -1.2380  1.5058
 9940TIP3   OH254014   6.576   2.736   2.388  0.0533 -0.1568 -0.5275
 9940TIP3    H154015   6.590   2.826   2.358 -0.6439 -0.3576 -1.5054
 9940TIP3    H254016   6.664   2.698   2.390  0.1976  0.0690 -1.7199
 9941TIP3   OH254017   1.432   2.861   2.034 -0.1155 -0.8951  0.2590
 9941TIP3    H154018   1.385   2.804   1.973  0.0057 -0.3529 -0.3554
 9941TIP3    H254019   1.364   2.892   2.094 -0.5054 -0.3547 -0.4417
 9942TIP3   OH254020   5.059   3.548   0.855 -0.3861 -0.1739  0.0390
 9942TIP3    H154021   5.079   3.607   0.782  0.1319  0.9876  1.0875
 9942TIP3    H254022   5.010   3.603   0.917 -0.6850 -1.1048  0.6388
 9943TIP3   OH254023   5.101   5.847   1.419 -0.2065 -0.2314 -0.0393
 9943TIP3    H154024   5.121   5.791   1.344 -0.6173 -1.4291  0.7091
 9943TIP3    H254025   5.157   5.813   1.489 -0.5499  0.2182  0.4579
 9944TIP3   OH254026   6.421   2.000   2.608  0.5530 -0.4435 -0.3597
 9944TIP3    H154027   6.448   2.092   2.613 -1.5504  0.2616 -0.8901
 9944TIP3    H254028   6.481   1.955   2.667  1.4856  1.3048  0.1238
 9945TIP3   OH254029   0.634   4.799   1.245 -0.4190 -0.0454 -0.6028
 9945TIP3    H154030   0.541   4.818   1.257 -0.1079 -0.0406  2.2984
 9945TIP3    H254031   0.671   4.882   1.213 -1.3264  0.0106 -1.5876
 9946TIP3   OH254032   2.368   3.148   2.242  0.3781  0.2161  0.0705
 9946TIP3    H154033   2.459   3.119   2.246 -0.0874 -1.2247  1.0080
 9946TIP3    H254034   2.371   3.241   2.265  1.6023  0.1649  0.1489
 9947TIP3   OH254035   1.612   0.982   2.490  0.1792 -0.2928  0.0164
 9947TIP3    H154036   1.677   1.030   2.438 -0.7418  0.9275 -0.0479
 9947TIP3    H254037   1.665   0.932   2.552  1.2166 -0.0687 -0.6457
 9948TIP3   OH254038   5.084   4.329   2.252 -0.0896  0.1264  0.2408
 9948TIP3    H154039   5.057   4.410   2.296  0.0121  0.4545 -0.2897
 9948TIP3    H254040   5.012   4.308   2.193 -1.2282 -1.5392  2.1368
 9949TIP3   OH254041   5.746   2.677   0.651  0.2659  0.0219 -0.3167
 9949TIP3    H154042   5.837   2.704   0.665 -0.4708  1.5497  2.2477
 9949TIP3    H254043   5.750   2.581   0.649  1.8810  0.0339  0.3892
 9950TIP3   OH254044   1.904   0.305   3.154  0.2091 -0.2865 -0.6103
 9950TIP3    H154045   1.991   0.310   3.114  0.4724 -0.1089 -0.0128
 9950TIP3    H254046   1.895   0.214   3.182  1.1194  0.1975  1.3697
 9951TIP3   OH254047   0.296   5.398   1.491  0.0341 -0.0584  0.2880
 9951TIP3    H154048   0.388   5.426   1.486 -0.7044  2.6806  0.4789
 9951TIP3    H254049   0.279   5.356   1.407  1.2040  0.2523 -0.1259
 9952TIP3   OH254050   0.004   3.222   2.919  0.6162  0.1628  0.0867
 9952TIP3    H154051  -0.075   3.201   2.870  1.0218  0.0218 -0.5270
 9952TIP3    H254052   0.045   3.292   2.868  0.8074  0.3381  0.4800
 9953TIP3   OH254053   5.490   1.386   1.626 -0.3090 -0.0725 -0.4972
 9953TIP3    H154054   5.437   1.436   1.689 -0.2880  1.8787 -1.9244
 9953TIP3    H254055   5.548   1.333   1.680 -0.8159  0.9527  1.1263
 9954TIP3   OH254056   4.732   0.019   0.893 -0.1405  0.2822  0.1065
 9954TIP3    H154057   4.682   0.084   0.844  0.2703 -0.4659 -1.3741
 9954TIP3    H254058   4.790  -0.020   0.829  0.0932 -1.0876  1.0960
 9955TIP3   OH254059   0.431   1.723   2.601  0.0547  0.3258  0.5759
 9955TIP3    H154060   0.421   1.805   2.552 -3.5363  0.8762  1.9193
 9955TIP3    H254061   0.402   1.744   2.690 -0.9581 -2.3651  0.9891
 9956TIP3   OH254062   0.338   4.869   2.309  0.0578  0.0571 -0.0348
 9956TIP3    H154063   0.349   4.810   2.234 -0.4348  0.3734 -0.3633
 9956TIP3    H254064   0.401   4.939   2.294  1.6529 -1.0727  1.0775
 9957TIP3   OH254065   3.580   6.310   1.634  0.0438  0.2744  0.3754
 9957TIP3    H154066   3.522   6.362   1.579 -1.2992 -0.6014  0.8995
 9957TIP3    H254067   3.622   6.373   1.692  0.1710  1.0047 -0.5004
 9958TIP3   OH254068   0.942   1.802   2.090 -0.1462  0.0910 -0.2274
 9958TIP3    H154069   0.935   1.897   2.086 -0.4279  0.0318 -1.3000
 9958TIP3    H254070   1.003   1.779   2.020 -0.3970 -0.5443 -0.2486
 9959TIP3   OH254071   0.192   5.053   2.599  0.3823  0.2821  0.3534
 9959TIP3    H154072   0.183   5.144   2.571 -0.1255 -0.0137 -0.4896
 9959TIP3    H254073   0.135   5.046   2.675 -1.3997  0.1289 -0.9332
 9960TIP3   OH254074   6.535   4.620   4.078  0.2552 -0.0515 -0.0111
 9960TIP3    H154075   6.476   4.610   4.003 -0.0363 -0.4814  0.2667
 9960TIP3    H254076   6.476   4.629   4.153  0.5413 -0.4237  0.2635
 9961TIP3   OH254077   6.389   6.297   1.118  0.1457 -0.0530  0.1997
 9961TIP3    H154078   6.377   6.255   1.033  1.4644 -0.1644  0.0517
 9961TIP3    H254079   6.313   6.355   1.127 -1.2118 -1.7014 -0.0208
 9962TIP3   OH254080   4.028   0.696   2.873 -0.1762 -0.1692 -0.5623
 9962TIP3    H154081   3.985   0.781   2.883 -0.9265 -0.6814  0.9500
 9962TIP3    H254082   4.091   0.693   2.945  1.1043 -0.1958 -1.6548
 9963TIP3   OH254083   0.518   0.592   2.148 -0.5415 -0.4646 -0.0903
 9963TIP3    H154084   0.575   0.562   2.077 -0.9978 -1.2914 -0.1252
 9963TIP3    H254085   0.467   0.663   2.109  1.3725  1.2299  0.3303
 9964TIP3   OH254086   2.705   2.384   2.495  0.1120  0.1445  0.3230
 9964TIP3    H154087   2.748   2.386   2.580  1.4596 -2.2377 -0.2037
 9964TIP3    H254088   2.667   2.297   2.490 -0.1149  0.3147 -1.4359
 9965TIP3   OH254089   4.241   2.861   2.354  0.0014  0.1583 -0.4808
 9965TIP3    H154090   4.187   2.939   2.345  0.1739  0.3241 -0.1348
 9965TIP3    H254091   4.327   2.888   2.321  0.1305  0.2006 -0.1232
 9966TIP3   OH254092   4.871   4.022   1.468 -1.0220  0.3391  0.7008
 9966TIP3    H154093   4.901   3.945   1.419  0.6645  2.2988 -1.6129
 9966TIP3    H254094   4.791   4.050   1.423  0.1134  1.6933 -0.6235
 9967TIP3   OH254095   4.506   1.865   1.706  0.1190 -0.4593 -0.1200
 9967TIP3    H154096   4.472   1.781   1.738  0.9557 -1.0306 -0.6809
 9967TIP3    H254097   4.516   1.852   1.612 -1.4974  0.9156 -0.5232
 9968TIP3   OH254098   4.508   4.312   2.638 -0.1799  0.2265  0.3849
 9968TIP3    H154099   4.414   4.320   2.649 -0.3901  2.1722 -2.0417
 9968TIP3    H254100   4.525   4.218   2.644 -2.4382 -0.2827 -0.2477
 9969TIP3   OH254101   5.347   3.297   2.003  0.2511  0.2125  0.4719
 9969TIP3    H154102   5.386   3.318   1.918 -1.2768  0.9581 -0.0927
 9969TIP3    H254103   5.319   3.381   2.038 -1.9141 -0.3606  0.2696
 9970TIP3   OH254104   4.431   3.273   1.957  0.2394  0.4299  0.1480
 9970TIP3    H154105   4.509   3.219   1.950 -0.7224 -1.1774  1.0354
 9970TIP3    H254106   4.416   3.281   2.051 -0.4865  0.9848 -0.0024
 9971TIP3   OH254107   4.867   2.879   2.615  0.2603 -0.2204 -0.1996
 9971TIP3    H154108   4.813   2.853   2.540 -0.2658 -0.9398  0.4102
 9971TIP3    H254109   4.928   2.944   2.580  2.0528 -2.6853 -1.9628
 9972TIP3   OH254110   4.044   2.007   2.406  0.5068  0.0139 -0.2957
 9972TIP3    H154111   4.083   2.012   2.493  1.1277  2.0860 -0.6495
 9972TIP3    H254112   4.117   1.985   2.348  0.1673 -0.9917 -0.3635
 9973TIP3   OH254113   4.167   0.006   1.298  0.1849  0.1583 -0.5456
 9973TIP3    H154114   4.107   0.078   1.278  0.6845  0.3767 -1.3249
 9973TIP3    H254115   4.203   0.029   1.384  1.7096  1.8441 -1.5458
 9974TIP3   OH254116   6.571   0.283   1.873  0.1416  0.1408  1.3129
 9974TIP3    H154117   6.482   0.247   1.880 -0.1703  0.9474  1.6191
 9974TIP3    H254118   6.622   0.212   1.834 -0.7723 -0.1026  0.5210
 9975TIP3   OH254119   2.440   1.273   1.700  0.0742  0.1555  0.0649
 9975TIP3    H154120   2.356   1.289   1.656 -0.3421 -1.7016  0.0865
 9975TIP3    H254121   2.487   1.214   1.641  0.2157 -1.0143  1.3040
 9976TIP3   OH254122   0.860   4.054   0.421  0.0186  0.0983 -0.5797
 9976TIP3    H154123   0.956   4.060   0.417  0.2438 -1.1748  1.5368
 9976TIP3    H254124   0.832   4.142   0.446  0.9251 -0.1912  1.7343
 9977TIP3   OH254125   4.228   3.268   2.341 -0.3601  0.0977  0.7005
 9977TIP3    H154126   4.208   3.307   2.426  1.1884 -0.6064  1.4306
 9977TIP3    H254127   4.178   3.186   2.339 -5.6685  2.8949 -1.8702
 9978TIP3   OH254128   2.960   5.473   1.986 -0.7697  0.5832 -0.4681
 9978TIP3    H154129   3.008   5.420   1.922  0.2514 -0.2603  0.9450
 9978TIP3    H254130   2.911   5.536   1.933  1.5136  1.1711 -2.0171
 9979TIP3   OH254131   3.010   0.870   3.312  0.6438 -0.0858 -0.4975
 9979TIP3    H154132   2.927   0.901   3.277  0.3528 -0.2770  0.0146
 9979TIP3    H254133   3.004   0.884   3.406  1.0656 -0.3914 -0.4180
 9980TIP3   OH254134   0.382   2.013   3.127  0.5595  0.2186 -0.1503
 9980TIP3    H154135   0.380   1.919   3.148 -1.6739 -0.2142 -1.9430
 9980TIP3    H254136   0.424   2.017   3.041 -0.8843  0.6592 -0.8516
 9981TIP3   OH254137   3.762   2.437   2.688  0.4812 -0.0706 -0.1911
 9981TIP3    H154138   3.727   2.514   2.733  0.3279 -0.9013  1.1671
 9981TIP3    H254139   3.816   2.473   2.618 -1.9448  1.2711 -1.4903
 9982TIP3   OH254140   1.378   5.268   0.925 -0.3040  0.0468 -0.2297
 9982TIP3    H154141   1.322   5.321   0.981 -0.6324  0.3299 -0.8123
 9982TIP3    H254142   1.321   5.239   0.854 -0.1759 -1.2336  0.1608
 9983TIP3   OH254143   6.616   3.443   2.681  0.4050 -0.9398 -0.6493
 9983TIP3    H154144   6.535   3.470   2.637  0.7120  1.7856  0.2814
 9983TIP3    H254145   6.639   3.360   2.640 -2.1413 -1.1406 -1.8587
 9984TIP3   OH254146   0.996   1.140   1.124  0.1046  0.7946  0.2066
 9984TIP3    H154147   0.925   1.144   1.059  1.2401  0.2648 -1.1250
 9984TIP3    H254148   1.074   1.167   1.076  1.0550  0.0066  1.2510
 9985TIP3   OH254149   1.984   6.450   3.225  0.8599 -0.0190  0.0843
 9985TIP3    H154150   1.933   6.379   3.187  2.4133 -1.2943  0.2836
 9985TIP3    H254151   1.918   6.510   3.262 -0.5029 -0.9412 -0.7564
 9986TIP3   OH254152   4.171   4.456   1.654 -0.3030  0.2561 -0.0106
 9986TIP3    H154153   4.221   4.473   1.574  3.0513  0.0979  1.8559
 9986TIP3    H254154   4.151   4.363   1.650  0.0658  0.1941 -0.5301
 9987TIP3   OH254155   5.356   5.383   1.448  0.2488  0.0201 -0.4070
 9987TIP3    H154156   5.386   5.297   1.476 -1.0516 -0.1433  0.5218
 9987TIP3    H254157   5.396   5.395   1.362  1.0959 -1.1548 -0.1984
 9988TIP3   OH254158   0.727   0.088   3.130  0.8111 -0.2811  0.0542
 9988TIP3    H154159   0.642   0.128   3.147  0.5730  0.0364 -1.7477
 9988TIP3    H254160   0.719  -0.001   3.164 -0.2798 -0.2854 -0.2009
 9989TIP3   OH254161   0.455   5.691   0.365  0.1131 -0.0589 -0.2119
 9989TIP3    H154162   0.426   5.654   0.281 -2.3690 -1.3583  1.1075
 9989TIP3    H254163   0.500   5.618   0.408  1.1658  0.5320 -0.2874
 9990TIP3   OH254164   2.234   1.721   1.930  0.2681  0.0600  0.0947
 9990TIP3    H154165   2.311   1.727   1.986 -0.3686  1.6902  0.8816
 9990TIP3    H254166   2.187   1.643   1.961  1.1252 -0.4058  0.2276
 9991TIP3   OH254167   5.103   2.850   2.103  0.4341 -0.0525 -0.2619
 9991TIP3    H154168   5.136   2.892   2.024  0.5822 -0.1555 -0.2542
 9991TIP3    H254169   5.168   2.873   2.171  1.1903 -1.3364 -0.5231
 9992TIP3   OH254170   0.600   3.589   1.607  0.2321  0.0985 -0.0821
 9992TIP3    H154171   0.587   3.496   1.589  1.3490 -0.2991  1.0363
 9992TIP3    H254172   0.693   3.598   1.626 -0.1633  1.1083  1.6562
 9993TIP3   OH254173   5.186   0.623   1.551  0.2045  0.3582 -0.8279
 9993TIP3    H154174   5.257   0.605   1.488  1.5348 -0.2802  0.7882
 9993TIP3    H254175   5.228   0.675   1.620 -0.6993 -0.6783  0.5426
 9994TIP3   OH254176   4.206   6.389   1.123 -0.1526  0.1853 -0.2336
 9994TIP3    H154177   4.265   6.451   1.167  1.4871 -0.1195 -1.9070
 9994TIP3    H254178   4.126   6.440   1.108  1.1694  1.9915 -1.6234
 9995TIP3   OH254179   0.116   0.452   1.470  0.1982 -0.5501  0.3420
 9995TIP3    H154180   0.129   0.546   1.461 -0.6679 -0.3039  1.4395
 9995TIP3    H254181   0.060   0.443   1.547 -1.0879 -1.8604 -0.7019
 9996TIP3   OH254182   6.118   2.797   3.297  0.6364  0.1812 -0.7679
 9996TIP3    H154183   6.089   2.864   3.235 -0.2147  1.5321  0.9838
 9996TIP3    H254184   6.044   2.737   3.304  1.0171 -0.4047 -1.5782
 9997TIP3   OH254185   0.660   0.229   1.503  0.8485  0.3812  0.0649
 9997TIP3    H154186   0.652   0.324   1.498  1.3001  0.3825 -0.8954
 9997TIP3    H254187   0.618   0.206   1.585 -1.8290  1.1346 -0.9777
 9998TIP3   OH254188   6.249   0.813   1.423 -0.1890 -0.3823 -0.1058
 9998TIP3    H154189   6.191   0.763   1.481 -0.2559 -0.5593 -0.3247
 9998TIP3    H254190   6.334   0.771   1.433 -0.3750 -0.9488 -0.7614
 9999TIP3   OH254191   1.001   2.867   1.224  0.5678 -0.1013 -0.2104
 9999TIP3    H154192   1.067   2.918   1.177 -0.1291  0.2153 -0.8658
 9999TIP3    H254193   0.958   2.815   1.156  1.2880 -1.6236  0.4368
10000TIP3   OH254194   1.751   4.569   1.320 -0.1505 -0.2025 -0.2318
10000TIP3    H154195   1.720   4.649   1.276 -0.1273 -0.0600  0.0109
10000TIP3    H254196   1.683   4.504   1.301  0.3134 -0.4008 -1.2609
10001TIP3   OH254197   5.430   5.346   2.284 -0.1633  0.2956  0.1050
10001TIP3    H154198   5.436   5.441   2.291  1.8666  0.3249 -1.3079
10001TIP3    H254199   5.515   5.314   2.314 -0.6160 -1.0518  0.0317
10002TIP3   OH254200   1.224   3.912   2.251  0.5444 -0.0931  0.5346
10002TIP3    H154201   1.210   3.849   2.322 -0.4414  1.2203  1.5653
10002TIP3    H254202   1.293   3.970   2.283 -1.0735  1.5501  1.2311
10003TIP3   OH254203   2.182   0.642   4.202  0.4207 -0.1398  0.5199
10003TIP3    H154204   2.110   0.585   4.176  0.1958  1.3022 -2.4423
10003TIP3    H254205   2.151   0.731   4.182  2.8020  0.5541 -0.4740
10004TIP3   OH254206   4.446   3.121   3.513  0.6557  0.0862  0.3314
10004TIP3    H154207   4.427   3.208   3.478 -0.1115 -0.3126 -0.2855
10004TIP3    H254208   4.471   3.070   3.436 -2.7956 -1.2962 -0.0676
10005TIP3   OH254209   0.224   5.786   1.943  0.4172  0.5728  0.3766
10005TIP3    H154210   0.277   5.748   1.872  0.5472 -0.7493  1.1380
10005TIP3    H254211   0.178   5.711   1.981 -1.7507  1.6170 -0.0063
10006TIP3   OH254212   5.086   3.931   3.785 -0.0238  0.4737  0.3276
10006TIP3    H154213   5.071   4.022   3.809  3.1411  1.0614  0.4463
10006TIP3    H254214   5.148   3.898   3.850  1.0715 -0.8989 -1.3265
10007TIP3   OH254215   2.670   4.293   1.375  0.5961  0.2947  0.3546
10007TIP3    H154216   2.733   4.334   1.316  1.7549 -1.4578  0.2748
10007TIP3    H254217   2.641   4.363   1.433 -0.5291  2.0965 -2.1721
10008TIP3   OH254218   6.483   5.449   3.590 -0.1445 -0.6959  0.1957
10008TIP3    H154219   6.495   5.407   3.505  0.1238  0.3674 -0.3177
10008TIP3    H254220   6.520   5.387   3.653 -0.3519 -1.4990 -0.4557
10009TIP3   OH254221   4.385   2.558   2.779  0.0066  0.1512 -0.3282
10009TIP3    H154222   4.336   2.613   2.718 -0.2294  0.8999  0.5172
10009TIP3    H254223   4.325   2.487   2.802 -0.9276  1.3347  1.0915
10010TIP3   OH254224   1.149   0.017   3.207  0.6476 -0.3181  0.2259
10010TIP3    H154225   1.110   0.101   3.230  1.2084  0.2156 -0.7212
10010TIP3    H254226   1.220   0.005   3.271  2.0295  1.0308 -0.9714
10011TIP3   OH254227   1.306   2.047   0.735  0.3562 -0.1708 -0.6085
10011TIP3    H154228   1.352   2.111   0.789  0.4665 -1.0373  0.3616
10011TIP3    H254229   1.304   2.086   0.648 -0.6180  1.6707  0.1742
10012TIP3   OH254230   1.859   3.239   1.699  0.4371  0.3676 -0.2419
10012TIP3    H154231   1.767   3.224   1.719  0.7562 -0.5591  0.6001
10012TIP3    H254232   1.889   3.157   1.659  1.1285  0.3042  0.3801
10013TIP3   OH254233   2.869   4.057   1.955 -0.3250 -0.1082  0.1020
10013TIP3    H154234   2.939   4.106   1.912 -0.0436  0.8419  1.5559
10013TIP3    H254235   2.910   4.022   2.034 -0.9909 -1.2156 -0.0318
10014TIP3   OH254236   6.503   0.520   2.343  0.7888 -0.1261  0.6948
10014TIP3    H154237   6.534   0.535   2.253  1.3943 -0.8356  0.7714
10014TIP3    H254238   6.521   0.427   2.359 -0.0005 -0.1858  1.2919
10015TIP3   OH254239   5.251   6.256   2.701  0.5461  0.5931  0.1075
10015TIP3    H154240   5.333   6.222   2.737  1.2489  0.8828 -1.1550
10015TIP3    H254241   5.226   6.194   2.633 -0.5588  0.2517  0.7959
10016TIP3   OH254242   5.898   1.252   2.002  0.4905  0.4729  0.0224
10016TIP3    H154243   5.859   1.167   1.984  2.1109 -0.1558 -0.7767
10016TIP3    H254244   5.933   1.245   2.091  0.6752  0.2703 -0.0647
10017TIP3   OH254245   4.616   2.411   1.656  0.5888  0.3144 -0.0621
10017TIP3    H154246   4.696   2.445   1.696  0.9395  0.3463 -0.7734
10017TIP3    H254247   4.604   2.325   1.697 -0.5381  1.4071  2.0465
10018TIP3   OH254248   1.240   6.489   0.654  0.2986 -0.2867  0.0662
10018TIP3    H154249   1.172   6.513   0.717  0.7221 -0.5085  0.6196
10018TIP3    H254250   1.217   6.400   0.627 -0.7271  0.3379 -1.2526
10019TIP3   OH254251   5.537   4.393   2.708  0.1555 -0.0286  0.1657
10019TIP3    H154252   5.551   4.364   2.798  1.0147 -0.2758 -0.0385
10019TIP3    H254253   5.447   4.425   2.707 -0.3793 -1.4372  0.7306
10020TIP3   OH254254   0.167   3.235   2.581  0.2244 -0.1169  0.0759
10020TIP3    H154255   0.159   3.156   2.633 -0.5272  0.8038  1.4160
10020TIP3    H254256   0.175   3.204   2.491 -1.6396 -1.7027  0.3909
10021TIP3   OH254257   2.982   1.005   2.605 -0.1279 -0.0612 -0.3708
10021TIP3    H154258   2.925   1.033   2.677  1.4347  1.5421  0.3145
10021TIP3    H254259   3.036   1.082   2.586  0.6754 -1.0018 -2.1142
10022TIP3   OH254260   5.965   2.058   0.700 -0.2740 -0.0952 -0.3944
10022TIP3    H154261   5.913   2.134   0.726  0.4773  0.5226 -0.6634
10022TIP3    H254262   5.973   2.067   0.605  1.2106  0.4082 -0.2389
10023TIP3   OH254263   5.341   0.199   2.026 -0.3926 -0.3091 -0.1947
10023TIP3    H154264   5.290   0.239   2.097 -0.2325 -0.9392  0.2915
10023TIP3    H254265   5.363   0.272   1.968  1.0054  0.5909  1.3308
10024TIP3   OH254266   2.630   3.972   1.923 -0.0246 -0.2679  0.8570
10024TIP3    H154267   2.635   3.914   1.847  1.3696  0.1018  0.6286
10024TIP3    H254268   2.715   4.016   1.925 -0.7431  1.1567  1.5130
10025TIP3   OH254269   6.226   6.213   4.030 -0.2346 -0.3346 -0.2994
10025TIP3    H154270   6.235   6.216   4.125 -0.3797  1.9058 -0.3013
10025TIP3    H254271   6.146   6.161   4.015 -0.8214  0.1998  0.8643
10026TIP3   OH254272   3.926   4.958   0.656 -0.8568 -0.0193 -0.1197
10026TIP3    H154273   3.915   5.036   0.710  0.6615 -0.3346  0.7208
10026TIP3    H254274   3.843   4.912   0.662 -0.4032 -0.6260  2.9442
10027TIP3   OH254275   0.941   3.816   1.605 -0.0917 -0.5173  0.5997
10027TIP3    H154276   0.926   3.733   1.651 -0.5169 -0.4924  0.5062
10027TIP3    H254277   0.969   3.877   1.673  1.3231 -1.0151  0.5144
10028TIP3   OH254278   5.106   2.615   4.277  0.0854  0.7312 -0.4697
10028TIP3    H154279   5.136   2.699   4.243  2.4185  0.6565  1.1515
10028TIP3    H254280   5.025   2.635   4.323  0.2730  1.9900 -0.6631
10029TIP3   OH254281   5.783   1.761   0.723 -0.5474 -0.0602  0.1277
10029TIP3    H154282   5.815   1.844   0.758  0.9013 -0.7381  0.4619
10029TIP3    H254283   5.861   1.710   0.705 -1.2853 -0.4458 -2.4567
10030TIP3   OH254284   1.693   0.558   2.805 -0.3775  0.9012  0.2294
10030TIP3    H154285   1.729   0.605   2.880  0.3090  0.2184  0.3371
10030TIP3    H254286   1.725   0.468   2.815 -1.2679  0.5251 -0.2378
10031TIP3   OH254287   1.439   4.428   1.576 -0.3132 -0.1990  0.0760
10031TIP3    H154288   1.512   4.369   1.557 -1.4972 -1.1527 -1.8081
10031TIP3    H254289   1.394   4.388   1.651  0.8050  0.1792  0.9803
10032TIP3   OH254290   6.586   3.830   2.565 -0.3082  0.7701  0.0394
10032TIP3    H154291   6.598   3.889   2.490 -0.6475  0.1979 -0.4775
10032TIP3    H254292   6.507   3.862   2.608  0.1204  1.3566  0.4010
10033TIP3   OH254293   2.792   2.013   0.915  0.0519 -0.4320 -0.4268
10033TIP3    H154294   2.863   2.011   0.851 -0.3317  1.6755 -0.9931
10033TIP3    H254295   2.713   2.020   0.862 -0.3732 -0.0046  0.2594
10034TIP3   OH254296   3.189   4.290   2.768 -0.0613 -0.2098  0.6310
10034TIP3    H154297   3.223   4.376   2.745 -0.5679 -0.4087 -0.9196
10034TIP3    H254298   3.266   4.242   2.798  0.4230  0.4088  0.3981
10035TIP3   OH254299   3.084   1.785   3.601  0.4389  0.1588  0.3776
10035TIP3    H154300   3.122   1.842   3.534 -0.5889  1.2776  0.7101
10035TIP3    H254301   3.154   1.774   3.666  0.4025  1.7775  0.7360
10036TIP3   OH254302   5.922   4.859   4.693  0.4410 -0.0449  0.1583
10036TIP3    H154303   5.966   4.924   4.638  0.8436 -0.5933 -0.1803
10036TIP3    H254304   5.977   4.854   4.771  0.4574 -0.0307  0.1478
10037TIP3   OH254305   3.468   4.888   1.325 -0.2360 -0.8545 -0.0379
10037TIP3    H154306   3.537   4.837   1.282 -0.9080 -0.2691 -1.8797
10037TIP3    H254307   3.413   4.823   1.368  0.6640 -1.4302  0.2713
10038TIP3   OH254308   1.996   1.051   3.120  0.0626  0.1456  0.5419
10038TIP3    H154309   1.971   1.094   3.201 -0.4938 -0.1153  0.5153
10038TIP3    H254310   1.994   0.957   3.141 -1.7389 -0.0251 -0.1994
10039TIP3   OH254311   5.856   2.957   3.602 -0.0719 -0.9989 -0.3595
10039TIP3    H154312   5.771   3.001   3.614 -0.2515 -1.7623  1.4231
10039TIP3    H254313   5.833   2.870   3.567  0.0748 -0.7880 -0.9964
10040TIP3   OH254314   0.490   4.306   2.018 -0.0536  0.1852  0.2817
10040TIP3    H154315   0.566   4.308   2.076 -0.6766 -2.5304  1.3306
10040TIP3    H254316   0.527   4.298   1.930  0.8674  2.2621  0.4238
10041TIP3   OH254317   2.473   5.264   3.512  0.5718  0.2006  0.8528
10041TIP3    H154318   2.534   5.322   3.558 -0.1738  1.3868  0.4015
10041TIP3    H254319   2.387   5.286   3.549  0.2485 -0.4936  0.5295
10042TIP3   OH254320   6.344   5.072   2.902  0.0237  0.4911 -0.2716
10042TIP3    H154321   6.355   5.129   2.979 -0.9960 -0.1676  0.3995
10042TIP3    H254322   6.399   4.996   2.920  0.4134  0.6944 -0.5841
10043TIP3   OH254323   4.439   4.363   0.708 -0.1565  0.3159  0.6677
10043TIP3    H154324   4.493   4.415   0.767  1.4347  0.0135 -0.4766
10043TIP3    H254325   4.386   4.427   0.661  0.6982  0.8070  0.3543
10044TIP3   OH254326   2.189   4.895   4.052 -0.4114  0.3113  0.4056
10044TIP3    H154327   2.160   4.898   3.961  1.4529  0.3709 -0.2413
10044TIP3    H254328   2.165   4.807   4.082 -0.9351  0.2527 -0.1741
10045TIP3   OH254329   1.891   1.769   2.469  0.3298 -0.0744 -0.1079
10045TIP3    H154330   1.965   1.731   2.422 -0.8120 -1.4779 -0.8348
10045TIP3    H254331   1.823   1.702   2.467 -0.9152  1.0838  0.7248
10046TIP3   OH254332   6.341   4.684   2.601 -0.0580  0.1959  0.2977
10046TIP3    H154333   6.295   4.662   2.520 -0.5824  1.5552  0.2118
10046TIP3    H254334   6.286   4.750   2.643  0.6467  0.1416  1.3466
10047TIP3   OH254335   1.849   4.517   1.577  0.0129 -0.1799  0.8664
10047TIP3    H154336   1.805   4.528   1.493  1.5035 -1.3586 -0.1130
10047TIP3    H254337   1.785   4.549   1.642 -0.2427  3.1124 -0.8154
10048TIP3   OH254338   2.819   6.219   2.399  0.3679  0.4396  0.4827
10048TIP3    H154339   2.812   6.251   2.489  0.0611  0.0221  0.6102
10048TIP3    H254340   2.730   6.223   2.365  0.6970  1.9472 -0.2847
10049TIP3   OH254341   4.714   5.608   0.930 -0.2613  0.2725 -0.0032
10049TIP3    H154342   4.624   5.600   0.963 -0.4605  0.2422 -0.5442
10049TIP3    H254343   4.719   5.697   0.895 -0.3659 -0.0219 -0.7935
10050TIP3   OH254344   5.124   1.434   2.197 -0.3438 -0.3144 -0.0749
10050TIP3    H154345   5.209   1.449   2.237 -0.3098 -0.7045 -0.0016
10050TIP3    H254346   5.142   1.434   2.103 -0.2986 -0.1942 -0.0675
10051TIP3   OH254347   1.786   4.947   1.405 -0.0215 -0.2998 -0.3110
10051TIP3    H154348   1.726   5.009   1.361  1.3505  0.7047 -0.8283
10051TIP3    H254349   1.729   4.897   1.463 -1.1603  1.7817  0.4944
10052TIP3   OH254350   5.450   4.104   3.003 -0.4291  0.1912  0.1670
10052TIP3    H154351   5.403   4.129   2.923 -0.7554 -0.9516 -0.0232
10052TIP3    H254352   5.399   4.030   3.038  0.4840 -0.2063  0.6884
10053TIP3   OH254353   5.963   1.420   2.480 -0.0441  0.1669 -0.1716
10053TIP3    H154354   6.048   1.447   2.446 -0.2562  0.1120 -0.7693
10053TIP3    H254355   5.978   1.403   2.573  0.4678  0.7090 -0.1486
10054TIP3   OH254356   2.232   2.291   1.319 -0.2183 -0.1875 -0.0416
10054TIP3    H154357   2.169   2.291   1.247  0.2920 -2.9533 -0.6062
10054TIP3    H254358   2.306   2.341   1.285  0.2327 -1.8873 -1.7479
10055TIP3   OH254359   3.235   0.653   3.458  0.3584 -0.4217  0.0580
10055TIP3    H154360   3.200   0.572   3.495 -1.5234 -0.7263 -2.1567
10055TIP3    H254361   3.183   0.722   3.499 -1.1082 -0.6951 -1.2626
10056TIP3   OH254362   0.142   1.463   2.106 -0.0670 -0.6378 -0.4797
10056TIP3    H154363   0.164   1.467   2.013 -0.8692  1.5166 -0.6306
10056TIP3    H254364   0.068   1.522   2.116  0.1353 -0.6429  1.5826
10057TIP3   OH254365   3.143   5.968   3.429 -0.0198  0.2943 -0.1136
10057TIP3    H154366   3.052   5.997   3.424  0.3728  1.5256 -0.5101
10057TIP3    H254367   3.190   6.043   3.466  0.6401 -0.8201  1.4312
10058TIP3   OH254368   4.750   6.142   1.795  0.4103  0.3522 -0.2802
10058TIP3    H154369   4.713   6.228   1.775  0.1331  0.0433 -1.1489
10058TIP3    H254370   4.789   6.113   1.712  1.7448  0.2452  0.3641
10059TIP3   OH254371   1.183   6.600   1.653  0.9228 -0.0409 -0.6622
10059TIP3    H154372   1.274   6.617   1.630  1.1251  0.0611  0.1843
10059TIP3    H254373   1.173   6.505   1.645  1.8023 -0.3864  1.6155
10060TIP3   OH254374   6.582   5.322   2.841 -0.5021  0.8622  0.1350
10060TIP3    H154375   6.556   5.396   2.896  2.4143  2.3493 -0.2853
10060TIP3    H254376   6.616   5.258   2.903 -2.3239  0.1153  0.4328
10061TIP3   OH254377   5.183   2.780   1.049  0.2889  0.0274  0.1829
10061TIP3    H154378   5.100   2.735   1.064 -0.0562  0.0636 -1.4755
10061TIP3    H254379   5.247   2.729   1.100 -0.5569 -0.6237  0.6309
10062TIP3   OH254380   2.289   4.752   0.614  0.4708  0.0696 -0.2029
10062TIP3    H154381   2.290   4.775   0.707  0.3101 -0.7168 -0.0075
10062TIP3    H254382   2.381   4.733   0.594  0.2522 -1.5999  0.2624
10063TIP3   OH254383   5.852   0.815   2.179  0.3243 -0.2790  0.2483
10063TIP3    H154384   5.901   0.735   2.164  1.6641  0.8203 -1.6691
10063TIP3    H254385   5.855   0.828   2.274  1.6779 -1.5095  0.4014
10064TIP3   OH254386   1.268   0.591   1.473 -0.4299  0.2841  0.4603
10064TIP3    H154387   1.303   0.608   1.560 -0.6896  0.2393  0.5760
10064TIP3    H254388   1.192   0.649   1.467  0.5711  1.5517 -0.3883
10065TIP3   OH254389   2.061   5.098   2.477  0.5383 -0.5266  0.5035
10065TIP3    H154390   2.103   5.073   2.395 -1.4899 -0.3052 -0.6692
10065TIP3    H254391   2.033   5.016   2.516 -1.2407 -0.4855 -0.6078
10066TIP3   OH254392   3.852   1.255   3.189 -0.1104 -0.1768 -0.0941
10066TIP3    H154393   3.932   1.294   3.153  0.3272 -1.2635 -0.3498
10066TIP3    H254394   3.780   1.300   3.145  0.3944 -0.9546 -1.7941
10067TIP3   OH254395   4.531   5.247   2.837  0.0995 -0.0307 -0.1081
10067TIP3    H154396   4.572   5.177   2.786  2.0430  1.9669 -1.4420
10067TIP3    H254397   4.437   5.227   2.834  0.3581 -1.2189 -2.5922
10068TIP3   OH254398   4.923   0.038   2.068 -0.4113 -0.4493  0.1459
10068TIP3    H154399   4.835   0.026   2.104 -1.2493  1.6914 -0.9971
10068TIP3    H254400   4.973  -0.036   2.102 -2.5613 -1.5709  1.0725
10069TIP3   OH254401   0.304   5.816   4.171  0.1860 -1.1974  0.2012
10069TIP3    H154402   0.301   5.723   4.189  2.5708 -1.3204  0.2807
10069TIP3    H254403   0.261   5.857   4.246 -1.4389 -2.2097 -0.1269
10070TIP3   OH254404   1.392   5.333   1.691  0.5104  0.0401 -0.2470
10070TIP3    H154405   1.337   5.272   1.740  1.1942 -0.2224  0.2190
10070TIP3    H254406   1.370   5.318   1.600  0.1297 -0.3734 -0.0883
10071TIP3   OH254407   0.480   3.043   0.633  0.1977  0.3529  0.2202
10071TIP3    H154408   0.501   2.967   0.686  2.2024  0.9458  0.3776
10071TIP3    H254409   0.565   3.076   0.604 -0.5581  2.7841  0.5249
10072TIP3   OH254410   0.375   3.578   1.107 -0.0129  0.1192  0.6957
10072TIP3    H154411   0.461   3.564   1.068  0.2967  1.8201  0.6657
10072TIP3    H254412   0.316   3.588   1.032 -0.2099 -0.8112  0.7153
10073TIP3   OH254413   3.846   5.197   2.505 -0.3529 -0.2847 -0.6011
10073TIP3    H154414   3.910   5.255   2.546 -0.9511  0.7378 -1.0633
10073TIP3    H254415   3.766   5.250   2.500 -0.8140 -1.0307 -1.3659
10074TIP3   OH254416   4.935   3.747   2.479  0.3940 -0.5393  0.2977
10074TIP3    H154417   4.877   3.702   2.541  1.3328 -0.7320  1.0693
10074TIP3    H254418   4.877   3.780   2.411 -0.4446 -2.0601  0.2340
10075TIP3   OH254419   1.064   6.499   3.575  0.0296  0.2958  0.3614
10075TIP3    H154420   1.081   6.445   3.652  2.1976 -0.7144 -0.7342
10075TIP3    H254421   1.023   6.439   3.512  1.2980  0.1927 -0.4089
10076TIP3   OH254422   0.657   4.300   1.549  0.3296 -0.0007  0.5423
10076TIP3    H154423   0.741   4.323   1.509  0.0162  1.6536  0.7478
10076TIP3    H254424   0.592   4.320   1.482  0.0884 -1.2645  0.3873
10077TIP3   OH254425   0.732   1.000   2.170 -0.5245 -0.7934  0.2007
10077TIP3    H154426   0.731   0.972   2.261 -0.4308 -1.0407  0.1259
10077TIP3    H254427   0.641   1.022   2.150 -0.5994 -1.0518  0.2568
10078TIP3   OH254428   0.905   3.181   2.974  0.1936  0.1989 -0.2238
10078TIP3    H154429   0.965   3.137   3.035  0.9855  0.8743 -0.4898
10078TIP3    H254430   0.857   3.110   2.932  1.2006 -0.4123 -0.3853
10079TIP3   OH254431   0.072   2.506   1.670 -0.0061  0.6324  0.1530
10079TIP3    H154432   0.148   2.534   1.720  0.5101  2.6623 -1.6084
10079TIP3    H254433   0.077   2.556   1.588 -1.5839 -1.4207 -1.3237
10080TIP3   OH254434   5.878   5.301   1.863 -0.3483 -0.4795  0.6584
10080TIP3    H154435   5.789   5.297   1.828 -0.8178 -0.9774  1.8509
10080TIP3    H254436   5.869   5.272   1.954  1.0165 -0.4202  0.8295
10081TIP3   OH254437   3.261   3.136   1.953  0.6544 -0.5296 -0.0781
10081TIP3    H154438   3.236   3.229   1.948  1.6900 -0.2349  0.0382
10081TIP3    H254439   3.202   3.098   2.017 -1.1249 -0.4111 -1.5590
10082TIP3   OH254440   2.467   3.094   3.439 -0.4635 -0.4371 -0.0118
10082TIP3    H154441   2.453   3.095   3.344  0.1209 -1.3785 -0.1182
10082TIP3    H254442   2.379   3.101   3.476 -0.8445 -1.6597 -0.6377
10083TIP3   OH254443   5.698   5.940   1.361  0.2568 -0.4412 -0.0791
10083TIP3    H154444   5.768   5.923   1.298  0.2710 -2.0674  0.3262
10083TIP3    H254445   5.621   5.958   1.308  0.4806 -0.8822 -0.5678
10084TIP3   OH254446   4.039   6.180   3.821  0.0714 -0.4002 -0.1651
10084TIP3    H154447   4.044   6.116   3.892  0.3652  1.1951  1.3129
10084TIP3    H254448   3.959   6.158   3.774 -1.5297  0.0067  2.1990
10085TIP3   OH254449   6.406   3.432   2.500  0.1290  0.1860  0.4169
10085TIP3    H154450   6.449   3.477   2.427 -0.7078  1.8466  0.8935
10085TIP3    H254451   6.313   3.452   2.490 -0.0532  0.0348  1.6493
10086TIP3   OH254452   1.108   3.667   1.418  0.0018  0.0906 -0.0976
10086TIP3    H154453   1.059   3.733   1.468  1.2606  0.9500  0.0417
10086TIP3    H254454   1.129   3.711   1.335  0.6522 -0.2097 -0.0971
10087TIP3   OH254455   1.870   3.005   4.030  0.1241  0.5638  0.4910
10087TIP3    H154456   1.946   3.050   3.993  0.1919 -0.8228 -1.2131
10087TIP3    H254457   1.811   2.992   3.956 -1.6733  1.3269  1.7170
10088TIP3   OH254458   3.123   0.150   2.966  0.1712  0.6140 -0.1663
10088TIP3    H154459   3.079   0.083   3.019  0.2324  0.4998 -0.2582
10088TIP3    H254460   3.068   0.227   2.975 -0.3269  0.3320 -0.6761
10089TIP3   OH254461   5.324   0.447   0.851 -0.5612  0.4043 -0.0110
10089TIP3    H154462   5.311   0.540   0.835  0.2240  0.4350 -0.5810
10089TIP3    H254463   5.419   0.437   0.857 -0.6191 -0.3964 -0.2442
10090TIP3   OH254464   1.587   3.295   1.753 -0.1733  0.1710  0.3267
10090TIP3    H154465   1.558   3.218   1.802 -1.4820  0.3786 -0.0830
10090TIP3    H254466   1.569   3.368   1.811  2.1886  0.1396  1.2201
10091TIP3   OH254467   5.260   6.154   3.156  0.4485 -0.0383 -0.0103
10091TIP3    H154468   5.237   6.118   3.241  1.5453  0.8583  0.6983
10091TIP3    H254469   5.204   6.108   3.094  0.2977 -1.3774  1.0878
10092TIP3   OH254470   3.248   1.155   1.841  0.2932  0.0434 -0.2724
10092TIP3    H154471   3.307   1.211   1.893 -0.3905  1.4319 -0.9204
10092TIP3    H254472   3.300   1.129   1.766  0.6816 -0.3695  0.1320
10093TIP3   OH254473   5.961   3.495   3.585 -0.0603  0.0504 -0.6128
10093TIP3    H154474   5.956   3.408   3.624  1.6537 -0.2751 -1.0276
10093TIP3    H254475   6.041   3.533   3.621  0.4259  0.5596 -2.1328
10094TIP3   OH254476   0.522   4.922   1.710  0.3717  0.0643  0.0386
10094TIP3    H154477   0.474   4.957   1.785 -1.2275 -0.6245 -0.6254
10094TIP3    H254478   0.543   4.998   1.656 -1.1082  0.2610 -0.2890
10095TIP3   OH254479   3.009   4.682   2.634 -0.0914  0.2543  0.1432
10095TIP3    H154480   2.984   4.770   2.606  0.2300  0.5832  0.8692
10095TIP3    H254481   2.927   4.632   2.629 -0.7822  1.1344  1.7673
10096TIP3   OH254482   2.360   0.868   1.975 -0.6275 -0.1302  0.0751
10096TIP3    H154483   2.384   0.894   1.886  1.6328  0.2830  0.7527
10096TIP3    H254484   2.392   0.779   1.984 -0.4006  0.0026  0.6297
10097TIP3   OH254485   5.909   3.480   2.661  0.3056 -0.2086  0.5680
10097TIP3    H154486   5.894   3.570   2.632  0.3590 -0.3402  0.1282
10097TIP3    H254487   5.836   3.431   2.624  0.1468 -0.3040  1.0092
10098TIP3   OH254488   3.183   3.362   0.642  0.2827 -0.5711 -0.1552
10098TIP3    H154489   3.153   3.449   0.670  0.2333  0.2829 -2.5885
10098TIP3    H254490   3.104   3.318   0.611  0.5696 -0.7804 -0.6064
10099TIP3   OH254491   5.563   1.407   2.852 -0.4895  0.7816 -0.0244
10099TIP3    H154492   5.655   1.424   2.874 -0.4471 -0.7440  1.1980
10099TIP3    H254493   5.513   1.468   2.906 -0.2427 -0.2186  1.4011
10100TIP3   OH254494   5.941   4.838   3.993 -0.1471 -0.0250 -0.5113
10100TIP3    H154495   5.958   4.772   4.061 -0.2401 -0.2819 -0.7375
10100TIP3    H254496   5.883   4.794   3.931 -0.1922  0.2648 -0.6735
10101TIP3   OH254497   6.114   5.085   1.129  0.1120 -0.1898  0.0808
10101TIP3    H154498   6.049   5.024   1.164 -0.5364 -1.2639 -2.7341
10101TIP3    H254499   6.089   5.170   1.165 -2.3644 -0.7204 -0.2204
10102TIP3   OH254500   4.093   1.932  11.895  0.3860  0.6091 -0.0099
10102TIP3    H154501   4.013   1.902  11.851 -0.3148  0.0900  1.5467
10102TIP3    H254502   4.063   1.989  11.965  1.4130  0.7245  0.3633
10103TIP3   OH254503   4.063   6.065   2.074 -0.0516 -0.2210  0.0896
10103TIP3    H154504   4.144   6.095   2.116  0.9120 -1.3429 -0.8851
10103TIP3    H254505   4.057   6.116   1.994 -1.3149  1.1492  1.0016
10104TIP3   OH254506   4.091   3.637   0.780 -0.2618 -0.2532  0.0742
10104TIP3    H154507   4.144   3.643   0.700 -2.3173  2.7555 -1.2338
10104TIP3    H254508   4.053   3.549   0.776  0.0005 -0.3313 -2.0915
10105TIP3   OH254509   3.856   5.670   4.034 -0.1488  0.2147 -0.3316
10105TIP3    H154510   3.944   5.677   4.072  0.1832 -0.4350 -0.9503
10105TIP3    H254511   3.849   5.578   4.007 -1.3712  0.0138  0.5440
10106TIP3   OH254512   2.307   0.057   3.122 -0.6119  0.0762 -0.6922
10106TIP3    H154513   2.314   0.037   3.029  1.3087 -1.3237 -0.3238
10106TIP3    H254514   2.347  -0.019   3.166 -1.8572  0.4875  1.2987
10107TIP3   OH254515   0.703   1.138   2.487  0.2750  0.2851 -0.2613
10107TIP3    H154516   0.745   1.058   2.454 -2.1035  0.1142 -3.3446
10107TIP3    H254517   0.718   1.203   2.418 -0.2042  1.7070  0.9239
10108TIP3   OH254518   1.806   0.336   2.303  0.4040 -0.3169 -0.2255
10108TIP3    H154519   1.752   0.414   2.291 -0.8068 -1.2775 -1.2123
10108TIP3    H254520   1.767   0.292   2.378  2.0340  0.7425  1.3460
10109TIP3   OH254521   0.328   6.126   0.881  0.2730 -0.3598 -0.1828
10109TIP3    H154522   0.261   6.127   0.949  1.0528 -1.3058  0.6438
10109TIP3    H254523   0.350   6.218   0.867 -0.7033 -0.0834  0.0155
10110TIP3   OH254524   3.818   2.667   1.029  0.4660  0.1580  0.3685
10110TIP3    H154525   3.797   2.759   1.043  0.5753  0.0315  1.4698
10110TIP3    H254526   3.745   2.633   0.978 -1.6091 -0.0169  3.1696
10111TIP3   OH254527   2.013   1.695   0.720 -0.3554  0.0082 -0.1470
10111TIP3    H154528   2.097   1.653   0.703 -1.0025 -1.1329 -0.6304
10111TIP3    H254529   2.014   1.713   0.814 -0.5119 -2.1727  0.3159
10112TIP3   OH254530   3.987   2.002   0.764  0.0301  0.1809 -0.6575
10112TIP3    H154531   3.948   2.081   0.800  1.2985  1.3191 -1.6717
10112TIP3    H254532   3.963   2.004   0.671  1.2461  0.1615 -0.9974
10113TIP3   OH254533   3.809   5.757   2.084 -0.0447  0.0871 -0.4678
10113TIP3    H154534   3.717   5.780   2.067  0.1193  0.1678 -1.2539
10113TIP3    H254535   3.857   5.791   2.009  0.4829 -0.9299 -0.6124
10114TIP3   OH254536   4.955   6.452   1.069 -0.3676  0.6516 -0.1503
10114TIP3    H154537   4.976   6.469   0.977 -0.3014  0.0916 -0.2439
10114TIP3    H254538   4.912   6.531   1.099 -3.2517 -0.2507 -1.5207
10115TIP3   OH254539   3.057   4.147   3.815  0.0338 -0.4142  0.0442
10115TIP3    H154540   3.055   4.147   3.720  2.4137  2.5402 -0.1495
10115TIP3    H254541   3.142   4.110   3.838  0.9715  2.0660  0.7977
10116TIP3   OH254542   1.623   2.674   2.087 -0.0253  0.5445 -0.5079
10116TIP3    H154543   1.556   2.742   2.088 -0.2396  0.3335 -0.4777
10116TIP3    H254544   1.651   2.666   2.179  0.1341  0.7219 -0.5401
10117TIP3   OH254545   5.106   0.443   0.368  0.1315  0.4630  0.2685
10117TIP3    H154546   5.144   0.405   0.447 -1.6187 -2.1465 -0.0131
10117TIP3    H254547   5.032   0.495   0.399 -0.9641 -1.0927  0.4136
10118TIP3   OH254548   0.870   0.471   1.112  0.2747  0.3764  0.4217
10118TIP3    H154549   0.964   0.489   1.108  0.6508 -0.5485  3.2704
10118TIP3    H254550   0.863   0.378   1.090  0.4016 -0.2494  2.8145
10119TIP3   OH254551   0.405   4.157   1.285  0.2041 -0.2287 -0.1442
10119TIP3    H154552   0.368   4.231   1.237  0.4376  0.9257  1.3654
10119TIP3    H254553   0.496   4.183   1.302  1.0111 -1.9020 -1.5889
10120TIP3   OH254554   6.329   1.472   1.919  0.1753 -0.4467  0.4260
10120TIP3    H154555   6.302   1.486   1.829  1.9664  0.1247 -0.0598
10120TIP3    H254556   6.271   1.402   1.951 -0.8609 -0.2562 -0.9514
10121TIP3   OH254557   1.575   4.646   3.859 -0.0508 -0.7761  0.2270
10121TIP3    H154558   1.485   4.618   3.879 -0.4491  0.0407 -0.3589
10121TIP3    H254559   1.589   4.722   3.916 -1.1948  1.5793 -2.4308
10122TIP3   OH254560   3.613   4.731   1.029 -0.0560  0.0099  0.9824
10122TIP3    H154561   3.631   4.737   0.935 -1.2184  2.1378  0.8352
10122TIP3    H254562   3.608   4.637   1.047 -1.4110 -0.4483 -1.4134
10123TIP3   OH254563   1.369   5.025   1.362  0.2615 -0.2762  0.6408
10123TIP3    H154564   1.330   4.997   1.444  0.7286  1.7752  1.6402
10123TIP3    H254565   1.323   4.975   1.295 -2.3079  0.1676  1.9362
10124TIP3   OH254566   1.614   5.794   3.731 -0.3912  0.0081  0.1858
10124TIP3    H154567   1.539   5.801   3.672 -0.8374  0.3567  0.7827
10124TIP3    H254568   1.584   5.737   3.801 -0.3594  0.7390  0.8075
10125TIP3   OH254569   4.664   4.737   2.927  0.1011  0.5819 -0.0528
10125TIP3    H154570   4.604   4.669   2.897 -0.9707  0.9746  1.1289
10125TIP3    H254571   4.630   4.764   3.012  2.3256  0.3665  0.9779
10126TIP3   OH254572   2.485   2.577   1.535  0.3364  0.3718  0.2626
10126TIP3    H154573   2.562   2.600   1.587 -0.1712  2.2898  0.2643
10126TIP3    H254574   2.519   2.536   1.456  1.1214 -3.2354  2.2711
10127TIP3   OH254575   1.585   0.609   3.341 -0.0856  0.4649 -0.2640
10127TIP3    H154576   1.638   0.581   3.266 -2.3484 -0.2905 -1.6771
10127TIP3    H254577   1.623   0.692   3.368  2.2108 -0.3599 -0.7308
10128TIP3   OH254578   4.128   3.088   2.596  0.0981  0.4108  0.0487
10128TIP3    H154579   4.087   3.174   2.582 -0.8592  0.0483  0.5301
10128TIP3    H254580   4.077   3.028   2.541 -0.1944 -0.0859  0.8389
10129TIP3   OH254581   4.294   3.353   0.804 -0.0769 -0.2965 -0.2332
10129TIP3    H154582   4.329   3.407   0.733  0.6768 -0.5216 -0.0439
10129TIP3    H254583   4.294   3.264   0.769  1.1008 -0.5318  0.3306
10130TIP3   OH254584   5.240   6.122   1.024  0.0201  0.1906 -0.2339
10130TIP3    H154585   5.182   6.146   0.953 -1.4468  0.5954  1.0449
10130TIP3    H254586   5.181   6.097   1.096  1.4430 -1.5941  0.3894
10131TIP3   OH254587   6.285   4.997   3.628 -0.4340 -0.3338  0.5763
10131TIP3    H154588   6.372   4.977   3.663 -0.6573 -3.0284 -0.1498
10131TIP3    H254589   6.234   5.024   3.705  1.2221  2.3107  0.8646
10132TIP3   OH254590   3.930   1.940   1.133 -0.2699 -0.4111 -0.7149
10132TIP3    H154591   4.012   1.891   1.134  1.1940  1.8772 -1.2875
10132TIP3    H254592   3.862   1.872   1.130  1.5623 -2.3900 -0.2071
10133TIP3   OH254593   1.898   2.171   2.065 -0.5449  0.9975 -1.1173
10133TIP3    H154594   1.967   2.234   2.046  1.2597 -0.1202  1.1670
10133TIP3    H254595   1.926   2.091   2.021 -0.0647  0.4119  0.1838
10134TIP3   OH254596   2.909   5.443   0.616  0.1526 -0.1103  0.0126
10134TIP3    H154597   2.844   5.378   0.639  0.4331 -0.9156 -1.3538
10134TIP3    H254598   2.859   5.515   0.578 -0.1089  0.2476  1.0091
10135TIP3   OH254599   4.940   3.086   1.033  0.0164  0.2280 -0.2255
10135TIP3    H154600   4.904   3.159   0.983  0.2839 -0.0288 -0.7934
10135TIP3    H254601   4.954   3.017   0.969  1.3649  0.2584  0.0138
10136TIP3   OH254602   0.640   0.278   2.627  0.2862  0.0581 -0.0466
10136TIP3    H154603   0.646   0.228   2.708  0.6691 -1.0214 -0.7176
10136TIP3    H254604   0.575   0.232   2.575  1.3587 -0.3424 -1.0727
10137TIP3   OH254605   1.071   5.185   3.714  0.4480  0.2756 -0.2789
10137TIP3    H154606   1.132   5.246   3.755  1.0387 -1.5596  1.7606
10137TIP3    H254607   1.008   5.165   3.783  0.6374 -1.8631 -0.6566
10138TIP3   OH254608   6.421   4.182   1.522 -0.2552 -0.3258 -0.1750
10138TIP3    H154609   6.500   4.178   1.576 -1.8060 -1.4034  2.1764
10138TIP3    H254610   6.413   4.275   1.498  1.5009 -0.1470 -0.2015
10139TIP3   OH254611   2.951   3.214   3.578  0.5816 -0.0171  0.2611
10139TIP3    H154612   3.018   3.227   3.510  1.4462  0.2814  1.1417
10139TIP3    H254613   2.939   3.119   3.582  0.6911 -0.0487 -0.1546
10140TIP3   OH254614   2.113   5.369   2.603 -0.0690  0.4949  0.6037
10140TIP3    H154615   2.095   5.279   2.575 -2.8655  0.8320  1.1047
10140TIP3    H254616   2.068   5.424   2.540  1.5490  1.6126  0.3523
10141TIP3   OH254617   5.462   1.748   1.910  0.0281  0.3304  0.1684
10141TIP3    H154618   5.413   1.741   1.992  2.1606  1.1863  1.6257
10141TIP3    H254619   5.449   1.839   1.883 -1.3721 -0.1741 -0.9763
10142TIP3   OH254620   5.892   5.614   0.739 -0.0002  0.7893 -0.3808
10142TIP3    H154621   5.947   5.545   0.702  0.8943  1.2812  0.0021
10142TIP3    H254622   5.878   5.586   0.830 -2.0676 -0.3413 -0.9752
10143TIP3   OH254623   1.875   0.776   3.081 -0.2204 -0.0448  0.2966
10143TIP3    H154624   1.848   0.690   3.114  0.7438 -1.1100 -1.5592
10143TIP3    H254625   1.793   0.822   3.066 -0.7482 -0.4985  1.5926
10144TIP3   OH254626   5.641   4.721   1.938  0.9506  0.0140 -0.4275
10144TIP3    H154627   5.688   4.800   1.911  0.6208  0.4363  0.1861
10144TIP3    H254628   5.637   4.728   2.034 -0.7192  0.2306 -0.4783
10145TIP3   OH254629   4.825   1.315   1.945  0.5251  0.1332  0.4059
10145TIP3    H154630   4.858   1.395   1.985  1.0868  1.0155 -1.6808
10145TIP3    H254631   4.737   1.338   1.915 -0.2685 -0.8092  1.9114
10146TIP3   OH254632   3.995   2.310   1.665  0.3210  0.0907  0.0297
10146TIP3    H154633   3.915   2.302   1.718 -1.0170  1.1967 -1.6992
10146TIP3    H254634   3.995   2.401   1.635  1.0054 -0.4825 -1.8388
10147TIP3   OH254635   4.923   5.011   2.725  0.4232 -0.5126 -0.0574
10147TIP3    H154636   5.014   4.987   2.705  0.1717 -1.4731 -0.0953
10147TIP3    H254637   4.880   5.013   2.639  0.4371  0.1269 -0.0590
10148TIP3   OH254638   1.119   0.555   1.004 -0.5058  0.0297 -0.4911
10148TIP3    H154639   1.058   0.602   0.946 -2.3792 -0.1217  1.2604
10148TIP3    H254640   1.163   0.624   1.053 -0.1309  0.1010 -0.9264
10149TIP3   OH254641   5.388   0.635   2.627  0.3343 -0.2134  0.1628
10149TIP3    H154642   5.301   0.670   2.648 -0.3281 -0.9424 -1.1927
10149TIP3    H254643   5.377   0.540   2.633  0.4818 -0.3991 -1.8357
10150TIP3   OH254644   4.129   5.631   4.108 -0.3847 -0.8468 -0.3009
10150TIP3    H154645   4.146   5.724   4.096 -0.1378 -0.6531  1.2354
10150TIP3    H254646   4.212   5.596   4.142 -0.8397 -1.3636  0.3090
10151TIP3   OH254647   1.242   6.125   2.556 -0.1116  0.1665 -0.8276
10151TIP3    H154648   1.196   6.208   2.571  0.6173  0.3963  0.2795
10151TIP3    H254649   1.327   6.138   2.598 -0.8168 -1.9541  1.4569
10152TIP3   OH254650   0.701   3.825   1.783 -0.1315 -0.0046 -0.2306
10152TIP3    H154651   0.656   3.885   1.724  0.2446  2.0467  1.4512
10152TIP3    H254652   0.708   3.743   1.733 -1.1789  1.1418 -2.4043
10153TIP3   OH254653   3.781   0.287   1.750  0.4132  0.4613  0.5982
10153TIP3    H154654   3.875   0.303   1.759  0.4288  0.8239 -0.1222
10153TIP3    H254655   3.761   0.314   1.660 -0.2604 -0.1947  0.5417
10154TIP3   OH254656   2.340   2.516   3.689 -0.1938 -0.2599 -0.3104
10154TIP3    H154657   2.364   2.448   3.752  1.4230 -0.2218 -0.8539
10154TIP3    H254658   2.252   2.542   3.716 -0.1507 -1.3126  0.9955
10155TIP3   OH254659   1.966   5.511   3.061  0.3230 -0.5058 -0.0473
10155TIP3    H154660   1.874   5.495   3.040 -0.7867  4.0734  0.3945
10155TIP3    H254661   2.012   5.501   2.977 -1.4062  1.5401 -1.3397
10156TIP3   OH254662   3.760   1.172   2.855 -0.0182 -0.1811 -0.4737
10156TIP3    H154663   3.838   1.137   2.812 -0.0863 -0.6795 -0.1898
10156TIP3    H254664   3.788   1.257   2.889  0.1444  0.0463 -1.1651
10157TIP3   OH254665   6.046   2.768   2.821  0.1493 -0.0137  0.0013
10157TIP3    H154666   5.994   2.726   2.889 -3.1152  1.7727 -1.2018
10157TIP3    H254667   6.051   2.702   2.751  1.2200 -0.8735  0.8522
10158TIP3   OH254668   6.176   4.713   2.899  0.5272 -0.0045  0.1005
10158TIP3    H154669   6.170   4.778   2.829  0.5229  0.8134  0.8417
10158TIP3    H254670   6.262   4.729   2.938  0.3541 -0.1576  0.5517
10159TIP3   OH254671   4.305   3.408   1.456 -0.3906  0.6976 -0.1690
10159TIP3    H154672   4.361   3.477   1.492 -1.3579  0.8824  1.0106
10159TIP3    H254673   4.318   3.334   1.515 -0.2118  0.2215 -0.7956
10160TIP3   OH254674   5.263   0.220   3.926  0.0506 -0.0394  0.2201
10160TIP3    H154675   5.314   0.174   3.993  1.1724  0.7363 -0.0837
10160TIP3    H254676   5.321   0.224   3.850 -0.0173  1.8460  0.2234
10161TIP3   OH254677   5.573   6.329   2.935  0.8294  0.3211 -0.2363
10161TIP3    H154678   5.519   6.370   2.867 -3.3362  0.2410  2.5995
10161TIP3    H254679   5.540   6.240   2.941  0.0494  0.6958  2.6123
10162TIP3   OH254680   0.940   3.722   0.605 -0.6311  0.9109 -0.1444
10162TIP3    H154681   0.891   3.745   0.526  2.1772  1.2079 -1.9128
10162TIP3    H254682   1.017   3.778   0.603  1.2617 -1.4668  0.9352
10163TIP3   OH254683   4.647   4.414   1.887 -0.4862  0.0431  0.4515
10163TIP3    H154684   4.585   4.359   1.935 -0.9512  0.1675  0.0060
10163TIP3    H254685   4.698   4.352   1.835 -1.2207  0.0452 -0.2892
10164TIP3   OH254686   6.133   2.486   2.064  0.5129 -0.1040 -0.4721
10164TIP3    H154687   6.090   2.405   2.035  1.1788 -0.8979  0.6463
10164TIP3    H254688   6.221   2.481   2.027 -0.4965  1.8913 -3.4055
10165TIP3   OH254689   6.607   5.972   2.846 -0.0268 -0.2935 -0.0370
10165TIP3    H154690   6.535   5.983   2.907 -0.4298  0.3036 -0.6038
10165TIP3    H254691   6.610   6.055   2.798  1.5917  0.0319  0.5685
10166TIP3   OH254692   5.299   3.232   1.324  0.4090  0.0248  0.0481
10166TIP3    H154693   5.246   3.153   1.325 -0.4135  0.5695  1.1680
10166TIP3    H254694   5.318   3.247   1.231 -2.0998  0.2884 -0.4721
10167TIP3   OH254695   3.639   2.891   0.816 -0.2818  0.1449 -0.2150
10167TIP3    H154696   3.691   2.907   0.895 -2.7682 -1.1858  1.8585
10167TIP3    H254697   3.673   2.809   0.782  0.1363  0.1921  0.0754
10168TIP3   OH254698   3.978   3.099   0.529 -0.1246  0.3915 -0.0672
10168TIP3    H154699   3.954   3.037   0.460 -1.0171  0.2489  0.3559
10168TIP3    H254700   3.902   3.100   0.588 -0.4361  2.4437 -0.4500
10169TIP3   OH254701   6.090   0.737   1.210 -0.0251 -0.6097 -0.4986
10169TIP3    H154702   6.131   0.739   1.296 -0.0510  0.6064 -0.4882
10169TIP3    H254703   5.996   0.739   1.228 -0.0281  1.1511 -0.5335
10170TIP3   OH254704   6.355   2.631   2.940  0.1388 -0.1247 -0.0210
10170TIP3    H154705   6.324   2.717   2.968  1.6106  0.4778 -0.1732
10170TIP3    H254706   6.450   2.640   2.936  0.1733 -0.9853 -2.6295
10171TIP3   OH254707   1.715   4.334   2.551  0.0874  0.5142 -0.5320
10171TIP3    H154708   1.774   4.282   2.497  1.1600  1.6441 -0.5047
10171TIP3    H254709   1.773   4.393   2.600 -0.8955  0.0143  1.3376
10172TIP3   OH254710   2.062   1.593   1.586  0.3231 -0.0032 -0.0601
10172TIP3    H154711   2.144   1.547   1.603  0.1184 -1.2639 -2.1304
10172TIP3    H254712   1.998   1.551   1.643  0.9905  0.7227  1.2744
10173TIP3   OH254713   1.360   5.650   0.945 -0.4004  0.1937  0.1175
10173TIP3    H154714   1.442   5.640   0.993  0.0909 -1.1995 -0.9442
10173TIP3    H254715   1.371   5.731   0.895  0.1514  0.2516  0.3263
10174TIP3   OH254716   3.562   5.664   1.614 -0.2272  0.0265 -0.5445
10174TIP3    H154717   3.623   5.656   1.541  0.8458  0.4028  0.2686
10174TIP3    H254718   3.479   5.690   1.574 -0.4400 -2.4266 -1.8945
10175TIP3   OH254719   4.456   0.246   2.601 -0.2035  0.0011  0.8897
10175TIP3    H154720   4.373   0.288   2.622  0.2506  2.2173 -1.3320
10175TIP3    H254721   4.431   0.165   2.556 -1.1589  0.4161  0.6536
10176TIP3   OH254722   0.675   4.677   1.736  0.5597  0.2108 -0.5138
10176TIP3    H154723   0.770   4.672   1.742  0.6076  1.8194  1.1031
10176TIP3    H254724   0.657   4.769   1.714 -0.6276  0.8327  2.5714
10177TIP3   OH254725   2.769   5.266   2.727 -0.2542 -0.0401 -0.1519
10177TIP3    H154726   2.700   5.256   2.661 -0.8579 -0.5346  0.5489
10177TIP3    H254727   2.850   5.255   2.678 -0.7088 -0.9639 -0.7240
10178TIP3   OH254728   4.045   3.658   3.145  0.0057  0.7434  0.2483
10178TIP3    H154729   4.066   3.732   3.087  1.7707  1.5195  1.7767
10178TIP3    H254730   4.123   3.604   3.144 -0.6956 -0.2930  0.3817
10179TIP3   OH254731   4.379   1.213   3.881  0.1969  0.0378  0.0989
10179TIP3    H154732   4.403   1.180   3.794 -1.9431 -0.0417 -0.5115
10179TIP3    H254733   4.405   1.143   3.941  0.0809 -0.6996 -0.6792
10180TIP3   OH254734   0.890   4.922   0.709 -0.1000 -0.5066 -0.3018
10180TIP3    H154735   0.868   5.004   0.664 -0.3806  0.1036  0.8903
10180TIP3    H254736   0.983   4.929   0.728 -0.4063  0.2228  1.0761
10181TIP3   OH254737   2.500   1.745   0.510 -0.1197  0.0820  0.0253
10181TIP3    H154738   2.528   1.655   0.529  0.6406  0.3482  0.1761
10181TIP3    H254739   2.429   1.735   0.446  0.1463 -0.6063 -0.1686
10182TIP3   OH254740   0.842   3.334   0.918  0.6399 -0.2199  0.3736
10182TIP3    H154741   0.926   3.292   0.939  0.9690  1.5495  3.0255
10182TIP3    H254742   0.864   3.399   0.851  1.3748  0.0639  0.8719
10183TIP3   OH254743   6.547   0.202   1.012 -0.1911 -0.8278  0.3235
10183TIP3    H154744   6.559   0.264   1.084  1.7723  0.0958 -0.7232
10183TIP3    H254745   6.600   0.238   0.941 -4.3511  0.0089 -2.7374
10184TIP3   OH254746   5.455   3.978   2.612 -0.0673  0.1619  0.0754
10184TIP3    H154747   5.515   4.047   2.584 -1.1418  1.5679  1.0416
10184TIP3    H254748   5.386   4.025   2.659 -1.5639 -1.4502 -0.4134
10185TIP3   OH254749   3.496   1.090   2.065 -0.1252  0.8069  0.2007
10185TIP3    H154750   3.457   1.177   2.067 -1.4550  0.2944 -0.9049
10185TIP3    H254751   3.589   1.105   2.048 -0.5411  1.9963 -1.2582
10186TIP3   OH254752   1.767   0.313   2.894 -0.0890  0.7742  0.2200
10186TIP3    H154753   1.849   0.321   2.942  0.1155  0.4600 -0.0714
10186TIP3    H254754   1.704   0.279   2.958  0.8596 -2.4701 -0.3778
10187TIP3   OH254755   6.143   2.809   1.341  0.4424  0.0367 -0.2274
10187TIP3    H154756   6.191   2.729   1.361  1.1101  0.8682  1.8426
10187TIP3    H254757   6.207   2.865   1.297  0.9056  0.4683  0.9296
10188TIP3   OH254758   2.574   3.012   1.559 -0.0531 -0.4377  0.2876
10188TIP3    H154759   2.626   2.939   1.526  1.3554  0.3770  0.6194
10188TIP3    H254760   2.510   2.971   1.618  1.1380 -1.3602  0.9866
10189TIP3   OH254761   0.209   6.383   2.654 -0.0339 -0.0806  0.2777
10189TIP3    H154762   0.236   6.320   2.720  1.6092  0.5892  0.2857
10189TIP3    H254763   0.203   6.332   2.573 -0.4937 -0.5814  0.6163
10190TIP3   OH254764   4.920   5.940   1.894 -0.0607 -0.3057 -0.5342
10190TIP3    H154765   4.847   6.000   1.876  0.7751  1.7426  2.0777
10190TIP3    H254766   4.879   5.855   1.909 -2.0279  0.8338  1.0662
10191TIP3   OH254767   4.189   6.382   2.658 -0.5857 -0.0724 -0.3560
10191TIP3    H154768   4.259   6.330   2.698 -2.0332 -0.4036  1.9137
10191TIP3    H254769   4.138   6.319   2.607  0.0666 -0.0382 -1.0747
10192TIP3   OH254770   0.874   0.527   2.795 -0.1131 -0.2435 -0.1049
10192TIP3    H154771   0.907   0.459   2.736 -1.0846 -0.9667  0.1560
10192TIP3    H254772   0.947   0.588   2.805 -0.3532  0.6805 -3.1670
10193TIP3   OH254773   0.747   3.926   1.408  0.1031  0.0870 -0.5129
10193TIP3    H154774   0.716   3.994   1.468 -0.1927  0.8709 -1.5329
10193TIP3    H254775   0.819   3.884   1.455  0.6960  1.5150 -0.1197
10194TIP3   OH254776   6.146   2.695   0.900 -0.0566  0.2477 -0.5590
10194TIP3    H154777   6.119   2.750   0.826 -0.2168  2.2983  0.9280
10194TIP3    H254778   6.065   2.681   0.950  0.0244 -1.2336 -0.7805
10195TIP3   OH254779   0.032   4.897   2.787  0.8756  0.2705 -0.3615
10195TIP3    H154780  -0.004   4.887   2.699 -0.9562 -1.9905  0.5158
10195TIP3    H254781  -0.044   4.890   2.845  1.9838  1.9539  1.4363
10196TIP3   OH254782   3.325   4.396   3.725  0.3889  0.4905  0.3265
10196TIP3    H154783   3.327   4.305   3.756  2.6227  0.3919  0.0732
10196TIP3    H254784   3.262   4.395   3.653  0.4777 -0.8933  0.2400
10197TIP3   OH254785   1.025   0.686   2.092  0.8990  0.8487 -0.4689
10197TIP3    H154786   1.069   0.691   2.177  0.8894 -0.0717 -0.3995
10197TIP3    H254787   0.993   0.774   2.077  0.8514  1.0155  0.5125
10198TIP3   OH254788   6.021   0.406   3.246  0.4012 -0.1392  0.1784
10198TIP3    H154789   5.981   0.319   3.241  1.1481 -0.5457  1.0866
10198TIP3    H254790   6.095   0.401   3.186  0.1485  0.0470 -0.1561
10199TIP3   OH254791   3.916   2.931   2.106 -0.1574  0.3631 -0.5469
10199TIP3    H154792   3.829   2.908   2.075 -0.0375  1.1934 -1.5643
10199TIP3    H254793   3.966   2.947   2.026  1.2298 -1.0877 -0.0323
10200TIP3   OH254794   0.354   2.571   2.103 -0.4492 -0.1289  0.0899
10200TIP3    H154795   0.327   2.561   2.011  1.0461  0.7033 -0.4768
10200TIP3    H254796   0.274   2.561   2.153 -1.4349  0.2148 -1.3689
10201TIP3   OH254797   1.066   1.991   0.565  0.5701 -0.4611  0.1059
10201TIP3    H154798   1.123   2.011   0.639  0.9778  0.0171 -0.3324
10201TIP3    H254799   1.119   1.937   0.506  0.2322 -0.8809  0.1738
10202TIP3   OH254800   4.249   2.433   3.386  0.0567  0.6175 -0.0271
10202TIP3    H154801   4.240   2.454   3.479  1.1138 -1.7518  0.7058
10202TIP3    H254802   4.168   2.386   3.365  0.5232 -0.3290  0.2069
10203TIP3   OH254803   0.786   2.784   0.625  0.3179  0.2860 -0.1220
10203TIP3    H154804   0.695   2.783   0.652  0.4030 -0.4904  0.1490
10203TIP3    H254805   0.810   2.877   0.626 -0.7811  0.6084 -1.2820
10204TIP3   OH254806   5.075   0.507   2.566  0.3770 -0.1735  0.2080
10204TIP3    H154807   5.070   0.597   2.597  0.1944 -0.2936  0.5315
10204TIP3    H254808   5.026   0.507   2.484 -0.3524 -0.1654  0.6377
10205TIP3   OH254809   1.703   0.610   2.236  0.5126  0.0581 -0.8421
10205TIP3    H154810   1.698   0.603   2.331  0.6498 -0.1324 -0.8497
10205TIP3    H254811   1.633   0.672   2.213  1.0440  0.7801 -0.5370
10206TIP3   OH254812   2.587   5.655   2.959 -0.5969  0.2622 -0.2511
10206TIP3    H154813   2.523   5.697   2.903  1.5651  3.0110 -0.9159
10206TIP3    H254814   2.658   5.629   2.899 -0.4780 -1.4970  0.5995
10207TIP3   OH254815   6.371   0.092   2.010  0.8317  0.2993  0.6269
10207TIP3    H154816   6.319   0.056   2.082  1.7511 -0.1429  1.0822
10207TIP3    H254817   6.305   0.124   1.947 -0.0027 -0.9453  0.8226
10208TIP3   OH254818   1.096   3.806   2.513  0.0638 -0.5213 -0.1081
10208TIP3    H154819   1.103   3.715   2.486 -0.6255 -0.5817 -0.0754
10208TIP3    H254820   1.072   3.803   2.605 -1.0279 -0.3120 -0.3735
10209TIP3   OH254821   0.363   5.958   2.505  0.7425  0.1302  0.2055
10209TIP3    H154822   0.289   6.019   2.496  0.6397 -0.0440 -0.1492
10209TIP3    H254823   0.396   5.974   2.593 -1.0405 -1.2386  1.1956
10210TIP3   OH254824   0.020   5.991   5.081  0.2654  0.0656  0.0023
10210TIP3    H154825  -0.046   6.053   5.113  1.1035  0.4760  1.0429
10210TIP3    H254826  -0.029   5.914   5.055 -1.0776  1.8889 -3.4861
10211TIP3   OH254827   1.570   5.078   2.562  0.3983 -0.2520 -0.7330
10211TIP3    H154828   1.477   5.059   2.554  0.1651 -0.6066  2.0189
10211TIP3    H254829   1.581   5.163   2.520 -1.0275 -0.4838 -1.6341
10212TIP3   OH254830   1.781   1.899   2.056 -0.0315  0.2494  0.1606
10212TIP3    H154831   1.772   1.883   1.962  1.1573 -1.8045  0.3123
10212TIP3    H254832   1.692   1.896   2.090 -0.3323 -0.9192 -0.6671
10213TIP3   OH254833   4.295   5.828   1.810 -0.4010 -0.6232 -0.2639
10213TIP3    H154834   4.334   5.743   1.834  2.3407  0.8970  1.2330
10213TIP3    H254835   4.209   5.828   1.852  0.4409 -1.8478  1.6078
10214TIP3   OH254836   1.500   3.418   1.087  0.3175 -0.3438  0.4295
10214TIP3    H154837   1.566   3.486   1.098 -0.3805  0.0717  2.3794
10214TIP3    H254838   1.534   3.364   1.015  3.4317 -0.8863  2.1002
10215TIP3   OH254839   2.889   0.411   3.346  0.0323 -0.4745  0.2446
10215TIP3    H154840   2.935   0.451   3.272 -0.1811 -0.0759  0.3215
10215TIP3    H254841   2.844   0.485   3.388 -1.3189 -0.9743 -0.2954
10216TIP3   OH254842   4.532   3.506   2.490 -0.4986  0.0228  0.3031
10216TIP3    H154843   4.438   3.508   2.470 -0.4964 -2.2558 -0.1767
10216TIP3    H254844   4.575   3.505   2.404 -0.1220 -0.7603  0.4909
10217TIP3   OH254845   1.427   2.627   0.869 -0.2524 -0.2041  0.0560
10217TIP3    H154846   1.407   2.647   0.778  2.1306  0.7782 -0.3088
10217TIP3    H254847   1.485   2.697   0.898 -0.1698 -1.0109  2.0586
10218TIP3   OH254848   6.534   2.271   2.087  0.4606  0.7101 -0.5810
10218TIP3    H154849   6.594   2.306   2.153  2.3435 -0.6624 -1.4697
10218TIP3    H254850   6.587   2.264   2.008 -0.6263 -1.3833 -1.1920
10219TIP3   OH254851   0.826   0.456   2.490  0.6146  0.4914 -0.3188
10219TIP3    H154852   0.829   0.422   2.401  2.1059 -1.5367  0.4427
10219TIP3    H254853   0.770   0.394   2.537  2.5924 -0.4632  0.8859
10220TIP3   OH254854   2.711   2.624   1.700 -0.3819  0.3403 -0.4397
10220TIP3    H154855   2.707   2.551   1.761  1.9514 -0.7650 -1.4766
10220TIP3    H254856   2.714   2.702   1.756  2.2857 -0.6618  0.9709
10221TIP3   OH254857   2.162   0.301   3.027  0.0884  0.7955  0.0388
10221TIP3    H154858   2.222   0.282   3.099  0.0593 -2.8767 -0.7195
10221TIP3    H254859   2.218   0.307   2.950 -0.2768 -2.5114 -0.6492
10222TIP3   OH254860   5.004   1.672   4.328  0.2096  0.4757  0.0205
10222TIP3    H154861   4.960   1.587   4.329  2.2811 -0.7065 -1.5571
10222TIP3    H254862   4.963   1.719   4.255  1.0427 -0.3720 -1.0337
10223TIP3   OH254863   2.398   1.370   1.961 -0.3439 -0.3606 -0.4309
10223TIP3    H154864   2.404   1.280   1.994 -2.3182 -1.1314 -1.8908
10223TIP3    H254865   2.418   1.362   1.868  0.9640  1.0210 -0.3079
10224TIP3   OH254866   2.387   5.806   2.838 -0.0714 -0.1492  0.0940
10224TIP3    H154867   2.369   5.834   2.748  0.4425 -0.5268 -0.1308
10224TIP3    H254868   2.306   5.824   2.885 -0.3771 -0.0338 -0.4624
10225TIP3   OH254869   1.450   1.532   3.725  0.2291 -0.1360 -0.0526
10225TIP3    H154870   1.464   1.439   3.744  0.1689 -0.2672 -0.6146
10225TIP3    H254871   1.491   1.578   3.798  2.3267 -0.5456 -0.8792
10226TIP3   OH254872   5.517   2.263   2.691  0.7440  0.3729  0.3483
10226TIP3    H154873   5.511   2.271   2.596  0.5007  0.6170  0.3795
10226TIP3    H254874   5.570   2.185   2.706 -1.0944 -1.0135  0.0098
10227TIP3   OH254875   0.455   5.829   2.266 -0.4186  0.0601  0.1393
10227TIP3    H154876   0.422   5.862   2.350  1.4498 -1.4085  1.5652
10227TIP3    H254877   0.537   5.876   2.252  1.4596 -2.5709  1.3996
10228TIP3   OH254878   1.081   4.102   3.971  0.0816  0.3373  0.4751
10228TIP3    H154879   0.994   4.095   4.009 -0.5629 -0.0436 -0.9830
10228TIP3    H254880   1.086   4.192   3.939 -0.1229  0.1164 -0.1982
10229TIP3   OH254881   3.568   6.112   0.760 -0.3651 -0.1522  0.2732
10229TIP3    H154882   3.513   6.185   0.789  0.3842  0.1855  0.8668
10229TIP3    H254883   3.505   6.043   0.738 -1.0193 -0.1582  1.9688
10230TIP3   OH254884   0.255   5.498   1.729  0.3003  0.1907  0.2432
10230TIP3    H154885   0.276   5.467   1.641 -0.8332  2.5366 -0.9383
10230TIP3    H254886   0.310   5.575   1.741 -0.2156  0.4158  1.2335
10231TIP3   OH254887   4.777   3.173   0.709  0.4044  0.1628  0.2659
10231TIP3    H154888   4.801   3.081   0.726  1.3097  0.4576  0.6473
10231TIP3    H254889   4.823   3.222   0.776  0.6835  0.9871 -0.5084
10232TIP3   OH254890   3.445   3.421   2.510 -0.8374  0.1542  0.1093
10232TIP3    H154891   3.421   3.342   2.461 -0.5671 -0.0558  0.3084
10232TIP3    H254892   3.454   3.489   2.444 -0.1177 -0.2062 -0.1830
10233TIP3   OH254893   1.209   0.858   3.635 -0.4407  0.0111 -0.2009
10233TIP3    H154894   1.125   0.902   3.646 -0.5395 -0.1991 -0.0976
10233TIP3    H254895   1.186   0.766   3.623 -0.3312  0.1885 -2.0157
10234TIP3   OH254896   4.570   1.550   2.192  0.0392  0.0842  0.6414
10234TIP3    H154897   4.479   1.529   2.214  0.0448 -0.4839  0.1473
10234TIP3    H254898   4.574   1.543   2.097  0.2591  1.5272  0.5189
10235TIP3   OH254899   5.652   1.766   2.273  0.3438 -0.0163  0.9379
10235TIP3    H154900   5.619   1.690   2.321  0.1083 -0.3096  0.3173
10235TIP3    H254901   5.732   1.736   2.231  0.6915  0.3171  1.3540
10236TIP3   OH254902   5.007   3.514   4.250 -0.4989 -0.1629  0.2084
10236TIP3    H154903   5.026   3.424   4.221 -3.1671 -1.0563  0.9844
10236TIP3    H254904   4.956   3.552   4.179 -1.2675 -0.0450  0.8093
10237TIP3   OH254905   4.443   2.487   1.462  0.1917  0.1135  0.8622
10237TIP3    H154906   4.475   2.448   1.543 -0.5417 -1.6824  0.3484
10237TIP3    H254907   4.407   2.413   1.413 -1.6222  1.5157 -0.0371
10238TIP3   OH254908   4.069   2.109   2.006 -0.1557 -0.1218 -0.3954
10238TIP3    H154909   4.105   2.024   1.981  1.3534 -0.5595  2.7432
10238TIP3    H254910   4.146   2.167   2.011 -1.1022  1.3749 -2.0145
10239TIP3   OH254911   2.501   0.635   2.827  0.6059 -0.5410  0.3566
10239TIP3    H154912   2.439   0.589   2.884  0.4244 -0.1661  0.4633
10239TIP3    H254913   2.487   0.596   2.740  1.3138 -1.5420  0.6754
10240TIP3   OH254914   1.547   0.080   1.171  0.0361  0.2554  0.0373
10240TIP3    H154915   1.502  -0.001   1.194 -0.8422  0.6024 -0.4196
10240TIP3    H254916   1.541   0.084   1.076 -1.2166  1.5677  0.1420
10241TIP3   OH254917   1.644   4.194   3.939  0.1220 -0.4410  0.2725
10241TIP3    H154918   1.665   4.211   3.847  2.1563  1.4282  0.9922
10241TIP3    H254919   1.713   4.135   3.968  0.5267  0.3643  0.9934
10242TIP3   OH254920   3.362   5.288   2.032 -0.4941 -0.4642  0.6089
10242TIP3    H154921   3.325   5.207   1.996 -1.9240 -0.0817  1.1574
10242TIP3    H254922   3.307   5.307   2.108  0.1051  0.7993  0.7412
10243TIP3   OH254923   2.824   4.626   1.061 -0.7772 -0.4651  0.0356
10243TIP3    H154924   2.805   4.698   1.120  0.5236 -0.2721  0.2520
10243TIP3    H254925   2.855   4.555   1.118 -0.2199 -0.5318 -0.3383
10244TIP3   OH254926   4.546   3.814   2.547  0.1103 -0.8318  0.4710
10244TIP3    H154927   4.517   3.724   2.531  1.6529 -1.5356  1.3309
10244TIP3    H254928   4.485   3.868   2.497 -0.8215 -2.3503 -0.1294
10245TIP3   OH254929   1.808   4.936   3.885  0.2818 -0.1819  0.2175
10245TIP3    H154930   1.734   4.900   3.934  0.6008 -1.2083 -0.0264
10245TIP3    H254931   1.785   5.028   3.870 -1.9522 -0.9540 -1.7134
10246TIP3   OH254932   0.328   1.339   1.893  0.0617  0.3278 -0.0425
10246TIP3    H154933   0.280   1.296   1.963 -2.2776  0.3123 -1.5560
10246TIP3    H254934   0.398   1.277   1.871 -1.9730 -1.8962 -0.7802
10247TIP3   OH254935   6.615   2.944   3.544  0.2353 -0.3014 -0.6851
10247TIP3    H154936   6.600   3.032   3.510  0.1091 -0.4794 -1.0965
10247TIP3    H254937   6.604   2.887   3.469  2.5488 -0.5061 -0.9600
10248TIP3   OH254938   3.565   4.203   2.230 -0.0327 -0.1596  0.5315
10248TIP3    H154939   3.545   4.221   2.322  0.2763  0.1834  0.5330
10248TIP3    H254940   3.485   4.161   2.197 -0.0781 -0.4544  0.9985
10249TIP3   OH254941   2.183   4.280   0.492 -0.3629  0.1605  0.0996
10249TIP3    H154942   2.189   4.375   0.477 -0.4796  0.0542 -0.7084
10249TIP3    H254943   2.239   4.263   0.567  1.0136  0.6368 -0.7907
10250TIP3   OH254944   2.223   0.998   0.774  0.1979  0.4277  0.1706
10250TIP3    H154945   2.204   1.002   0.868 -0.5636  0.7463  0.0097
10250TIP3    H254946   2.140   0.974   0.733 -0.2306  2.9588 -0.6422
10251TIP3   OH254947   4.445   1.626   4.124 -0.0623 -0.0089  0.3213
10251TIP3    H154948   4.381   1.567   4.085  0.0218 -0.2712  0.5704
10251TIP3    H254949   4.472   1.581   4.204  1.1760 -0.3773 -0.2774
10252TIP3   OH254950   5.549   1.045   3.762  0.7645  0.0029  0.2508
10252TIP3    H154951   5.468   1.002   3.735  0.1492  1.5327 -0.4521
10252TIP3    H254952   5.533   1.069   3.854  0.1200  0.9120 -0.0817
10253TIP3   OH254953   6.045   5.383   0.705  0.0587  0.2967 -0.9540
10253TIP3    H154954   6.030   5.307   0.649 -0.2003 -0.4926  0.1484
10253TIP3    H254955   6.071   5.346   0.790 -2.5206  1.3028  0.4075
10254TIP3   OH254956   5.545   5.467   0.939 -0.3748  0.1842 -0.3706
10254TIP3    H154957   5.566   5.538   0.999  0.9727  0.4762 -1.1611
10254TIP3    H254958   5.454   5.445   0.959 -0.7969  2.0811 -0.0774
10255TIP3   OH254959   0.373   5.211   0.891 -0.0525 -0.0209  0.6868
10255TIP3    H154960   0.327   5.293   0.875 -1.9756 -0.3864  3.5855
10255TIP3    H254961   0.428   5.229   0.967  1.6160 -0.7370 -0.2956
10256TIP3   OH254962   5.658   5.560   1.493  0.2340 -0.4700 -0.0320
10256TIP3    H154963   5.588   5.610   1.451 -0.6092 -2.2284 -0.8244
10256TIP3    H254964   5.638   5.563   1.586  0.1743  0.6084 -0.0711
10257TIP3   OH254965   0.515   1.671   2.874  0.3054 -0.3451  0.3260
10257TIP3    H154966   0.556   1.659   2.960 -0.5980 -0.7203  0.7308
10257TIP3    H254967   0.576   1.725   2.824  0.2546  1.0162  1.6584
10258TIP3   OH254968   1.244   6.144   0.969  0.5253  0.3155 -0.0380
10258TIP3    H154969   1.211   6.094   1.044  1.7389  0.7228  0.8044
10258TIP3    H254970   1.224   6.235   0.990 -1.4157  0.2667 -1.4322
10259TIP3   OH254971   1.445   3.455   2.867  0.4103 -0.2537 -0.0191
10259TIP3    H154972   1.410   3.543   2.852  0.1837 -0.7351 -2.7567
10259TIP3    H254973   1.382   3.415   2.928  0.7210  1.5445  1.5755
10260TIP3   OH254974   3.951   4.684   1.179  0.0850 -0.0272  0.3570
10260TIP3    H154975   4.037   4.725   1.179  0.2938 -0.4588 -0.2828
10260TIP3    H254976   3.919   4.694   1.089 -0.2347 -0.4850  0.4168
10261TIP3   OH254977   1.779   4.165   1.318 -0.6827  0.2315 -0.5475
10261TIP3    H154978   1.793   4.205   1.233  0.8146 -0.1837 -0.5336
10261TIP3    H254979   1.805   4.073   1.306 -0.5642  0.1420  0.3105
10262TIP3   OH254980   1.258   3.280   3.032 -0.6691  0.5688 -0.2601
10262TIP3    H154981   1.340   3.231   3.024  0.3478  1.7906  1.9733
10262TIP3    H254982   1.199   3.220   3.077 -0.6927  0.0496 -0.9638
10263TIP3   OH254983   2.415   1.818   1.544  0.1051  0.7492  0.3849
10263TIP3    H154984   2.444   1.727   1.549 -0.0325  0.7183  0.6533
10263TIP3    H254985   2.457   1.852   1.465 -0.1879  0.3313  0.0448
10264TIP3   OH254986   3.047   5.778   1.764  0.2683 -0.3710  0.4485
10264TIP3    H154987   2.952   5.771   1.772  0.1795 -0.5293 -0.5512
10264TIP3    H254988   3.082   5.710   1.821 -0.2577 -1.1809 -0.1822
10265TIP3   OH254989   0.836   5.892   2.438 -0.6234  0.4456  0.1310
10265TIP3    H154990   0.844   5.865   2.530  1.1975  0.3004 -0.0407
10265TIP3    H254991   0.856   5.813   2.388  1.1512  1.1675 -0.3628
10266TIP3   OH254992   3.346   1.103   1.434 -0.3821  0.3805  0.0086
10266TIP3    H154993   3.321   1.011   1.424 -0.4690  0.4500 -0.4183
10266TIP3    H254994   3.315   1.145   1.354 -0.8994  0.9057  0.4849
10267TIP3   OH254995   3.856   6.599   1.531 -0.3225 -0.1656  0.2062
10267TIP3    H154996   3.830   6.523   1.479 -0.7437 -1.0362  1.6286
10267TIP3    H254997   3.882   6.664   1.466 -2.3783 -0.6022 -1.1738
10268TIP3   OH254998   1.894   4.654   2.313  0.1066 -0.2858 -0.5767
10268TIP3    H154999   1.928   4.714   2.246 -0.6205  0.3904 -0.3484
10268TIP3    H255000   1.815   4.696   2.346  0.5264 -0.5357  0.8223
10269TIP3   OH255001   1.907   5.554   1.107  0.3756 -0.4957  0.2383
10269TIP3    H155002   1.902   5.459   1.100  0.6407 -0.5729  0.9439
10269TIP3    H255003   1.855   5.574   1.186  0.1844 -0.0411 -0.0000
10270TIP3   OH255004   2.013   5.092   0.746  0.0113 -0.1305  0.0404
10270TIP3    H155005   1.963   5.011   0.738  2.8713 -1.9478 -0.8017
10270TIP3    H255006   1.981   5.132   0.826 -1.5822 -2.0284  0.4303
10271TIP3   OH255007   5.050   3.577   1.405  0.1616 -0.6744  0.0039
10271TIP3    H155008   5.103   3.533   1.472 -1.2480 -1.2967  0.7643
10271TIP3    H255009   5.016   3.507   1.350  0.9929 -0.1959 -1.1525
10272TIP3   OH255010   3.969   5.492   0.721 -0.1152 -0.0944  0.3673
10272TIP3    H155011   4.035   5.480   0.652 -0.6793  3.2379 -0.9633
10272TIP3    H255012   4.020   5.517   0.799  0.3357  0.1735 -0.0069
10273TIP3   OH255013   5.274   6.525   4.646  0.2834 -0.0276  0.0463
10273TIP3    H155014   5.251   6.475   4.725  1.6863 -1.2550 -0.2705
10273TIP3    H255015   5.327   6.464   4.594 -1.5822  0.3192 -2.4530
10274TIP3   OH255016   3.862   2.768   3.220 -0.2263  0.3942 -0.0744
10274TIP3    H155017   3.897   2.730   3.140  0.6721  0.0756  0.4516
10274TIP3    H255018   3.844   2.693   3.277 -0.4846  0.6343  0.1644
10275TIP3   OH255019   2.582   4.163   2.582 -0.1298  0.1385  0.1841
10275TIP3    H155020   2.611   4.127   2.666 -0.8974  0.0336  0.4042
10275TIP3    H255021   2.659   4.156   2.525 -0.1065 -1.3428  0.3787
10276TIP3   OH255022   3.658   0.829   0.911 -0.6627 -0.0026 -0.0058
10276TIP3    H155023   3.672   0.790   0.824  0.8834 -1.4186  0.8148
10276TIP3    H255024   3.674   0.923   0.898  1.6688 -0.4389 -0.8954
10277TIP3   OH255025   5.769   5.313   4.725 -0.6170  0.5152 -0.2192
10277TIP3    H155026   5.857   5.345   4.745  0.3734 -0.9379 -1.9320
10277TIP3    H255027   5.747   5.354   4.641 -0.9510 -0.2115 -0.4988
10278TIP3   OH255028   3.370   2.663   3.638  0.4085 -0.6338  0.0331
10278TIP3    H155029   3.309   2.669   3.711  0.0313 -1.4583 -0.2028
10278TIP3    H255030   3.398   2.753   3.622  2.6802 -0.6428  3.0155
10279TIP3   OH255031   4.068   2.306   2.466  0.0920  0.0216 -0.6187
10279TIP3    H155032   4.067   2.226   2.413  0.6717 -0.0062 -0.5983
10279TIP3    H255033   4.006   2.290   2.537  0.4334 -0.5288 -0.4421
10280TIP3   OH255034   6.224   5.947   1.314  0.4433 -0.2577 -0.4756
10280TIP3    H155035   6.164   6.021   1.310 -0.2435 -0.7254  0.6806
10280TIP3    H255036   6.248   5.931   1.223 -1.5253 -0.3100 -1.0359
10281TIP3   OH255037   0.465   5.732   1.755 -0.2764  0.8721  0.1395
10281TIP3    H155038   0.476   5.823   1.726  2.0950  1.0522  1.3482
10281TIP3    H255039   0.524   5.681   1.700  0.2791  0.4524  1.1037
10282TIP3   OH255040   0.320   5.136   1.627 -0.7584  0.1424 -0.0481
10282TIP3    H155041   0.314   5.230   1.608  1.1155  0.3739  0.3402
10282TIP3    H255042   0.230   5.104   1.616 -1.2939  1.8187 -0.9567
10283TIP3   OH255043   0.503   4.582   4.024  0.0917 -0.2637 -0.0494
10283TIP3    H155044   0.413   4.605   4.047  0.2559  0.2825  0.0691
10283TIP3    H255045   0.554   4.660   4.048  0.2418  0.4933 -2.5117
10284TIP3   OH255046   2.823   5.430   2.331  0.0089  0.4624 -0.5847
10284TIP3    H155047   2.794   5.474   2.411 -2.1763 -0.0611 -1.0376
10284TIP3    H255048   2.842   5.340   2.359  0.7869  0.6727 -0.3915
10285TIP3   OH255049   4.594   0.674   1.146  0.4262 -0.0824 -0.2602
10285TIP3    H155050   4.502   0.648   1.155  0.5254 -1.1275 -1.8073
10285TIP3    H255051   4.634   0.649   1.229 -0.2378 -1.7587 -0.4018
10286TIP3   OH255052   4.271   3.622   0.572  0.0276  0.3694  0.2469
10286TIP3    H155053   4.222   3.568   0.510  0.7112 -1.7435  1.4569
10286TIP3    H255054   4.358   3.581   0.577  1.3037  2.8113 -0.2964
10287TIP3   OH255055   0.061   4.568   3.814  0.7307 -0.1251 -0.1774
10287TIP3    H155056  -0.011   4.510   3.786 -0.2049  2.0386 -2.6744
10287TIP3    H255057   0.042   4.586   3.906 -0.1504 -2.0272  0.0687
10288TIP3   OH255058   5.984   2.991   0.929 -0.1790  0.3838  0.3471
10288TIP3    H155059   5.971   3.000   0.835  1.6215 -0.4864 -0.0419
10288TIP3    H255060   5.924   2.921   0.955 -0.7031  0.6472 -0.1582
10289TIP3   OH255061   6.205   5.872   1.725 -0.4897 -0.1009  0.4821
10289TIP3    H155062   6.194   5.830   1.810 -1.8244  2.5460  1.7367
10289TIP3    H255063   6.220   5.964   1.745 -0.7673  0.6156 -2.1581
10290TIP3   OH255064   5.900   0.284   2.012  0.0085  0.2939 -0.2490
10290TIP3    H155065   5.921   0.201   2.053  0.9471  0.0611 -1.1433
10290TIP3    H255066   5.859   0.260   1.929  1.7523  0.6569 -1.2668
10291TIP3   OH255067   4.768   1.354   3.329 -1.0556  0.6987  0.1626
10291TIP3    H155068   4.828   1.399   3.270 -2.1531  0.8158 -0.9154
10291TIP3    H255069   4.778   1.399   3.413  0.5487  0.5210  0.0988
10292TIP3   OH255070   0.073   0.019   0.721 -0.0517  0.4112  0.1254
10292TIP3    H155071   0.025   0.098   0.696  0.8190  1.5369  1.7668
10292TIP3    H255072   0.015  -0.026   0.782  0.2095  0.8176  0.6869
10293TIP3   OH255073   1.949   0.288   2.060 -0.4222 -0.5321 -0.2086
10293TIP3    H155074   1.922   0.298   2.151  0.2957  0.9722 -0.1287
10293TIP3    H255075   1.867   0.278   2.012 -1.1584  2.5488  0.1939
10294TIP3   OH255076   4.613   3.654   3.168  0.2329  0.1124 -0.7450
10294TIP3    H155077   4.690   3.599   3.179  0.1496  0.1989  0.3748
10294TIP3    H255078   4.630   3.703   3.087  1.6415  0.5794 -0.1996
10295TIP3   OH255079   6.347   1.665   4.255  0.5164  0.2547  0.1339
10295TIP3    H155080   6.273   1.712   4.214 -1.0135 -0.0269  2.3891
10295TIP3    H255081   6.305   1.601   4.312  2.5275  0.0638  1.4717
10296TIP3   OH255082   4.914   2.512   2.439 -0.0319  0.4512  0.0206
10296TIP3    H155083   4.973   2.583   2.414  1.2452 -1.1275 -1.7381
10296TIP3    H255084   4.937   2.440   2.381 -2.9688 -0.6260 -0.0099
10297TIP3   OH255085   4.325   3.361   3.357 -0.1329 -0.5532  0.5509
10297TIP3    H155086   4.327   3.400   3.444  0.7919 -0.4628  0.5033
10297TIP3    H255087   4.354   3.431   3.299 -1.1082 -0.4964  0.1150
10298TIP3   OH255088   1.348   4.089   1.588 -0.3988  0.6507  0.1612
10298TIP3    H155089   1.425   4.142   1.570 -1.4254  2.2055  0.0856
10298TIP3    H255090   1.305   4.081   1.503  0.8597 -2.2709 -0.2895
10299TIP3   OH255091   2.459   1.118   2.052  0.3136 -0.2016 -0.6404
10299TIP3    H155092   2.405   1.043   2.027  1.6453 -1.9417  1.4260
10299TIP3    H255093   2.546   1.099   2.018  0.3015  1.2850 -1.6001
10300TIP3   OH255094   5.682   6.545   3.466 -0.3549 -0.1369 -0.3006
10300TIP3    H155095   5.767   6.561   3.507 -1.1211 -2.9931  2.8635
10300TIP3    H255096   5.701   6.533   3.373  2.2622  1.6664 -0.1044
10301TIP3   OH255097   5.079   2.866   1.795 -0.1478  0.0289 -0.2992
10301TIP3    H155098   5.027   2.805   1.848  0.3042 -1.1867 -1.1899
10301TIP3    H255099   5.068   2.834   1.705  2.3738 -0.4903 -0.4868
10302TIP3   OH255100   1.968   0.027   3.007 -0.2305  0.5323 -0.1825
10302TIP3    H155101   1.971  -0.061   2.970 -3.4012  0.3001 -0.1636
10302TIP3    H255102   2.043   0.031   3.067 -0.1590 -2.2423  0.0465
10303TIP3   OH255103   0.227   3.123   2.332 -0.1014 -0.0168  0.1464
10303TIP3    H155104   0.241   3.167   2.248  1.0894  0.7019  0.6883
10303TIP3    H255105   0.193   3.037   2.308 -1.1931  0.6964 -1.0005
10304TIP3   OH255106   3.502   0.112   0.579 -0.0654  0.2588  0.3562
10304TIP3    H155107   3.425   0.110   0.522 -0.3437  1.7404  0.6346
10304TIP3    H255108   3.470   0.083   0.664  0.1881 -1.2378 -0.0341
10305TIP3   OH255109   4.749   5.020   2.960 -0.1064  0.2027  0.6619
10305TIP3    H155110   4.788   5.013   2.873  1.8118  1.2863  1.3516
10305TIP3    H255111   4.733   4.930   2.987  1.1985 -0.2558 -0.0238
10306TIP3   OH255112   1.266   1.000   3.204  0.2319  0.0817  0.1661
10306TIP3    H155113   1.215   1.071   3.243  1.6953  1.1676  0.1732
10306TIP3    H255114   1.283   1.029   3.115 -2.4446 -2.0506 -1.1857
10307TIP3   OH255115   0.729   1.627   1.817 -0.6734  0.6495 -0.3511
10307TIP3    H155116   0.729   1.617   1.722 -2.6121 -0.8051 -0.2507
10307TIP3    H255117   0.644   1.665   1.838 -0.9602 -0.6070  0.9182
10308TIP3   OH255118   0.866   0.899   1.561 -0.6779 -0.4144  0.7556
10308TIP3    H155119   0.876   0.987   1.524 -3.2101 -0.6578 -0.7435
10308TIP3    H255120   0.806   0.855   1.501  0.9376 -3.3862  1.1649
10309TIP3   OH255121   6.409   6.538   3.489 -0.3149 -0.3635  0.2842
10309TIP3    H155122   6.453   6.622   3.498 -1.9525  0.5288  0.3607
10309TIP3    H255123   6.471   6.474   3.523  1.8477  0.5132 -1.7324
10310TIP3   OH255124   5.877   1.764   2.599  0.4490 -0.9527  0.6038
10310TIP3    H155125   5.804   1.723   2.645 -0.5105  0.7492  0.6414
10310TIP3    H255126   5.843   1.847   2.567  1.7856 -1.0008 -1.1386
10311TIP3   OH255127   5.551   2.728   4.198 -0.3122  0.1816  0.0681
10311TIP3    H155128   5.571   2.639   4.168  2.4120  1.2782 -1.7557
10311TIP3    H255129   5.558   2.723   4.293  2.0833 -1.1261 -0.1112
10312TIP3   OH255130   6.026   3.777   4.225 -0.3071  0.4054 -0.3543
10312TIP3    H155131   6.081   3.764   4.302 -0.5942  0.1493 -0.1863
10312TIP3    H255132   5.990   3.865   4.235 -0.4742  0.3101 -0.1104
10313TIP3   OH255133   4.891   2.870   3.557  0.1029  0.3226  0.0281
10313TIP3    H155134   4.928   2.937   3.500  0.9854 -1.1803 -1.2414
10313TIP3    H255135   4.944   2.874   3.637 -0.2806  1.5478  0.2406
10314TIP3   OH255136   0.436   2.569   1.452  0.4684  0.3007  0.7332
10314TIP3    H155137   0.466   2.490   1.496  0.7975 -0.4943 -0.8431
10314TIP3    H255138   0.510   2.630   1.458  0.4149  0.3067  1.4649
10315TIP3   OH255139   3.216   3.816   1.261  0.4908  0.6770  0.2520
10315TIP3    H155140   3.205   3.777   1.174  2.6438 -1.1040  0.6878
10315TIP3    H255141   3.311   3.830   1.269  0.1720  2.4482  1.6694
10316TIP3   OH255142   3.972   1.166   2.417 -0.7874 -0.5189 -0.4967
10316TIP3    H155143   3.945   1.158   2.325 -1.1453 -1.6355 -0.3087
10316TIP3    H255144   4.059   1.128   2.419 -0.5334  0.0548 -0.4777
10317TIP3   OH255145   5.972   6.609   3.551 -0.0385 -0.2675  0.1132
10317TIP3    H155146   6.015   6.683   3.509 -0.1037  1.3725  2.7465
10317TIP3    H255147   6.039   6.541   3.554  0.6513  0.3601 -0.6047
10318TIP3   OH255148   4.549   0.880   1.347 -1.0387 -0.6449 -0.0732
10318TIP3    H155149   4.521   0.921   1.265 -3.3298 -2.4209 -0.2846
10318TIP3    H255150   4.629   0.832   1.324  0.2631  1.5325 -0.3939
10319TIP3   OH255151   5.657   2.666   2.762  0.6383  0.5013  0.3570
10319TIP3    H155152   5.638   2.743   2.816  0.2048 -0.3901  1.5259
10319TIP3    H255153   5.668   2.595   2.825 -0.5549 -0.7200 -0.7619
10320TIP3   OH255154   1.391   1.698   3.043  0.7991  0.1929 -0.4643
10320TIP3    H155155   1.438   1.615   3.052  0.4709 -0.0427 -0.8865
10320TIP3    H255156   1.385   1.732   3.132  2.9168  0.8749 -0.5319
10321TIP3   OH255157   6.566   6.462   1.918  0.2987  0.1955 -0.9065
10321TIP3    H155158   6.533   6.541   1.875 -0.9885  0.3614  0.2960
10321TIP3    H255159   6.635   6.493   1.976 -1.6453  0.8365  1.1918
10322TIP3   OH255160   1.881   3.847   0.412 -0.1857  0.6729 -0.3649
10322TIP3    H155161   1.975   3.862   0.414 -0.3092  1.8337 -1.7281
10322TIP3    H255162   1.870   3.767   0.361  0.0793  0.1837  0.3314
10323TIP3   OH255163   4.019   5.077   1.994  0.1742 -0.0494  0.2591
10323TIP3    H155164   4.012   5.042   1.905 -1.0168 -1.9534  1.0255
10323TIP3    H255165   3.962   5.154   1.994 -0.0083 -0.1734 -0.5729
10324TIP3   OH255166   0.917   0.216   0.690  0.3194 -0.0089  0.4411
10324TIP3    H155167   0.960   0.296   0.661 -0.1090 -0.0758 -0.4102
10324TIP3    H255168   0.825   0.228   0.664  0.1265 -0.5026  0.8821
10325TIP3   OH255169   6.102   3.552   3.985  0.4146  1.0502 -0.2904
10325TIP3    H155170   6.094   3.635   3.938  0.8481  1.0377 -0.3846
10325TIP3    H255171   6.017   3.541   4.028 -0.2265  0.7571 -1.5611
10326TIP3   OH255172   5.808   0.061   1.150 -0.3372  0.0379 -0.2928
10326TIP3    H155173   5.899   0.035   1.165  0.2944  1.5169 -1.2704
10326TIP3    H255174   5.799   0.059   1.054 -1.0891  0.6585 -0.2404
10327TIP3   OH255175   3.338   3.861   2.648 -0.1488 -0.0908 -0.1171
10327TIP3    H155176   3.366   3.793   2.587 -0.7668 -1.6641  1.2662
10327TIP3    H255177   3.249   3.836   2.673 -0.0451  0.7024  1.1310
10328TIP3   OH255178   5.168   6.365   3.717 -0.0355 -0.6549  0.9336
10328TIP3    H155179   5.112   6.371   3.639  0.6123 -0.1197  0.4968
10328TIP3    H255180   5.107   6.350   3.789 -0.7037 -0.5327  0.4063
10329TIP3   OH255181   5.302   2.912   2.262 -0.2940 -0.6371 -0.3705
10329TIP3    H155182   5.270   2.975   2.326 -0.1292  1.6120 -2.3389
10329TIP3    H255183   5.380   2.874   2.301  0.2945  1.3132  0.4369
10330TIP3   OH255184   2.070   3.254   2.414  0.1356  0.3589 -0.4478
10330TIP3    H155185   2.155   3.209   2.418  0.5690  1.1797 -0.0948
10330TIP3    H255186   2.016   3.209   2.478  0.3736 -0.0412 -0.5250
10331TIP3   OH255187   4.474   1.173   1.184 -0.6003  0.6137 -0.1116
10331TIP3    H155188   4.412   1.245   1.198 -1.1918  0.2243 -0.6328
10331TIP3    H255189   4.422   1.105   1.140  0.1760  0.2338 -0.4667
10332TIP3   OH255190   0.186   5.611   0.640  0.1804 -0.1463  0.0071
10332TIP3    H155191   0.106   5.584   0.594 -0.2107 -0.5714  0.9104
10332TIP3    H255192   0.161   5.690   0.687  0.1804 -0.4864  0.5844
10333TIP3   OH255193   2.324   4.855   3.053 -0.3171  0.4495  0.5050
10333TIP3    H155194   2.283   4.774   3.083 -1.4817 -0.2318 -2.5639
10333TIP3    H255195   2.271   4.924   3.093 -1.1399 -0.3457  0.8315
10334TIP3   OH255196   1.707   5.695   1.285  0.3924  0.2547 -0.0093
10334TIP3    H155197   1.782   5.730   1.333 -2.0805  2.9788  2.3234
10334TIP3    H255198   1.655   5.650   1.352 -0.7962 -0.2440 -1.2278
10335TIP3   OH255199   3.931   6.018   1.277  0.5591  0.0914  0.2337
10335TIP3    H155200   3.952   5.968   1.356  0.1008  0.1588  0.3995
10335TIP3    H255201   4.009   6.071   1.260  1.0915 -0.7403  0.0068
10336TIP3   OH255202   5.470   5.743   1.342  0.4743  0.0129 -0.2201
10336TIP3    H155203   5.423   5.694   1.274  2.0242 -0.2353 -1.1629
10336TIP3    H255204   5.488   5.828   1.302  0.6219  0.1962  0.2277
10337TIP3   OH255205   3.101   2.962   2.124  0.0197  0.1875  0.4940
10337TIP3    H155206   3.173   2.905   2.151 -1.1863 -0.7457  1.8637
10337TIP3    H255207   3.043   2.905   2.074 -0.9941  0.2985  1.5176
10338TIP3   OH255208   1.396   4.026   3.926 -0.5831  0.2470  0.6209
10338TIP3    H155209   1.407   4.058   4.015  2.1792  0.0820  0.4407
10338TIP3    H255210   1.432   4.095   3.870  0.8696 -0.9991 -0.0795
10339TIP3   OH255211   3.710   1.317   2.534 -0.6540 -0.8289 -0.0691
10339TIP3    H155212   3.684   1.226   2.551  1.6242 -1.1916  2.0080
10339TIP3    H255213   3.799   1.310   2.500  0.9332  0.6380  3.3416
10340TIP3   OH255214   5.731   5.911   4.605 -0.2256 -0.3114 -0.0917
10340TIP3    H155215   5.737   5.847   4.534 -1.5359 -0.2526 -0.2960
10340TIP3    H255216   5.653   5.963   4.583  0.8687  1.4578 -0.0051
10341TIP3   OH255217   2.123   0.293   1.320  0.1229  0.0869  0.3085
10341TIP3    H155218   2.125   0.385   1.347  1.3080  0.3725 -0.6493
10341TIP3    H255219   2.064   0.251   1.383  0.5126  1.2628  1.5168
10342TIP3   OH255220   3.220   1.195   2.578  0.2439  0.0230 -0.0262
10342TIP3    H155221   3.182   1.281   2.557 -0.6208  0.0019  1.3307
10342TIP3    H255222   3.298   1.189   2.523  0.4190  1.7559 -0.0217
10343TIP3   OH255223   0.565   3.744   3.366 -0.0378 -0.3187  0.2431
10343TIP3    H155224   0.616   3.670   3.333 -0.6789 -0.4768 -0.4313
10343TIP3    H255225   0.542   3.720   3.455  0.5212 -0.5228  0.3376
10344TIP3   OH255226   5.623   2.414   0.889  0.0126 -0.2104 -0.2408
10344TIP3    H155227   5.534   2.429   0.855  0.6774  1.3191 -1.4171
10344TIP3    H255228   5.612   2.409   0.984 -1.0484  2.4715 -0.1445
10345TIP3   OH255229   1.871   3.324   0.986  0.2034 -0.6642 -0.3800
10345TIP3    H155230   1.951   3.272   0.976  1.9710  2.0115 -1.3925
10345TIP3    H255231   1.885   3.374   1.066  0.2502  0.8527 -1.2869
10346TIP3   OH255232   1.635   3.065   1.131 -0.1661 -0.7283  0.3707
10346TIP3    H155233   1.724   3.087   1.158 -0.3578 -0.1839  0.5615
10346TIP3    H255234   1.588   3.051   1.213 -0.6649  0.6083  0.3343
10347TIP3   OH255235   3.730   3.514   2.011 -0.1763 -0.6365  0.3910
10347TIP3    H155236   3.817   3.502   1.973 -0.3716 -1.7275  0.2765
10347TIP3    H255237   3.736   3.599   2.055 -0.6873  1.9900 -4.0394
10348TIP3   OH255238   1.312   2.236   1.599  0.0293  0.7556  0.0383
10348TIP3    H155239   1.278   2.193   1.520  0.8293  0.7307 -0.3093
10348TIP3    H255240   1.404   2.209   1.602  0.7010  2.8225 -0.4545
10349TIP3   OH255241   1.411   2.130   3.227 -0.2829 -0.3177  0.3471
10349TIP3    H155242   1.321   2.149   3.254  0.4308  1.4181  1.6433
10349TIP3    H255243   1.414   2.155   3.135 -1.6403 -2.3605 -0.3259
10350TIP3   OH255244   1.836   1.587   1.988 -0.7128 -0.0374  0.3647
10350TIP3    H155245   1.791   1.640   2.055 -0.9143  1.8359 -1.1572
10350TIP3    H255246   1.928   1.593   2.012 -0.8090  0.3704  0.6487
10351TIP3   OH255247   3.546   4.326   1.528 -0.1360 -0.1536  0.3975
10351TIP3    H155248   3.607   4.261   1.565  0.1114 -0.4519 -0.4997
10351TIP3    H255249   3.600   4.404   1.516  0.0955 -0.4250 -0.4188
10352TIP3   OH255250   3.317   0.123   2.144  0.0407  0.1581 -0.2512
10352TIP3    H155251   3.385   0.074   2.097  0.2220  1.2253 -1.1612
10352TIP3    H255252   3.234   0.088   2.111  0.0761 -1.8457  1.5938
10353TIP3   OH255253   1.847   4.912   3.281 -0.1419 -0.0660  0.4207
10353TIP3    H155254   1.852   4.997   3.237  1.1829 -0.9618 -1.3046
10353TIP3    H255255   1.840   4.933   3.374 -0.5846  1.9180 -0.0118
10354TIP3   OH255256   5.018   6.366   0.757 -0.8623 -0.2803 -0.2040
10354TIP3    H155257   5.004   6.460   0.742 -2.5733 -0.6208 -0.9280
10354TIP3    H255258   5.107   6.350   0.724 -0.8402  0.9221 -0.7872
10355TIP3   OH255259   4.698   1.278   4.056 -0.1739  1.0188 -0.4360
10355TIP3    H155260   4.668   1.360   4.016 -2.3593  0.1681 -0.6607
10355TIP3    H255261   4.642   1.268   4.133  0.0874 -0.2362 -0.3971
10356TIP3   OH255262   3.735   3.462   3.503  0.3295 -0.1277  0.2226
10356TIP3    H155263   3.792   3.385   3.507 -0.8036 -0.9497  1.0631
10356TIP3    H255264   3.776   3.526   3.560 -0.1739 -1.1474  1.7926
10357TIP3   OH255265   1.123   4.436   3.466 -0.7353  0.1008 -0.2374
10357TIP3    H155266   1.099   4.343   3.473 -0.9583  0.2319  1.0455
10357TIP3    H255267   1.045   4.478   3.429  0.2825 -0.5654 -3.4313
10358TIP3   OH255268   4.132   0.519   2.098  0.3274  0.2399  1.1462
10358TIP3    H155269   4.055   0.576   2.093  0.2744  0.1885  1.3798
10358TIP3    H255270   4.189   0.562   2.161  0.9817  0.8698  0.1370
10359TIP3   OH255271   6.022   0.704   0.937  0.6420 -0.2236  0.2370
10359TIP3    H155272   5.956   0.773   0.946  0.5704  0.0030 -1.6333
10359TIP3    H255273   6.046   0.682   1.027 -0.6698  0.9492  0.9130
10360TIP3   OH255274   2.328   1.329   1.339  0.6614 -0.2290  0.0277
10360TIP3    H155275   2.299   1.294   1.255 -0.3948 -1.1965  0.7674
10360TIP3    H255276   2.423   1.322   1.337  0.6127 -0.7834 -0.8441
10361TIP3   OH255277   4.469   4.730   1.290  0.7699 -0.1001  0.5661
10361TIP3    H155278   4.518   4.674   1.351  1.5775 -0.2198 -0.1673
10361TIP3    H255279   4.517   4.814   1.291  0.9661 -0.1942 -0.1018
10362TIP3   OH255280   2.912   1.837   2.638 -0.9696  0.1361  0.5168
10362TIP3    H155281   2.889   1.873   2.724 -0.7316  0.4375  0.4515
10362TIP3    H255282   2.918   1.913   2.580  0.9847  0.1622  0.6994
10363TIP3   OH255283   3.356   1.987   0.803 -0.0676  0.2320 -0.0848
10363TIP3    H155284   3.325   2.036   0.880  0.5391  0.6520 -0.1020
10363TIP3    H255285   3.287   1.923   0.786 -0.4126  0.4288  0.5439
10364TIP3   OH255286   0.033   1.116   1.093  0.2165  0.3038 -0.5526
10364TIP3    H155287   0.105   1.178   1.103  0.3119  0.2568 -0.9310
10364TIP3    H255288   0.034   1.064   1.173  1.6469 -0.8029 -1.2513
10365TIP3   OH255289   3.986   1.287   1.039 -0.1599  0.2484 -0.1767
10365TIP3    H155290   3.988   1.191   1.039  2.2350  0.2195  0.2928
10365TIP3    H255291   4.019   1.311   1.126  1.1499  1.4513 -0.9622
10366TIP3   OH255292   5.557   2.247   1.779  0.3345  0.2943  0.3028
10366TIP3    H155293   5.508   2.255   1.861 -0.5276  0.0385 -0.1737
10366TIP3    H255294   5.640   2.208   1.804 -0.3543 -0.8297  0.9155
10367TIP3   OH255295   3.846   0.975   3.982  0.3030 -0.3212 -0.1779
10367TIP3    H155296   3.902   1.050   3.961 -0.5234  0.5981  0.7958
10367TIP3    H255297   3.893   0.900   3.945  0.6360  0.7665 -2.1363
10368TIP3   OH255298   0.725   4.738   2.326  0.1083 -0.1018 -0.2724
10368TIP3    H155299   0.677   4.771   2.250  0.1126 -0.3762 -0.3943
10368TIP3    H255300   0.674   4.769   2.401 -0.6879 -1.0184 -0.4097
10369TIP3   OH255301   0.962   0.777   1.793 -0.2963  0.4345  0.3482
10369TIP3    H155302   0.927   0.818   1.714  1.0184 -2.6635 -2.0736
10369TIP3    H255303   0.886   0.745   1.840 -1.0528  1.3956 -0.1787
10370TIP3   OH255304   1.237   0.300   1.939  0.3358 -0.0118  0.0794
10370TIP3    H155305   1.182   0.299   1.861 -0.4357  0.0659  0.6201
10370TIP3    H255306   1.264   0.391   1.949  3.8158 -0.5725 -2.4137
10371TIP3   OH255307   4.641   0.945   1.007  0.4063  0.3956  0.0806
10371TIP3    H155308   4.553   0.965   1.037  0.3441  1.3145 -0.6747
10371TIP3    H255309   4.658   0.857   1.040 -1.0429 -0.0679 -0.3245
10372TIP3   OH255310   2.271   3.165   1.271  0.2174 -0.0292 -0.1538
10372TIP3    H155311   2.320   3.102   1.324  0.0832 -0.0260 -0.0243
10372TIP3    H255312   2.273   3.246   1.322  0.6111  0.1451 -0.4404
10373TIP3   OH255313   1.412   1.814   1.472 -0.4328  0.3643 -0.0924
10373TIP3    H155314   1.389   1.770   1.553 -0.0946 -0.8288 -0.6270
10373TIP3    H255315   1.330   1.817   1.423 -0.8900  2.0649  0.7119
10374TIP3   OH255316   5.242   1.672   3.135  0.2699 -0.3755  0.1267
10374TIP3    H155317   5.292   1.745   3.173 -0.3071  1.0456 -1.6701
10374TIP3    H255318   5.199   1.631   3.210  1.8239  0.1538  1.3777
10375TIP3   OH255319   5.593   3.860   0.723  0.3093 -0.8741  0.3359
10375TIP3    H155320   5.636   3.930   0.675 -0.4180 -0.8829 -0.3520
10375TIP3    H255321   5.654   3.838   0.793  0.5649  0.4160  0.5484
10376TIP3   OH255322   3.728   5.562   0.802 -0.2840 -0.1399  0.0769
10376TIP3    H155323   3.810   5.542   0.756 -0.0096 -1.3408  1.0376
10376TIP3    H255324   3.725   5.658   0.803  2.2647  0.0325  1.9411
10377TIP3   OH255325   3.002   1.018   0.465  0.1883  0.0288 -0.2882
10377TIP3    H155326   2.944   1.076   0.515 -1.4673  0.3258 -2.4239
10377TIP3    H255327   3.084   1.068   0.456 -0.9013  1.7473 -1.3407
10378TIP3   OH255328   1.122   6.426   1.363  0.7304  0.1297  0.1508
10378TIP3    H155329   1.177   6.374   1.304  1.0622 -0.5604  1.0442
10378TIP3    H255330   1.155   6.515   1.354  0.7570  0.0421 -0.7156
10379TIP3   OH255331   3.296   1.072   3.223  0.6947  0.8249  0.0975
10379TIP3    H155332   3.226   1.096   3.162  0.3444 -0.3040  0.0352
10379TIP3    H255333   3.356   1.147   3.221 -0.1761  1.5354 -0.3356
10380TIP3   OH255334   0.282   4.191   1.510  0.1917 -0.0868  0.1257
10380TIP3    H155335   0.323   4.171   1.426 -0.0405  0.9045 -0.2353
10380TIP3    H255336   0.284   4.286   1.516 -0.1383 -0.1244  1.0799
10381TIP3   OH255337   1.713   1.583   1.726  0.2141 -0.4160 -0.3595
10381TIP3    H155338   1.684   1.495   1.700  1.6699 -1.0532  0.0639
10381TIP3    H255339   1.736   1.574   1.818  0.5614  0.3639 -0.3633
10382TIP3   OH255340   2.495   2.376   2.903  0.5301  0.3414 -0.1596
10382TIP3    H155341   2.564   2.318   2.870  0.2294 -1.4602  2.0887
10382TIP3    H255342   2.536   2.462   2.910  2.5233 -0.6328  0.9288
10383TIP3   OH255343   5.220   5.217   0.471 -0.0787  0.0151 -0.5545
10383TIP3    H155344   5.169   5.213   0.391 -1.3302  2.9714 -0.0523
10383TIP3    H255345   5.309   5.237   0.442  0.1432 -1.8019 -1.2671
10384TIP3   OH255346   1.505   4.111   3.599  0.1628  0.0912  0.0077
10384TIP3    H155347   1.441   4.159   3.652  0.5029  2.4952 -1.5652
10384TIP3    H255348   1.590   4.135   3.637  0.3972  1.6930 -1.3905
10385TIP3   OH255349   6.219   5.845   0.551 -0.2643  0.1465 -0.4874
10385TIP3    H155350   6.284   5.877   0.488  1.0012  1.5278  1.3825
10385TIP3    H255351   6.151   5.913   0.552  0.1802  0.5911  0.2687
10386TIP3   OH255352   5.194   6.086   2.482 -0.3068  0.3371  0.1792
10386TIP3    H155353   5.142   6.017   2.524 -2.2541 -0.2295 -2.8102
10386TIP3    H255354   5.271   6.041   2.449 -1.9719 -0.8215 -2.5187
10387TIP3   OH255355   0.389   0.051   1.903  0.0964 -0.7327  0.5799
10387TIP3    H155356   0.376   0.055   1.998 -1.4722  1.2417  0.3363
10387TIP3    H255357   0.405  -0.042   1.885 -2.1593 -1.5872  2.4839
10388TIP3   OH255358   4.877   3.176   3.126 -0.2929 -0.5481 -0.3697
10388TIP3    H155359   4.885   3.272   3.121  1.4131 -0.5844  0.7090
10388TIP3    H255360   4.784   3.159   3.111 -0.6688  1.2962 -0.4167
10389TIP3   OH255361   2.888   1.116   3.520  0.1077  0.0355  0.2108
10389TIP3    H155362   2.838   1.135   3.441  0.7736  0.3007 -0.1577
10389TIP3    H255363   2.823   1.083   3.583 -0.1890 -1.8396 -0.9945
10390TIP3   OH255364   2.518   5.645   3.517 -0.2010 -0.0936  0.2563
10390TIP3    H155365   2.515   5.620   3.609  0.3294  1.0375  0.5973
10390TIP3    H255366   2.561   5.571   3.474  0.4648 -0.2011  1.0767
10391TIP3   OH255367   1.045   2.521   1.513  0.3698 -0.4431  0.0757
10391TIP3    H155368   0.979   2.563   1.459 -0.6125  0.5131  1.9083
10391TIP3    H255369   1.124   2.572   1.499  0.3809 -0.7879 -1.1533
10392TIP3   OH255370   0.413   5.554   2.109  0.4174 -0.3127  0.6644
10392TIP3    H155371   0.392   5.647   2.118  1.8603  0.2006 -0.6694
10392TIP3    H255372   0.406   5.519   2.197  0.3487  1.1834  1.2829
10393TIP3   OH255373   4.007   1.541   3.202  0.2381 -0.5683 -0.4691
10393TIP3    H155374   4.009   1.491   3.283 -2.6537  0.7013  0.5677
10393TIP3    H255375   4.006   1.476   3.133 -1.9089 -1.9896  0.7655
10394TIP3   OH255376   1.200   4.244   2.511 -0.0535  0.3392 -0.4326
10394TIP3    H155377   1.296   4.237   2.503 -0.0207 -0.9622  0.6466
10394TIP3    H255378   1.172   4.287   2.431  1.6252  2.7101  0.1449
10395TIP3   OH255379   0.366   6.028   2.030  0.4718 -0.1840  0.4801
10395TIP3    H155380   0.450   6.049   1.988 -0.6567 -0.4940 -2.0933
10395TIP3    H255381   0.340   5.944   1.992 -1.6295  0.5454  0.1635
10396TIP3   OH255382   5.209   0.928   0.976 -0.1039 -0.4390  0.0937
10396TIP3    H155383   5.245   1.007   1.016  0.7352  0.0066 -1.4856
10396TIP3    H255384   5.156   0.888   1.046  0.8448  0.5907  1.4487
10397TIP3   OH255385   3.483   5.906   3.153 -0.1585 -0.9964  0.1516
10397TIP3    H155386   3.476   5.998   3.180 -0.9039 -1.4262  1.5082
10397TIP3    H255387   3.577   5.889   3.149 -0.0163 -0.1775 -0.1066
10398TIP3   OH255388   6.102   3.101   3.578  0.1397  0.4068 -0.6278
10398TIP3    H155389   6.053   3.179   3.601  0.9860  0.6846  0.3143
10398TIP3    H255390   6.036   3.037   3.552 -0.6524  1.0394 -0.2030
10399TIP3   OH255391   2.249   3.542   2.561  0.1017  0.5252  0.1880
10399TIP3    H155392   2.227   3.623   2.608  0.1907  0.8577 -0.3374
10399TIP3    H255393   2.303   3.493   2.623  0.8247  1.2860  0.1850
10400TIP3   OH255394   5.227   4.615   2.739  0.7502 -0.1116  0.3293
10400TIP3    H155395   5.187   4.682   2.795  0.8373  1.0034 -0.8870
10400TIP3    H255396   5.263   4.551   2.800  0.7765  1.0165  1.5494
10401TIP3   OH255397   4.100   5.148   3.043  0.3007  0.3822  1.0189
10401TIP3    H155398   4.179   5.203   3.042  0.8192 -0.3198 -0.8053
10401TIP3    H255399   4.131   5.062   3.014 -1.3981  0.5277 -1.4597
10402TIP3   OH255400   1.101   3.793   4.331 -0.2514 -0.8643 -0.9830
10402TIP3    H155401   1.008   3.807   4.349 -0.2255 -0.1439 -1.3569
10402TIP3    H255402   1.121   3.855   4.260  0.3198 -1.5896 -1.4648
10403TIP3   OH255403   5.238   0.040   4.278  0.3357  0.1805  0.1096
10403TIP3    H155404   5.327   0.075   4.279  0.9340 -1.2216  2.1021
10403TIP3    H255405   5.235  -0.017   4.202  1.4512 -0.4445  0.5092
10404TIP3   OH255406   2.945   5.954   2.009 -0.2357 -0.1529 -0.5246
10404TIP3    H155407   3.004   6.004   1.953 -0.0357 -0.1530 -0.3146
10404TIP3    H255408   2.862   6.003   2.006 -1.2625 -1.8307 -3.3753
10405TIP3   OH255409   1.281   3.872   3.198  0.4798 -0.1463  0.0166
10405TIP3    H155410   1.263   3.868   3.104 -0.0755 -0.1007  0.1176
10405TIP3    H255411   1.201   3.910   3.236  0.5113 -0.6043  0.5571
10406TIP3   OH255412   1.428   6.449   1.129  0.2906 -0.3973  0.0157
10406TIP3    H155413   1.466   6.365   1.103  1.6449 -0.0760  0.8935
10406TIP3    H255414   1.336   6.442   1.103  0.7344 -1.5200 -1.4091
10407TIP3   OH255415   4.396   3.226   1.636  0.1632  0.2535  0.0792
10407TIP3    H155416   4.428   3.163   1.701 -0.2669 -1.0284 -0.8894
10407TIP3    H255417   4.437   3.198   1.554 -0.5251  0.8609 -0.4858
10408TIP3   OH255418   4.543   1.030   0.540 -0.4756 -0.4655 -0.0753
10408TIP3    H155419   4.611   1.077   0.491 -0.9554  0.9890  0.6025
10408TIP3    H255420   4.587   0.951   0.571  0.7618  0.1773 -0.1031
10409TIP3   OH255421   3.167   4.319   2.088 -0.0347 -0.3109  0.1512
10409TIP3    H155422   3.235   4.386   2.086 -0.1391 -0.2191 -0.4396
10409TIP3    H255423   3.094   4.357   2.039 -0.4892 -0.4385  0.7138
10410TIP3   OH255424   2.450   0.598   2.563  0.2225 -0.5387  0.4440
10410TIP3    H155425   2.386   0.550   2.615 -0.5243  0.1533  0.1748
10410TIP3    H255426   2.413   0.685   2.552  0.9530 -0.2923 -0.1811
10411TIP3   OH255427   3.412   0.601   0.857 -0.1209 -0.2031  0.0632
10411TIP3    H155428   3.477   0.538   0.825  0.5540 -0.9065  2.5932
10411TIP3    H255429   3.430   0.681   0.807  0.8027 -1.2093 -1.2863
10412TIP3   OH255430   0.983   1.903   2.805  0.5284  0.2670 -0.5683
10412TIP3    H155431   0.988   1.957   2.884  0.7554  1.5070 -1.4231
10412TIP3    H255432   1.074   1.883   2.784  0.4782  0.1566 -0.6788
10413TIP3   OH255433   2.931   3.041   1.727  0.3907 -0.4461 -0.3915
10413TIP3    H155434   2.897   3.097   1.797  0.5941  0.2266 -0.8232
10413TIP3    H255435   2.906   2.953   1.753 -2.3904  0.0588 -1.0629
10414TIP3   OH255436   5.034   5.426   1.156 -0.9523  0.0582 -0.2371
10414TIP3    H155437   5.010   5.343   1.197 -2.8896 -0.6409 -2.5513
10414TIP3    H255438   4.997   5.493   1.213  0.7647 -0.5712  1.7330
10415TIP3   OH255439   4.446   1.593   1.057  0.3441  0.0054  0.3911
10415TIP3    H155440   4.499   1.671   1.039  1.1904 -0.9038 -1.2917
10415TIP3    H255441   4.374   1.598   0.994  0.9983 -1.0824 -0.4833
10416TIP3   OH255442   2.202   6.533   3.867 -0.3224  0.1203 -0.3588
10416TIP3    H155443   2.289   6.571   3.880 -0.7332  0.6756  0.8934
10416TIP3    H255444   2.219   6.442   3.845  0.5750  0.0753  0.4559
10417TIP3   OH255445   1.754   3.971   2.478  0.3941  0.3359  0.0931
10417TIP3    H155446   1.821   3.902   2.481  0.7024  0.5469 -1.4747
10417TIP3    H255447   1.683   3.933   2.426  0.8548  1.4353 -1.3685
10418TIP3   OH255448   0.371   5.416   3.346  0.5968  0.0510 -0.0950
10418TIP3    H155449   0.452   5.424   3.295 -0.6739 -0.3380 -2.2763
10418TIP3    H255450   0.301   5.440   3.285 -1.0330 -0.5634  1.4418
10419TIP3   OH255451   1.320   5.059   3.082 -0.8251 -0.5878 -0.1848
10419TIP3    H155452   1.243   5.007   3.059 -2.7648  0.9528  2.2316
10419TIP3    H255453   1.294   5.149   3.063  0.2165  0.0026  1.0250
10420TIP3   OH255454   3.967   1.113   3.640  0.0426 -0.0820  0.0377
10420TIP3    H155455   3.956   1.197   3.596  0.3286 -0.7193 -1.3056
10420TIP3    H255456   3.998   1.135   3.727  0.4462  1.1980 -0.4130
10421TIP3   OH255457   3.942   6.521   3.383  0.0888 -0.7502 -0.8097
10421TIP3    H155458   3.971   6.509   3.293  2.3850  2.0507 -0.5969
10421TIP3    H255459   4.023   6.517   3.434 -0.7873  0.5831  0.7666
10422TIP3   OH255460   1.667   5.350   1.723  0.0829  0.7423  1.0597
10422TIP3    H155461   1.704   5.433   1.693  0.1011  0.9679  1.6806
10422TIP3    H255462   1.583   5.343   1.677  1.7150 -0.8048 -2.0220
10423TIP3   OH255463   2.768   2.174   1.656 -0.0346 -0.3069  0.0559
10423TIP3    H155464   2.838   2.129   1.608  0.2634 -1.1460  1.2352
10423TIP3    H255465   2.711   2.210   1.588  1.2737 -0.0258 -0.9299
10424TIP3   OH255466   5.217   3.377   1.546  0.2714  0.4179  0.5709
10424TIP3    H155467   5.249   3.318   1.477 -1.0830 -0.8666  0.9973
10424TIP3    H255468   5.185   3.319   1.615 -1.7031  1.6238  0.7516
10425TIP3   OH255469   1.040   3.894   1.877  0.5650  0.2384  0.1712
10425TIP3    H155470   0.988   3.827   1.922 -0.0255 -0.9078 -2.0273
10425TIP3    H255471   1.126   3.889   1.918 -0.4030  0.6293  2.4094
10426TIP3   OH255472   2.446   1.820   1.083  0.1391 -0.2140  0.3115
10426TIP3    H155473   2.398   1.863   1.153  1.0560  0.1420  0.7416
10426TIP3    H255474   2.415   1.862   1.002 -1.3621 -1.0402  0.4158
10427TIP3   OH255475   4.274   0.970   1.557  0.3646 -0.6294 -0.2512
10427TIP3    H155476   4.287   0.877   1.576 -1.4280 -0.7925  0.3126
10427TIP3    H255477   4.361   1.009   1.571  1.1755 -2.2082 -0.6219
10428TIP3   OH255478   3.009   5.936   2.491 -0.0844 -0.1445  0.2257
10428TIP3    H155479   2.917   5.958   2.484 -0.0710 -0.3439 -0.7914
10428TIP3    H255480   3.053   5.994   2.428  0.6986  1.0274  1.7623
10429TIP3   OH255481   1.899   1.001   2.477  0.4225 -0.1940 -0.3483
10429TIP3    H155482   1.880   1.084   2.521 -2.0793 -0.6476 -0.3883
10429TIP3    H255483   1.885   0.935   2.545 -0.2590 -0.7155 -0.9875
10430TIP3   OH255484   4.214   0.957   0.754  0.4058 -0.3003  0.6871
10430TIP3    H155485   4.191   1.027   0.692 -0.4452 -0.3644  0.9191
10430TIP3    H255486   4.222   0.879   0.700  0.3655 -0.2175  0.5599
10431TIP3   OH255487   2.460   1.183   2.317 -0.0921 -0.4127  0.0906
10431TIP3    H155488   2.491   1.177   2.227  2.9286  1.6435  0.8210
10431TIP3    H255489   2.460   1.093   2.350  2.3406 -0.8415 -0.9373
10432TIP3   OH255490   4.667   1.656   4.692  0.0246  0.0482 -0.3885
10432TIP3    H155491   4.666   1.563   4.669 -0.9487 -0.0478 -0.0115
10432TIP3    H255492   4.631   1.700   4.615  1.3444  0.2205 -0.9320
10433TIP3   OH255493   1.644   0.815   1.996 -0.2487  0.0361 -0.1515
10433TIP3    H155494   1.574   0.792   2.058 -0.7722  0.7987 -0.4480
10433TIP3    H255495   1.639   0.747   1.929 -0.6192  0.0106 -0.1007
10434TIP3   OH255496   2.776   6.123   0.770  0.0770  0.4416 -0.0765
10434TIP3    H155497   2.683   6.102   0.775 -0.1080  1.3336  0.3577
10434TIP3    H255498   2.787   6.198   0.828  0.8474  1.1052 -1.0371
10435TIP3   OH255499   5.965   0.903   2.635  0.1272  0.3241 -0.0109
10435TIP3    H155500   5.984   0.893   2.728 -1.4292  0.9356  0.4123
10435TIP3    H255501   6.051   0.899   2.592  0.8642 -0.0250  1.4328
10436TIP3   OH255502   2.104   4.564   2.829  0.0780 -0.0331  0.1506
10436TIP3    H155503   2.174   4.560   2.765  0.5751  0.3993  0.6472
10436TIP3    H255504   2.063   4.649   2.814  0.4116  0.2155  0.6132
10437TIP3   OH255505   3.587   5.446   1.026 -0.3120  0.1795  0.2888
10437TIP3    H155506   3.676   5.451   0.991  0.8438 -2.0314  2.5834
10437TIP3    H255507   3.536   5.503   0.969  1.6879 -1.6589 -3.8294
10438TIP3   OH255508   6.110   5.996   4.229 -0.1637  0.1481  0.2042
10438TIP3    H155509   6.140   5.950   4.308 -0.9900  0.5930  0.7827
10438TIP3    H255510   6.016   5.979   4.225 -0.5498  2.0231  0.6060
10439TIP3   OH255511   3.563   2.042   1.871 -0.5364  0.3531  0.2462
10439TIP3    H155512   3.615   2.006   1.942  0.7799 -0.6815 -1.1938
10439TIP3    H255513   3.508   2.109   1.913  0.0995 -0.3138  2.2262
   6.61813   6.61813  30.00000
